+ 1.70005 1 0 ra 245 ------- 0 1.0 2.0 -1 0
- 1.70005 1 0 ra 245 ------- 0 1.0 2.0 -1 0
r 1.711357 1 0 ra 245 ------- 0 1.0 2.0 -1 0
+ 1.711357 0 2 ra 245 ------- 0 1.0 2.0 -1 0
- 1.711357 0 2 ra 245 ------- 0 1.0 2.0 -1 0
r 1.716553 0 2 ra 245 ------- 0 1.0 2.0 -1 0
+ 3.4001 1 0 ra 245 ------- 0 1.0 2.0 -1 1
- 3.4001 1 0 ra 245 ------- 0 1.0 2.0 -1 1
r 3.411407 1 0 ra 245 ------- 0 1.0 2.0 -1 1
+ 3.411407 0 2 ra 245 ------- 0 1.0 2.0 -1 1
- 3.411407 0 2 ra 245 ------- 0 1.0 2.0 -1 1
r 3.416603 0 2 ra 245 ------- 0 1.0 2.0 -1 1
+ 5.10015 1 0 ra 245 ------- 0 1.0 2.0 -1 2
- 5.10015 1 0 ra 245 ------- 0 1.0 2.0 -1 2
r 5.111457 1 0 ra 245 ------- 0 1.0 2.0 -1 2
+ 5.111457 0 2 ra 245 ------- 0 1.0 2.0 -1 2
- 5.111457 0 2 ra 245 ------- 0 1.0 2.0 -1 2
r 5.116653 0 2 ra 245 ------- 0 1.0 2.0 -1 2
+ 6.8002 1 0 ra 245 ------- 0 1.0 2.0 -1 3
- 6.8002 1 0 ra 245 ------- 0 1.0 2.0 -1 3
r 6.811507 1 0 ra 245 ------- 0 1.0 2.0 -1 3
+ 6.811507 0 2 ra 245 ------- 0 1.0 2.0 -1 3
- 6.811507 0 2 ra 245 ------- 0 1.0 2.0 -1 3
r 6.816703 0 2 ra 245 ------- 0 1.0 2.0 -1 3
+ 10.20025 1 0 ra 245 ------- 0 1.0 2.0 -1 4
- 10.20025 1 0 ra 245 ------- 0 1.0 2.0 -1 4
r 10.211557 1 0 ra 245 ------- 0 1.0 2.0 -1 4
+ 10.211557 0 2 ra 245 ------- 0 1.0 2.0 -1 4
- 10.211557 0 2 ra 245 ------- 0 1.0 2.0 -1 4
r 10.216753 0 2 ra 245 ------- 0 1.0 2.0 -1 4
+ 11.9003 1 0 ra 245 ------- 0 1.0 2.0 -1 5
- 11.9003 1 0 ra 245 ------- 0 1.0 2.0 -1 5
r 11.911607 1 0 ra 245 ------- 0 1.0 2.0 -1 5
+ 11.911607 0 2 ra 245 ------- 0 1.0 2.0 -1 5
- 11.911607 0 2 ra 245 ------- 0 1.0 2.0 -1 5
r 11.916803 0 2 ra 245 ------- 0 1.0 2.0 -1 5
+ 13.60035 1 0 ra 245 ------- 0 1.0 2.0 -1 6
- 13.60035 1 0 ra 245 ------- 0 1.0 2.0 -1 6
r 13.611657 1 0 ra 245 ------- 0 1.0 2.0 -1 6
+ 13.611657 0 2 ra 245 ------- 0 1.0 2.0 -1 6
- 13.611657 0 2 ra 245 ------- 0 1.0 2.0 -1 6
r 13.616853 0 2 ra 245 ------- 0 1.0 2.0 -1 6
+ 15.3004 1 0 ra 245 ------- 0 1.0 2.0 -1 7
- 15.3004 1 0 ra 245 ------- 0 1.0 2.0 -1 7
r 15.311707 1 0 ra 245 ------- 0 1.0 2.0 -1 7
+ 15.311707 0 2 ra 245 ------- 0 1.0 2.0 -1 7
- 15.311707 0 2 ra 245 ------- 0 1.0 2.0 -1 7
r 15.316903 0 2 ra 245 ------- 0 1.0 2.0 -1 7
+ 18.70045 1 0 ra 245 ------- 0 1.0 2.0 -1 8
- 18.70045 1 0 ra 245 ------- 0 1.0 2.0 -1 8
r 18.711757 1 0 ra 245 ------- 0 1.0 2.0 -1 8
+ 18.711757 0 2 ra 245 ------- 0 1.0 2.0 -1 8
- 18.711757 0 2 ra 245 ------- 0 1.0 2.0 -1 8
r 18.716953 0 2 ra 245 ------- 0 1.0 2.0 -1 8
+ 20.4005 1 0 ra 245 ------- 0 1.0 2.0 -1 9
- 20.4005 1 0 ra 245 ------- 0 1.0 2.0 -1 9
r 20.411807 1 0 ra 245 ------- 0 1.0 2.0 -1 9
+ 20.411807 0 2 ra 245 ------- 0 1.0 2.0 -1 9
- 20.411807 0 2 ra 245 ------- 0 1.0 2.0 -1 9
r 20.417003 0 2 ra 245 ------- 0 1.0 2.0 -1 9
+ 22.10055 1 0 ra 245 ------- 0 1.0 2.0 -1 10
- 22.10055 1 0 ra 245 ------- 0 1.0 2.0 -1 10
r 22.111857 1 0 ra 245 ------- 0 1.0 2.0 -1 10
+ 22.111857 0 2 ra 245 ------- 0 1.0 2.0 -1 10
- 22.111857 0 2 ra 245 ------- 0 1.0 2.0 -1 10
r 22.117053 0 2 ra 245 ------- 0 1.0 2.0 -1 10
+ 23.8006 1 0 ra 245 ------- 0 1.0 2.0 -1 11
- 23.8006 1 0 ra 245 ------- 0 1.0 2.0 -1 11
r 23.811907 1 0 ra 245 ------- 0 1.0 2.0 -1 11
+ 23.811907 0 2 ra 245 ------- 0 1.0 2.0 -1 11
- 23.811907 0 2 ra 245 ------- 0 1.0 2.0 -1 11
r 23.817103 0 2 ra 245 ------- 0 1.0 2.0 -1 11
+ 25.50065 1 0 ra 245 ------- 0 1.0 2.0 -1 12
- 25.50065 1 0 ra 245 ------- 0 1.0 2.0 -1 12
r 25.511957 1 0 ra 245 ------- 0 1.0 2.0 -1 12
+ 25.511957 0 2 ra 245 ------- 0 1.0 2.0 -1 12
- 25.511957 0 2 ra 245 ------- 0 1.0 2.0 -1 12
r 25.517153 0 2 ra 245 ------- 0 1.0 2.0 -1 12
+ 28.9007 1 0 ra 245 ------- 0 1.0 2.0 -1 13
- 28.9007 1 0 ra 245 ------- 0 1.0 2.0 -1 13
r 28.912007 1 0 ra 245 ------- 0 1.0 2.0 -1 13
+ 28.912007 0 2 ra 245 ------- 0 1.0 2.0 -1 13
- 28.912007 0 2 ra 245 ------- 0 1.0 2.0 -1 13
r 28.917203 0 2 ra 245 ------- 0 1.0 2.0 -1 13
+ 30.60075 1 0 ra 245 ------- 0 1.0 2.0 -1 14
- 30.60075 1 0 ra 245 ------- 0 1.0 2.0 -1 14
r 30.612057 1 0 ra 245 ------- 0 1.0 2.0 -1 14
+ 30.612057 0 2 ra 245 ------- 0 1.0 2.0 -1 14
- 30.612057 0 2 ra 245 ------- 0 1.0 2.0 -1 14
r 30.617253 0 2 ra 245 ------- 0 1.0 2.0 -1 14
+ 32.3008 1 0 ra 245 ------- 0 1.0 2.0 -1 15
- 32.3008 1 0 ra 245 ------- 0 1.0 2.0 -1 15
r 32.312107 1 0 ra 245 ------- 0 1.0 2.0 -1 15
+ 32.312107 0 2 ra 245 ------- 0 1.0 2.0 -1 15
- 32.312107 0 2 ra 245 ------- 0 1.0 2.0 -1 15
r 32.317303 0 2 ra 245 ------- 0 1.0 2.0 -1 15
+ 34.00085 1 0 ra 245 ------- 0 1.0 2.0 -1 16
- 34.00085 1 0 ra 245 ------- 0 1.0 2.0 -1 16
r 34.012157 1 0 ra 245 ------- 0 1.0 2.0 -1 16
+ 34.012157 0 2 ra 245 ------- 0 1.0 2.0 -1 16
- 34.012157 0 2 ra 245 ------- 0 1.0 2.0 -1 16
r 34.017353 0 2 ra 245 ------- 0 1.0 2.0 -1 16
+ 37.4009 1 0 ra 245 ------- 0 1.0 2.0 -1 17
- 37.4009 1 0 ra 245 ------- 0 1.0 2.0 -1 17
r 37.412207 1 0 ra 245 ------- 0 1.0 2.0 -1 17
+ 37.412207 0 2 ra 245 ------- 0 1.0 2.0 -1 17
- 37.412207 0 2 ra 245 ------- 0 1.0 2.0 -1 17
r 37.417403 0 2 ra 245 ------- 0 1.0 2.0 -1 17
+ 39.10095 1 0 ra 245 ------- 0 1.0 2.0 -1 18
- 39.10095 1 0 ra 245 ------- 0 1.0 2.0 -1 18
r 39.112257 1 0 ra 245 ------- 0 1.0 2.0 -1 18
+ 39.112257 0 2 ra 245 ------- 0 1.0 2.0 -1 18
- 39.112257 0 2 ra 245 ------- 0 1.0 2.0 -1 18
r 39.117453 0 2 ra 245 ------- 0 1.0 2.0 -1 18
+ 40.801 1 0 ra 245 ------- 0 1.0 2.0 -1 19
- 40.801 1 0 ra 245 ------- 0 1.0 2.0 -1 19
r 40.812307 1 0 ra 245 ------- 0 1.0 2.0 -1 19
+ 40.812307 0 2 ra 245 ------- 0 1.0 2.0 -1 19
- 40.812307 0 2 ra 245 ------- 0 1.0 2.0 -1 19
r 40.817503 0 2 ra 245 ------- 0 1.0 2.0 -1 19
+ 42.50105 1 0 ra 245 ------- 0 1.0 2.0 -1 20
- 42.50105 1 0 ra 245 ------- 0 1.0 2.0 -1 20
r 42.512357 1 0 ra 245 ------- 0 1.0 2.0 -1 20
+ 42.512357 0 2 ra 245 ------- 0 1.0 2.0 -1 20
- 42.512357 0 2 ra 245 ------- 0 1.0 2.0 -1 20
r 42.517553 0 2 ra 245 ------- 0 1.0 2.0 -1 20
+ 44.2011 1 0 ra 245 ------- 0 1.0 2.0 -1 21
- 44.2011 1 0 ra 245 ------- 0 1.0 2.0 -1 21
r 44.212407 1 0 ra 245 ------- 0 1.0 2.0 -1 21
+ 44.212407 0 2 ra 245 ------- 0 1.0 2.0 -1 21
- 44.212407 0 2 ra 245 ------- 0 1.0 2.0 -1 21
r 44.217603 0 2 ra 245 ------- 0 1.0 2.0 -1 21
+ 45.90115 1 0 ra 245 ------- 0 1.0 2.0 -1 22
- 45.90115 1 0 ra 245 ------- 0 1.0 2.0 -1 22
r 45.912457 1 0 ra 245 ------- 0 1.0 2.0 -1 22
+ 45.912457 0 2 ra 245 ------- 0 1.0 2.0 -1 22
- 45.912457 0 2 ra 245 ------- 0 1.0 2.0 -1 22
r 45.917653 0 2 ra 245 ------- 0 1.0 2.0 -1 22
+ 47.6012 1 0 ra 245 ------- 0 1.0 2.0 -1 23
- 47.6012 1 0 ra 245 ------- 0 1.0 2.0 -1 23
r 47.612507 1 0 ra 245 ------- 0 1.0 2.0 -1 23
+ 47.612507 0 2 ra 245 ------- 0 1.0 2.0 -1 23
- 47.612507 0 2 ra 245 ------- 0 1.0 2.0 -1 23
r 47.617703 0 2 ra 245 ------- 0 1.0 2.0 -1 23
+ 51.00125 1 0 ra 245 ------- 0 1.0 2.0 -1 24
- 51.00125 1 0 ra 245 ------- 0 1.0 2.0 -1 24
r 51.012557 1 0 ra 245 ------- 0 1.0 2.0 -1 24
+ 51.012557 0 2 ra 245 ------- 0 1.0 2.0 -1 24
- 51.012557 0 2 ra 245 ------- 0 1.0 2.0 -1 24
r 51.017753 0 2 ra 245 ------- 0 1.0 2.0 -1 24
+ 54.4013 1 0 ra 245 ------- 0 1.0 2.0 -1 25
- 54.4013 1 0 ra 245 ------- 0 1.0 2.0 -1 25
r 54.412607 1 0 ra 245 ------- 0 1.0 2.0 -1 25
+ 54.412607 0 2 ra 245 ------- 0 1.0 2.0 -1 25
- 54.412607 0 2 ra 245 ------- 0 1.0 2.0 -1 25
r 54.417803 0 2 ra 245 ------- 0 1.0 2.0 -1 25
+ 56.10135 1 0 ra 245 ------- 0 1.0 2.0 -1 26
- 56.10135 1 0 ra 245 ------- 0 1.0 2.0 -1 26
r 56.112657 1 0 ra 245 ------- 0 1.0 2.0 -1 26
+ 56.112657 0 2 ra 245 ------- 0 1.0 2.0 -1 26
- 56.112657 0 2 ra 245 ------- 0 1.0 2.0 -1 26
r 56.117853 0 2 ra 245 ------- 0 1.0 2.0 -1 26
+ 57.8014 1 0 ra 245 ------- 0 1.0 2.0 -1 27
- 57.8014 1 0 ra 245 ------- 0 1.0 2.0 -1 27
r 57.812707 1 0 ra 245 ------- 0 1.0 2.0 -1 27
+ 57.812707 0 2 ra 245 ------- 0 1.0 2.0 -1 27
- 57.812707 0 2 ra 245 ------- 0 1.0 2.0 -1 27
r 57.817903 0 2 ra 245 ------- 0 1.0 2.0 -1 27
+ 61.20145 1 0 ra 245 ------- 0 1.0 2.0 -1 28
- 61.20145 1 0 ra 245 ------- 0 1.0 2.0 -1 28
r 61.212757 1 0 ra 245 ------- 0 1.0 2.0 -1 28
+ 61.212757 0 2 ra 245 ------- 0 1.0 2.0 -1 28
- 61.212757 0 2 ra 245 ------- 0 1.0 2.0 -1 28
r 61.217953 0 2 ra 245 ------- 0 1.0 2.0 -1 28
+ 62.9015 1 0 ra 245 ------- 0 1.0 2.0 -1 29
- 62.9015 1 0 ra 245 ------- 0 1.0 2.0 -1 29
r 62.912807 1 0 ra 245 ------- 0 1.0 2.0 -1 29
+ 62.912807 0 2 ra 245 ------- 0 1.0 2.0 -1 29
- 62.912807 0 2 ra 245 ------- 0 1.0 2.0 -1 29
r 62.918003 0 2 ra 245 ------- 0 1.0 2.0 -1 29
+ 64.60155 1 0 ra 245 ------- 0 1.0 2.0 -1 30
- 64.60155 1 0 ra 245 ------- 0 1.0 2.0 -1 30
r 64.612857 1 0 ra 245 ------- 0 1.0 2.0 -1 30
+ 64.612857 0 2 ra 245 ------- 0 1.0 2.0 -1 30
- 64.612857 0 2 ra 245 ------- 0 1.0 2.0 -1 30
r 64.618053 0 2 ra 245 ------- 0 1.0 2.0 -1 30
+ 69.7016 1 0 ra 245 ------- 0 1.0 2.0 -1 31
- 69.7016 1 0 ra 245 ------- 0 1.0 2.0 -1 31
+ 69.70165 1 0 ra 245 ------- 0 1.0 2.0 -1 32
- 69.702907 1 0 ra 245 ------- 0 1.0 2.0 -1 32
r 69.712907 1 0 ra 245 ------- 0 1.0 2.0 -1 31
+ 69.712907 0 2 ra 245 ------- 0 1.0 2.0 -1 31
- 69.712907 0 2 ra 245 ------- 0 1.0 2.0 -1 31
r 69.714213 1 0 ra 245 ------- 0 1.0 2.0 -1 32
+ 69.714213 0 2 ra 245 ------- 0 1.0 2.0 -1 32
- 69.714213 0 2 ra 245 ------- 0 1.0 2.0 -1 32
r 69.718103 0 2 ra 245 ------- 0 1.0 2.0 -1 31
r 69.719409 0 2 ra 245 ------- 0 1.0 2.0 -1 32
+ 71.4017 1 0 ra 245 ------- 0 1.0 2.0 -1 33
- 71.4017 1 0 ra 245 ------- 0 1.0 2.0 -1 33
r 71.413007 1 0 ra 245 ------- 0 1.0 2.0 -1 33
+ 71.413007 0 2 ra 245 ------- 0 1.0 2.0 -1 33
- 71.413007 0 2 ra 245 ------- 0 1.0 2.0 -1 33
r 71.418203 0 2 ra 245 ------- 0 1.0 2.0 -1 33
+ 73.10175 1 0 ra 245 ------- 0 1.0 2.0 -1 34
- 73.10175 1 0 ra 245 ------- 0 1.0 2.0 -1 34
r 73.113057 1 0 ra 245 ------- 0 1.0 2.0 -1 34
+ 73.113057 0 2 ra 245 ------- 0 1.0 2.0 -1 34
- 73.113057 0 2 ra 245 ------- 0 1.0 2.0 -1 34
r 73.118253 0 2 ra 245 ------- 0 1.0 2.0 -1 34
+ 74.8018 1 0 ra 245 ------- 0 1.0 2.0 -1 35
- 74.8018 1 0 ra 245 ------- 0 1.0 2.0 -1 35
r 74.813107 1 0 ra 245 ------- 0 1.0 2.0 -1 35
+ 74.813107 0 2 ra 245 ------- 0 1.0 2.0 -1 35
- 74.813107 0 2 ra 245 ------- 0 1.0 2.0 -1 35
r 74.818303 0 2 ra 245 ------- 0 1.0 2.0 -1 35
+ 78.20185 1 0 ra 245 ------- 0 1.0 2.0 -1 36
- 78.20185 1 0 ra 245 ------- 0 1.0 2.0 -1 36
r 78.213157 1 0 ra 245 ------- 0 1.0 2.0 -1 36
+ 78.213157 0 2 ra 245 ------- 0 1.0 2.0 -1 36
- 78.213157 0 2 ra 245 ------- 0 1.0 2.0 -1 36
r 78.218353 0 2 ra 245 ------- 0 1.0 2.0 -1 36
+ 85.0019 1 0 ra 245 ------- 0 1.0 2.0 -1 37
- 85.0019 1 0 ra 245 ------- 0 1.0 2.0 -1 37
+ 85.00195 1 0 ra 245 ------- 0 1.0 2.0 -1 38
+ 85.002 1 0 ra 245 ------- 0 1.0 2.0 -1 39
- 85.003207 1 0 ra 245 ------- 0 1.0 2.0 -1 38
- 85.004513 1 0 ra 245 ------- 0 1.0 2.0 -1 39
r 85.013207 1 0 ra 245 ------- 0 1.0 2.0 -1 37
+ 85.013207 0 2 ra 245 ------- 0 1.0 2.0 -1 37
- 85.013207 0 2 ra 245 ------- 0 1.0 2.0 -1 37
r 85.014513 1 0 ra 245 ------- 0 1.0 2.0 -1 38
+ 85.014513 0 2 ra 245 ------- 0 1.0 2.0 -1 38
- 85.014513 0 2 ra 245 ------- 0 1.0 2.0 -1 38
r 85.01582 1 0 ra 245 ------- 0 1.0 2.0 -1 39
+ 85.01582 0 2 ra 245 ------- 0 1.0 2.0 -1 39
- 85.01582 0 2 ra 245 ------- 0 1.0 2.0 -1 39
r 85.018403 0 2 ra 245 ------- 0 1.0 2.0 -1 37
r 85.019709 0 2 ra 245 ------- 0 1.0 2.0 -1 38
r 85.021016 0 2 ra 245 ------- 0 1.0 2.0 -1 39
+ 86.70205 1 0 ra 245 ------- 0 1.0 2.0 -1 40
- 86.70205 1 0 ra 245 ------- 0 1.0 2.0 -1 40
r 86.713357 1 0 ra 245 ------- 0 1.0 2.0 -1 40
+ 86.713357 0 2 ra 245 ------- 0 1.0 2.0 -1 40
- 86.713357 0 2 ra 245 ------- 0 1.0 2.0 -1 40
r 86.718553 0 2 ra 245 ------- 0 1.0 2.0 -1 40
+ 88.4021 1 0 ra 245 ------- 0 1.0 2.0 -1 41
- 88.4021 1 0 ra 245 ------- 0 1.0 2.0 -1 41
r 88.413407 1 0 ra 245 ------- 0 1.0 2.0 -1 41
+ 88.413407 0 2 ra 245 ------- 0 1.0 2.0 -1 41
- 88.413407 0 2 ra 245 ------- 0 1.0 2.0 -1 41
r 88.418603 0 2 ra 245 ------- 0 1.0 2.0 -1 41
+ 90.10215 1 0 ra 245 ------- 0 1.0 2.0 -1 42
- 90.10215 1 0 ra 245 ------- 0 1.0 2.0 -1 42
r 90.113457 1 0 ra 245 ------- 0 1.0 2.0 -1 42
+ 90.113457 0 2 ra 245 ------- 0 1.0 2.0 -1 42
- 90.113457 0 2 ra 245 ------- 0 1.0 2.0 -1 42
r 90.118653 0 2 ra 245 ------- 0 1.0 2.0 -1 42
+ 91.8022 1 0 ra 245 ------- 0 1.0 2.0 -1 43
- 91.8022 1 0 ra 245 ------- 0 1.0 2.0 -1 43
r 91.813507 1 0 ra 245 ------- 0 1.0 2.0 -1 43
+ 91.813507 0 2 ra 245 ------- 0 1.0 2.0 -1 43
- 91.813507 0 2 ra 245 ------- 0 1.0 2.0 -1 43
r 91.818703 0 2 ra 245 ------- 0 1.0 2.0 -1 43
+ 93.50225 1 0 ra 245 ------- 0 1.0 2.0 -1 44
- 93.50225 1 0 ra 245 ------- 0 1.0 2.0 -1 44
r 93.513557 1 0 ra 245 ------- 0 1.0 2.0 -1 44
+ 93.513557 0 2 ra 245 ------- 0 1.0 2.0 -1 44
- 93.513557 0 2 ra 245 ------- 0 1.0 2.0 -1 44
r 93.518753 0 2 ra 245 ------- 0 1.0 2.0 -1 44
+ 95.2023 1 0 ra 245 ------- 0 1.0 2.0 -1 45
- 95.2023 1 0 ra 245 ------- 0 1.0 2.0 -1 45
r 95.213607 1 0 ra 245 ------- 0 1.0 2.0 -1 45
+ 95.213607 0 2 ra 245 ------- 0 1.0 2.0 -1 45
- 95.213607 0 2 ra 245 ------- 0 1.0 2.0 -1 45
r 95.218803 0 2 ra 245 ------- 0 1.0 2.0 -1 45
+ 96.90235 1 0 ra 245 ------- 0 1.0 2.0 -1 46
- 96.90235 1 0 ra 245 ------- 0 1.0 2.0 -1 46
r 96.913657 1 0 ra 245 ------- 0 1.0 2.0 -1 46
+ 96.913657 0 2 ra 245 ------- 0 1.0 2.0 -1 46
- 96.913657 0 2 ra 245 ------- 0 1.0 2.0 -1 46
r 96.918853 0 2 ra 245 ------- 0 1.0 2.0 -1 46
+ 98.6024 1 0 ra 245 ------- 0 1.0 2.0 -1 47
- 98.6024 1 0 ra 245 ------- 0 1.0 2.0 -1 47
r 98.613707 1 0 ra 245 ------- 0 1.0 2.0 -1 47
+ 98.613707 0 2 ra 245 ------- 0 1.0 2.0 -1 47
- 98.613707 0 2 ra 245 ------- 0 1.0 2.0 -1 47
r 98.618903 0 2 ra 245 ------- 0 1.0 2.0 -1 47
+ 100.30245 1 0 ra 245 ------- 0 1.0 2.0 -1 48
- 100.30245 1 0 ra 245 ------- 0 1.0 2.0 -1 48
r 100.313757 1 0 ra 245 ------- 0 1.0 2.0 -1 48
+ 100.313757 0 2 ra 245 ------- 0 1.0 2.0 -1 48
- 100.313757 0 2 ra 245 ------- 0 1.0 2.0 -1 48
r 100.318953 0 2 ra 245 ------- 0 1.0 2.0 -1 48
+ 103.7025 1 0 ra 245 ------- 0 1.0 2.0 -1 49
- 103.7025 1 0 ra 245 ------- 0 1.0 2.0 -1 49
r 103.713807 1 0 ra 245 ------- 0 1.0 2.0 -1 49
+ 103.713807 0 2 ra 245 ------- 0 1.0 2.0 -1 49
- 103.713807 0 2 ra 245 ------- 0 1.0 2.0 -1 49
r 103.719003 0 2 ra 245 ------- 0 1.0 2.0 -1 49
+ 105.40255 1 0 ra 245 ------- 0 1.0 2.0 -1 50
- 105.40255 1 0 ra 245 ------- 0 1.0 2.0 -1 50
r 105.413857 1 0 ra 245 ------- 0 1.0 2.0 -1 50
+ 105.413857 0 2 ra 245 ------- 0 1.0 2.0 -1 50
- 105.413857 0 2 ra 245 ------- 0 1.0 2.0 -1 50
r 105.419053 0 2 ra 245 ------- 0 1.0 2.0 -1 50
+ 107.1026 1 0 ra 245 ------- 0 1.0 2.0 -1 51
- 107.1026 1 0 ra 245 ------- 0 1.0 2.0 -1 51
r 107.113907 1 0 ra 245 ------- 0 1.0 2.0 -1 51
+ 107.113907 0 2 ra 245 ------- 0 1.0 2.0 -1 51
- 107.113907 0 2 ra 245 ------- 0 1.0 2.0 -1 51
r 107.119103 0 2 ra 245 ------- 0 1.0 2.0 -1 51
+ 108.80265 1 0 ra 245 ------- 0 1.0 2.0 -1 52
- 108.80265 1 0 ra 245 ------- 0 1.0 2.0 -1 52
r 108.813957 1 0 ra 245 ------- 0 1.0 2.0 -1 52
+ 108.813957 0 2 ra 245 ------- 0 1.0 2.0 -1 52
- 108.813957 0 2 ra 245 ------- 0 1.0 2.0 -1 52
r 108.819153 0 2 ra 245 ------- 0 1.0 2.0 -1 52
+ 110.5027 1 0 ra 245 ------- 0 1.0 2.0 -1 53
- 110.5027 1 0 ra 245 ------- 0 1.0 2.0 -1 53
r 110.514007 1 0 ra 245 ------- 0 1.0 2.0 -1 53
+ 110.514007 0 2 ra 245 ------- 0 1.0 2.0 -1 53
- 110.514007 0 2 ra 245 ------- 0 1.0 2.0 -1 53
r 110.519203 0 2 ra 245 ------- 0 1.0 2.0 -1 53
+ 112.20275 1 0 ra 245 ------- 0 1.0 2.0 -1 54
- 112.20275 1 0 ra 245 ------- 0 1.0 2.0 -1 54
r 112.214057 1 0 ra 245 ------- 0 1.0 2.0 -1 54
+ 112.214057 0 2 ra 245 ------- 0 1.0 2.0 -1 54
- 112.214057 0 2 ra 245 ------- 0 1.0 2.0 -1 54
r 112.219253 0 2 ra 245 ------- 0 1.0 2.0 -1 54
+ 113.9028 1 0 ra 245 ------- 0 1.0 2.0 -1 55
- 113.9028 1 0 ra 245 ------- 0 1.0 2.0 -1 55
r 113.914107 1 0 ra 245 ------- 0 1.0 2.0 -1 55
+ 113.914107 0 2 ra 245 ------- 0 1.0 2.0 -1 55
- 113.914107 0 2 ra 245 ------- 0 1.0 2.0 -1 55
r 113.919303 0 2 ra 245 ------- 0 1.0 2.0 -1 55
+ 115.60285 1 0 ra 245 ------- 0 1.0 2.0 -1 56
- 115.60285 1 0 ra 245 ------- 0 1.0 2.0 -1 56
r 115.614157 1 0 ra 245 ------- 0 1.0 2.0 -1 56
+ 115.614157 0 2 ra 245 ------- 0 1.0 2.0 -1 56
- 115.614157 0 2 ra 245 ------- 0 1.0 2.0 -1 56
r 115.619353 0 2 ra 245 ------- 0 1.0 2.0 -1 56
+ 122.4029 1 0 ra 245 ------- 0 1.0 2.0 -1 57
- 122.4029 1 0 ra 245 ------- 0 1.0 2.0 -1 57
+ 122.40295 1 0 ra 245 ------- 0 1.0 2.0 -1 58
+ 122.403 1 0 ra 245 ------- 0 1.0 2.0 -1 59
- 122.404207 1 0 ra 245 ------- 0 1.0 2.0 -1 58
- 122.405513 1 0 ra 245 ------- 0 1.0 2.0 -1 59
r 122.414207 1 0 ra 245 ------- 0 1.0 2.0 -1 57
+ 122.414207 0 2 ra 245 ------- 0 1.0 2.0 -1 57
- 122.414207 0 2 ra 245 ------- 0 1.0 2.0 -1 57
r 122.415513 1 0 ra 245 ------- 0 1.0 2.0 -1 58
+ 122.415513 0 2 ra 245 ------- 0 1.0 2.0 -1 58
- 122.415513 0 2 ra 245 ------- 0 1.0 2.0 -1 58
r 122.41682 1 0 ra 245 ------- 0 1.0 2.0 -1 59
+ 122.41682 0 2 ra 245 ------- 0 1.0 2.0 -1 59
- 122.41682 0 2 ra 245 ------- 0 1.0 2.0 -1 59
r 122.419403 0 2 ra 245 ------- 0 1.0 2.0 -1 57
r 122.420709 0 2 ra 245 ------- 0 1.0 2.0 -1 58
r 122.422016 0 2 ra 245 ------- 0 1.0 2.0 -1 59
+ 124.10305 1 0 ra 245 ------- 0 1.0 2.0 -1 60
- 124.10305 1 0 ra 245 ------- 0 1.0 2.0 -1 60
r 124.114357 1 0 ra 245 ------- 0 1.0 2.0 -1 60
+ 124.114357 0 2 ra 245 ------- 0 1.0 2.0 -1 60
- 124.114357 0 2 ra 245 ------- 0 1.0 2.0 -1 60
r 124.119553 0 2 ra 245 ------- 0 1.0 2.0 -1 60
+ 125.8031 1 0 ra 245 ------- 0 1.0 2.0 -1 61
- 125.8031 1 0 ra 245 ------- 0 1.0 2.0 -1 61
r 125.814407 1 0 ra 245 ------- 0 1.0 2.0 -1 61
+ 125.814407 0 2 ra 245 ------- 0 1.0 2.0 -1 61
- 125.814407 0 2 ra 245 ------- 0 1.0 2.0 -1 61
r 125.819603 0 2 ra 245 ------- 0 1.0 2.0 -1 61
+ 136.00315 1 0 ra 245 ------- 0 1.0 2.0 -1 62
- 136.00315 1 0 ra 245 ------- 0 1.0 2.0 -1 62
+ 136.0032 1 0 ra 245 ------- 0 1.0 2.0 -1 63
+ 136.00325 1 0 ra 245 ------- 0 1.0 2.0 -1 64
+ 136.0033 1 0 ra 245 ------- 0 1.0 2.0 -1 65
+ 136.00335 1 0 ra 245 ------- 0 1.0 2.0 -1 66
- 136.004457 1 0 ra 245 ------- 0 1.0 2.0 -1 63
- 136.005763 1 0 ra 245 ------- 0 1.0 2.0 -1 64
- 136.00707 1 0 ra 245 ------- 0 1.0 2.0 -1 65
- 136.008377 1 0 ra 245 ------- 0 1.0 2.0 -1 66
r 136.014457 1 0 ra 245 ------- 0 1.0 2.0 -1 62
+ 136.014457 0 2 ra 245 ------- 0 1.0 2.0 -1 62
- 136.014457 0 2 ra 245 ------- 0 1.0 2.0 -1 62
r 136.015763 1 0 ra 245 ------- 0 1.0 2.0 -1 63
+ 136.015763 0 2 ra 245 ------- 0 1.0 2.0 -1 63
- 136.015763 0 2 ra 245 ------- 0 1.0 2.0 -1 63
r 136.01707 1 0 ra 245 ------- 0 1.0 2.0 -1 64
+ 136.01707 0 2 ra 245 ------- 0 1.0 2.0 -1 64
- 136.01707 0 2 ra 245 ------- 0 1.0 2.0 -1 64
r 136.018377 1 0 ra 245 ------- 0 1.0 2.0 -1 65
+ 136.018377 0 2 ra 245 ------- 0 1.0 2.0 -1 65
- 136.018377 0 2 ra 245 ------- 0 1.0 2.0 -1 65
r 136.019653 0 2 ra 245 ------- 0 1.0 2.0 -1 62
r 136.019683 1 0 ra 245 ------- 0 1.0 2.0 -1 66
+ 136.019683 0 2 ra 245 ------- 0 1.0 2.0 -1 66
- 136.019683 0 2 ra 245 ------- 0 1.0 2.0 -1 66
r 136.020959 0 2 ra 245 ------- 0 1.0 2.0 -1 63
r 136.022266 0 2 ra 245 ------- 0 1.0 2.0 -1 64
r 136.023573 0 2 ra 245 ------- 0 1.0 2.0 -1 65
r 136.024879 0 2 ra 245 ------- 0 1.0 2.0 -1 66
+ 137.7034 1 0 ra 245 ------- 0 1.0 2.0 -1 67
- 137.7034 1 0 ra 245 ------- 0 1.0 2.0 -1 67
r 137.714707 1 0 ra 245 ------- 0 1.0 2.0 -1 67
+ 137.714707 0 2 ra 245 ------- 0 1.0 2.0 -1 67
- 137.714707 0 2 ra 245 ------- 0 1.0 2.0 -1 67
r 137.719903 0 2 ra 245 ------- 0 1.0 2.0 -1 67
+ 139.40345 1 0 ra 245 ------- 0 1.0 2.0 -1 68
- 139.40345 1 0 ra 245 ------- 0 1.0 2.0 -1 68
r 139.414757 1 0 ra 245 ------- 0 1.0 2.0 -1 68
+ 139.414757 0 2 ra 245 ------- 0 1.0 2.0 -1 68
- 139.414757 0 2 ra 245 ------- 0 1.0 2.0 -1 68
r 139.419953 0 2 ra 245 ------- 0 1.0 2.0 -1 68
+ 141.1035 1 0 ra 245 ------- 0 1.0 2.0 -1 69
- 141.1035 1 0 ra 245 ------- 0 1.0 2.0 -1 69
r 141.114807 1 0 ra 245 ------- 0 1.0 2.0 -1 69
+ 141.114807 0 2 ra 245 ------- 0 1.0 2.0 -1 69
- 141.114807 0 2 ra 245 ------- 0 1.0 2.0 -1 69
r 141.120003 0 2 ra 245 ------- 0 1.0 2.0 -1 69
+ 142.80355 1 0 ra 245 ------- 0 1.0 2.0 -1 70
- 142.80355 1 0 ra 245 ------- 0 1.0 2.0 -1 70
r 142.814857 1 0 ra 245 ------- 0 1.0 2.0 -1 70
+ 142.814857 0 2 ra 245 ------- 0 1.0 2.0 -1 70
- 142.814857 0 2 ra 245 ------- 0 1.0 2.0 -1 70
r 142.820053 0 2 ra 245 ------- 0 1.0 2.0 -1 70
+ 146.2036 1 0 ra 245 ------- 0 1.0 2.0 -1 71
- 146.2036 1 0 ra 245 ------- 0 1.0 2.0 -1 71
r 146.214907 1 0 ra 245 ------- 0 1.0 2.0 -1 71
+ 146.214907 0 2 ra 245 ------- 0 1.0 2.0 -1 71
- 146.214907 0 2 ra 245 ------- 0 1.0 2.0 -1 71
r 146.220103 0 2 ra 245 ------- 0 1.0 2.0 -1 71
+ 151.30365 1 0 ra 245 ------- 0 1.0 2.0 -1 72
- 151.30365 1 0 ra 245 ------- 0 1.0 2.0 -1 72
+ 151.3037 1 0 ra 245 ------- 0 1.0 2.0 -1 73
- 151.304957 1 0 ra 245 ------- 0 1.0 2.0 -1 73
r 151.314957 1 0 ra 245 ------- 0 1.0 2.0 -1 72
+ 151.314957 0 2 ra 245 ------- 0 1.0 2.0 -1 72
- 151.314957 0 2 ra 245 ------- 0 1.0 2.0 -1 72
r 151.316263 1 0 ra 245 ------- 0 1.0 2.0 -1 73
+ 151.316263 0 2 ra 245 ------- 0 1.0 2.0 -1 73
- 151.316263 0 2 ra 245 ------- 0 1.0 2.0 -1 73
r 151.320153 0 2 ra 245 ------- 0 1.0 2.0 -1 72
r 151.321459 0 2 ra 245 ------- 0 1.0 2.0 -1 73
+ 154.70375 1 0 ra 245 ------- 0 1.0 2.0 -1 74
- 154.70375 1 0 ra 245 ------- 0 1.0 2.0 -1 74
r 154.715057 1 0 ra 245 ------- 0 1.0 2.0 -1 74
+ 154.715057 0 2 ra 245 ------- 0 1.0 2.0 -1 74
- 154.715057 0 2 ra 245 ------- 0 1.0 2.0 -1 74
r 154.720253 0 2 ra 245 ------- 0 1.0 2.0 -1 74
+ 156.4038 1 0 ra 245 ------- 0 1.0 2.0 -1 75
- 156.4038 1 0 ra 245 ------- 0 1.0 2.0 -1 75
r 156.415107 1 0 ra 245 ------- 0 1.0 2.0 -1 75
+ 156.415107 0 2 ra 245 ------- 0 1.0 2.0 -1 75
- 156.415107 0 2 ra 245 ------- 0 1.0 2.0 -1 75
r 156.420303 0 2 ra 245 ------- 0 1.0 2.0 -1 75
+ 158.10385 1 0 ra 245 ------- 0 1.0 2.0 -1 76
- 158.10385 1 0 ra 245 ------- 0 1.0 2.0 -1 76
r 158.115157 1 0 ra 245 ------- 0 1.0 2.0 -1 76
+ 158.115157 0 2 ra 245 ------- 0 1.0 2.0 -1 76
- 158.115157 0 2 ra 245 ------- 0 1.0 2.0 -1 76
r 158.120353 0 2 ra 245 ------- 0 1.0 2.0 -1 76
+ 159.8039 1 0 ra 245 ------- 0 1.0 2.0 -1 77
- 159.8039 1 0 ra 245 ------- 0 1.0 2.0 -1 77
r 159.815207 1 0 ra 245 ------- 0 1.0 2.0 -1 77
+ 159.815207 0 2 ra 245 ------- 0 1.0 2.0 -1 77
- 159.815207 0 2 ra 245 ------- 0 1.0 2.0 -1 77
r 159.820403 0 2 ra 245 ------- 0 1.0 2.0 -1 77
+ 161.50395 1 0 ra 245 ------- 0 1.0 2.0 -1 78
- 161.50395 1 0 ra 245 ------- 0 1.0 2.0 -1 78
r 161.515257 1 0 ra 245 ------- 0 1.0 2.0 -1 78
+ 161.515257 0 2 ra 245 ------- 0 1.0 2.0 -1 78
- 161.515257 0 2 ra 245 ------- 0 1.0 2.0 -1 78
r 161.520453 0 2 ra 245 ------- 0 1.0 2.0 -1 78
+ 163.204 1 0 ra 245 ------- 0 1.0 2.0 -1 79
- 163.204 1 0 ra 245 ------- 0 1.0 2.0 -1 79
r 163.215307 1 0 ra 245 ------- 0 1.0 2.0 -1 79
+ 163.215307 0 2 ra 245 ------- 0 1.0 2.0 -1 79
- 163.215307 0 2 ra 245 ------- 0 1.0 2.0 -1 79
r 163.220503 0 2 ra 245 ------- 0 1.0 2.0 -1 79
+ 166.60405 1 0 ra 245 ------- 0 1.0 2.0 -1 80
- 166.60405 1 0 ra 245 ------- 0 1.0 2.0 -1 80
r 166.615357 1 0 ra 245 ------- 0 1.0 2.0 -1 80
+ 166.615357 0 2 ra 245 ------- 0 1.0 2.0 -1 80
- 166.615357 0 2 ra 245 ------- 0 1.0 2.0 -1 80
r 166.620553 0 2 ra 245 ------- 0 1.0 2.0 -1 80
+ 168.3041 1 0 ra 245 ------- 0 1.0 2.0 -1 81
- 168.3041 1 0 ra 245 ------- 0 1.0 2.0 -1 81
r 168.315407 1 0 ra 245 ------- 0 1.0 2.0 -1 81
+ 168.315407 0 2 ra 245 ------- 0 1.0 2.0 -1 81
- 168.315407 0 2 ra 245 ------- 0 1.0 2.0 -1 81
r 168.320603 0 2 ra 245 ------- 0 1.0 2.0 -1 81
+ 170.00415 1 0 ra 245 ------- 0 1.0 2.0 -1 82
- 170.00415 1 0 ra 245 ------- 0 1.0 2.0 -1 82
r 170.015457 1 0 ra 245 ------- 0 1.0 2.0 -1 82
+ 170.015457 0 2 ra 245 ------- 0 1.0 2.0 -1 82
- 170.015457 0 2 ra 245 ------- 0 1.0 2.0 -1 82
r 170.020653 0 2 ra 245 ------- 0 1.0 2.0 -1 82
+ 171.7042 1 0 ra 245 ------- 0 1.0 2.0 -1 83
- 171.7042 1 0 ra 245 ------- 0 1.0 2.0 -1 83
r 171.715507 1 0 ra 245 ------- 0 1.0 2.0 -1 83
+ 171.715507 0 2 ra 245 ------- 0 1.0 2.0 -1 83
- 171.715507 0 2 ra 245 ------- 0 1.0 2.0 -1 83
r 171.720703 0 2 ra 245 ------- 0 1.0 2.0 -1 83
+ 173.40425 1 0 ra 245 ------- 0 1.0 2.0 -1 84
- 173.40425 1 0 ra 245 ------- 0 1.0 2.0 -1 84
r 173.415557 1 0 ra 245 ------- 0 1.0 2.0 -1 84
+ 173.415557 0 2 ra 245 ------- 0 1.0 2.0 -1 84
- 173.415557 0 2 ra 245 ------- 0 1.0 2.0 -1 84
r 173.420753 0 2 ra 245 ------- 0 1.0 2.0 -1 84
+ 175.1043 1 0 ra 245 ------- 0 1.0 2.0 -1 85
- 175.1043 1 0 ra 245 ------- 0 1.0 2.0 -1 85
r 175.115607 1 0 ra 245 ------- 0 1.0 2.0 -1 85
+ 175.115607 0 2 ra 245 ------- 0 1.0 2.0 -1 85
- 175.115607 0 2 ra 245 ------- 0 1.0 2.0 -1 85
r 175.120803 0 2 ra 245 ------- 0 1.0 2.0 -1 85
+ 176.80435 1 0 ra 245 ------- 0 1.0 2.0 -1 86
- 176.80435 1 0 ra 245 ------- 0 1.0 2.0 -1 86
r 176.815657 1 0 ra 245 ------- 0 1.0 2.0 -1 86
+ 176.815657 0 2 ra 245 ------- 0 1.0 2.0 -1 86
- 176.815657 0 2 ra 245 ------- 0 1.0 2.0 -1 86
r 176.820853 0 2 ra 245 ------- 0 1.0 2.0 -1 86
+ 178.5044 1 0 ra 245 ------- 0 1.0 2.0 -1 87
- 178.5044 1 0 ra 245 ------- 0 1.0 2.0 -1 87
r 178.515707 1 0 ra 245 ------- 0 1.0 2.0 -1 87
+ 178.515707 0 2 ra 245 ------- 0 1.0 2.0 -1 87
- 178.515707 0 2 ra 245 ------- 0 1.0 2.0 -1 87
r 178.520903 0 2 ra 245 ------- 0 1.0 2.0 -1 87
+ 180.20445 1 0 ra 245 ------- 0 1.0 2.0 -1 88
- 180.20445 1 0 ra 245 ------- 0 1.0 2.0 -1 88
r 180.215757 1 0 ra 245 ------- 0 1.0 2.0 -1 88
+ 180.215757 0 2 ra 245 ------- 0 1.0 2.0 -1 88
- 180.215757 0 2 ra 245 ------- 0 1.0 2.0 -1 88
r 180.220953 0 2 ra 245 ------- 0 1.0 2.0 -1 88
+ 181.9045 1 0 ra 245 ------- 0 1.0 2.0 -1 89
- 181.9045 1 0 ra 245 ------- 0 1.0 2.0 -1 89
r 181.915807 1 0 ra 245 ------- 0 1.0 2.0 -1 89
+ 181.915807 0 2 ra 245 ------- 0 1.0 2.0 -1 89
- 181.915807 0 2 ra 245 ------- 0 1.0 2.0 -1 89
r 181.921003 0 2 ra 245 ------- 0 1.0 2.0 -1 89
+ 183.60455 1 0 ra 245 ------- 0 1.0 2.0 -1 90
- 183.60455 1 0 ra 245 ------- 0 1.0 2.0 -1 90
r 183.615857 1 0 ra 245 ------- 0 1.0 2.0 -1 90
+ 183.615857 0 2 ra 245 ------- 0 1.0 2.0 -1 90
- 183.615857 0 2 ra 245 ------- 0 1.0 2.0 -1 90
r 183.621053 0 2 ra 245 ------- 0 1.0 2.0 -1 90
+ 188.7046 1 0 ra 245 ------- 0 1.0 2.0 -1 91
- 188.7046 1 0 ra 245 ------- 0 1.0 2.0 -1 91
+ 188.70465 1 0 ra 245 ------- 0 1.0 2.0 -1 92
- 188.705907 1 0 ra 245 ------- 0 1.0 2.0 -1 92
r 188.715907 1 0 ra 245 ------- 0 1.0 2.0 -1 91
+ 188.715907 0 2 ra 245 ------- 0 1.0 2.0 -1 91
- 188.715907 0 2 ra 245 ------- 0 1.0 2.0 -1 91
r 188.717213 1 0 ra 245 ------- 0 1.0 2.0 -1 92
+ 188.717213 0 2 ra 245 ------- 0 1.0 2.0 -1 92
- 188.717213 0 2 ra 245 ------- 0 1.0 2.0 -1 92
r 188.721103 0 2 ra 245 ------- 0 1.0 2.0 -1 91
r 188.722409 0 2 ra 245 ------- 0 1.0 2.0 -1 92
+ 190.4047 1 0 ra 245 ------- 0 1.0 2.0 -1 93
- 190.4047 1 0 ra 245 ------- 0 1.0 2.0 -1 93
r 190.416007 1 0 ra 245 ------- 0 1.0 2.0 -1 93
+ 190.416007 0 2 ra 245 ------- 0 1.0 2.0 -1 93
- 190.416007 0 2 ra 245 ------- 0 1.0 2.0 -1 93
r 190.421203 0 2 ra 245 ------- 0 1.0 2.0 -1 93
+ 192.10475 1 0 ra 245 ------- 0 1.0 2.0 -1 94
- 192.10475 1 0 ra 245 ------- 0 1.0 2.0 -1 94
r 192.116057 1 0 ra 245 ------- 0 1.0 2.0 -1 94
+ 192.116057 0 2 ra 245 ------- 0 1.0 2.0 -1 94
- 192.116057 0 2 ra 245 ------- 0 1.0 2.0 -1 94
r 192.121253 0 2 ra 245 ------- 0 1.0 2.0 -1 94
+ 193.8048 1 0 ra 245 ------- 0 1.0 2.0 -1 95
- 193.8048 1 0 ra 245 ------- 0 1.0 2.0 -1 95
r 193.816107 1 0 ra 245 ------- 0 1.0 2.0 -1 95
+ 193.816107 0 2 ra 245 ------- 0 1.0 2.0 -1 95
- 193.816107 0 2 ra 245 ------- 0 1.0 2.0 -1 95
r 193.821303 0 2 ra 245 ------- 0 1.0 2.0 -1 95
+ 195.50485 1 0 ra 245 ------- 0 1.0 2.0 -1 96
- 195.50485 1 0 ra 245 ------- 0 1.0 2.0 -1 96
r 195.516157 1 0 ra 245 ------- 0 1.0 2.0 -1 96
+ 195.516157 0 2 ra 245 ------- 0 1.0 2.0 -1 96
- 195.516157 0 2 ra 245 ------- 0 1.0 2.0 -1 96
r 195.521353 0 2 ra 245 ------- 0 1.0 2.0 -1 96
+ 198.9049 1 0 ra 245 ------- 0 1.0 2.0 -1 97
- 198.9049 1 0 ra 245 ------- 0 1.0 2.0 -1 97
r 198.916207 1 0 ra 245 ------- 0 1.0 2.0 -1 97
+ 198.916207 0 2 ra 245 ------- 0 1.0 2.0 -1 97
- 198.916207 0 2 ra 245 ------- 0 1.0 2.0 -1 97
r 198.921403 0 2 ra 245 ------- 0 1.0 2.0 -1 97
+ 202.30495 1 0 ra 245 ------- 0 1.0 2.0 -1 98
- 202.30495 1 0 ra 245 ------- 0 1.0 2.0 -1 98
r 202.316257 1 0 ra 245 ------- 0 1.0 2.0 -1 98
+ 202.316257 0 2 ra 245 ------- 0 1.0 2.0 -1 98
- 202.316257 0 2 ra 245 ------- 0 1.0 2.0 -1 98
r 202.321453 0 2 ra 245 ------- 0 1.0 2.0 -1 98
+ 205.705 1 0 ra 245 ------- 0 1.0 2.0 -1 99
- 205.705 1 0 ra 245 ------- 0 1.0 2.0 -1 99
r 205.716307 1 0 ra 245 ------- 0 1.0 2.0 -1 99
+ 205.716307 0 2 ra 245 ------- 0 1.0 2.0 -1 99
- 205.716307 0 2 ra 245 ------- 0 1.0 2.0 -1 99
r 205.721503 0 2 ra 245 ------- 0 1.0 2.0 -1 99
+ 207.40505 1 0 ra 245 ------- 0 1.0 2.0 -1 100
- 207.40505 1 0 ra 245 ------- 0 1.0 2.0 -1 100
r 207.416357 1 0 ra 245 ------- 0 1.0 2.0 -1 100
+ 207.416357 0 2 ra 245 ------- 0 1.0 2.0 -1 100
- 207.416357 0 2 ra 245 ------- 0 1.0 2.0 -1 100
r 207.421553 0 2 ra 245 ------- 0 1.0 2.0 -1 100
+ 209.1051 1 0 ra 245 ------- 0 1.0 2.0 -1 101
- 209.1051 1 0 ra 245 ------- 0 1.0 2.0 -1 101
r 209.116407 1 0 ra 245 ------- 0 1.0 2.0 -1 101
+ 209.116407 0 2 ra 245 ------- 0 1.0 2.0 -1 101
- 209.116407 0 2 ra 245 ------- 0 1.0 2.0 -1 101
r 209.121603 0 2 ra 245 ------- 0 1.0 2.0 -1 101
+ 210.80515 1 0 ra 245 ------- 0 1.0 2.0 -1 102
- 210.80515 1 0 ra 245 ------- 0 1.0 2.0 -1 102
r 210.816457 1 0 ra 245 ------- 0 1.0 2.0 -1 102
+ 210.816457 0 2 ra 245 ------- 0 1.0 2.0 -1 102
- 210.816457 0 2 ra 245 ------- 0 1.0 2.0 -1 102
r 210.821653 0 2 ra 245 ------- 0 1.0 2.0 -1 102
+ 212.5052 1 0 ra 245 ------- 0 1.0 2.0 -1 103
- 212.5052 1 0 ra 245 ------- 0 1.0 2.0 -1 103
r 212.516507 1 0 ra 245 ------- 0 1.0 2.0 -1 103
+ 212.516507 0 2 ra 245 ------- 0 1.0 2.0 -1 103
- 212.516507 0 2 ra 245 ------- 0 1.0 2.0 -1 103
r 212.521703 0 2 ra 245 ------- 0 1.0 2.0 -1 103
+ 214.20525 1 0 ra 245 ------- 0 1.0 2.0 -1 104
- 214.20525 1 0 ra 245 ------- 0 1.0 2.0 -1 104
r 214.216557 1 0 ra 245 ------- 0 1.0 2.0 -1 104
+ 214.216557 0 2 ra 245 ------- 0 1.0 2.0 -1 104
- 214.216557 0 2 ra 245 ------- 0 1.0 2.0 -1 104
r 214.221753 0 2 ra 245 ------- 0 1.0 2.0 -1 104
+ 215.9053 1 0 ra 245 ------- 0 1.0 2.0 -1 105
- 215.9053 1 0 ra 245 ------- 0 1.0 2.0 -1 105
r 215.916607 1 0 ra 245 ------- 0 1.0 2.0 -1 105
+ 215.916607 0 2 ra 245 ------- 0 1.0 2.0 -1 105
- 215.916607 0 2 ra 245 ------- 0 1.0 2.0 -1 105
r 215.921803 0 2 ra 245 ------- 0 1.0 2.0 -1 105
+ 217.60535 1 0 ra 245 ------- 0 1.0 2.0 -1 106
- 217.60535 1 0 ra 245 ------- 0 1.0 2.0 -1 106