s 1.000000000 _0_ AGT  --- 0 cbr 512 [0.00 0 0] [energy 1000.000000 ei 0.000 es 0.000 et 0.000 er 0.000] ------- [0:0 1:0 32 0] [0] 0 0
r 1.000000000 _0_ RTR  --- 0 cbr 512 [0.00 0 0] [energy 1000.000000 ei 0.000 es 0.000 et 0.000 er 0.000] ------- [0:0 1:0 32 0] [0] 0 0
s 1.000000000 _0_ RTR  --- 0 cbr 512 [0.00 0 0] [energy 1000.000000 ei 0.000 es 0.000 et 0.000 er 0.000] ------- [0:0 1:0 32 0] [0] 0 0
s 6.003395772 _0_ AGT  --- 1 cbr 512 [0.00 0 0] [energy 1000.000000 ei 0.000 es 0.000 et 0.000 er 0.000] ------- [0:0 1:0 32 0] [1] 0 0
r 6.003395772 _0_ RTR  --- 1 cbr 512 [0.00 0 0] [energy 1000.000000 ei 0.000 es 0.000 et 0.000 er 0.000] ------- [0:0 1:0 32 0] [1] 0 0
s 6.003395772 _0_ RTR  --- 1 cbr 512 [0.00 0 0] [energy 1000.000000 ei 0.000 es 0.000 et 0.000 er 0.000] ------- [0:0 1:0 32 0] [1] 0 0
D 6.003395772 _0_ IFQ  ARP 0 cbr 512 [0.00 0 0] [energy 1000.000000 ei 0.000 es 0.000 et 0.000 er 0.000] ------- [0:0 1:0 32 0] [0] 0 0
s 16.562202932 _0_ AGT  --- 2 cbr 512 [0.00 0 0] [energy 1000.000000 ei 0.000 es 0.000 et 0.000 er 0.000] ------- [0:0 1:0 32 0] [2] 0 0
r 16.562202932 _0_ RTR  --- 2 cbr 512 [0.00 0 0] [energy 1000.000000 ei 0.000 es 0.000 et 0.000 er 0.000] ------- [0:0 1:0 32 0] [2] 0 0
s 16.562202932 _0_ RTR  --- 2 cbr 512 [0.00 0 0] [energy 1000.000000 ei 0.000 es 0.000 et 0.000 er 0.000] ------- [0:0 1:0 32 0] [2] 0 0
D 16.562202932 _0_ IFQ  ARP 1 cbr 512 [0.00 0 0] [energy 1000.000000 ei 0.000 es 0.000 et 0.000 er 0.000] ------- [0:0 1:0 32 0] [1] 0 0
s 17.221000000 _0_ MAC  --- 0 SYNC 9 [0.12 0 0] [energy 1000.000000 ei 0.000 es 0.000 et 0.000 er 0.000] 
N -t 17.221000 -n 1 -e 982.776000
s 18.639000000 _1_ MAC  --- 0 SYNC 9 [0.13 1 0] [energy 982.776000 ei 17.221 es 0.000 et 0.000 er 0.003] 
N -t 18.639000 -n 0 -e 981.355000
s 20.080000000 _0_ MAC  --- 0 SYNC 9 [0.12 0 1] [energy 981.355000 ei 18.636 es 0.000 et 0.006 er 0.003] 
N -t 20.080000 -n 1 -e 979.914000
s 21.704249539 _0_ AGT  --- 3 cbr 512 [0.00 0 0] [energy 979.911000 ei 20.074 es 0.000 et 0.012 er 0.003] ------- [0:0 1:0 32 0] [3] 0 0
r 21.704249539 _0_ RTR  --- 3 cbr 512 [0.00 0 0] [energy 979.911000 ei 20.074 es 0.000 et 0.012 er 0.003] ------- [0:0 1:0 32 0] [3] 0 0
s 21.704249539 _0_ RTR  --- 3 cbr 512 [0.00 0 0] [energy 979.911000 ei 20.074 es 0.000 et 0.012 er 0.003] ------- [0:0 1:0 32 0] [3] 0 0
D 21.704249539 _0_ IFQ  ARP 2 cbr 512 [0.00 0 0] [energy 979.911000 ei 20.074 es 0.000 et 0.012 er 0.003] ------- [0:0 1:0 32 0] [2] 0 0
D 21.704249539 _0_ IFQ  ARP 3 cbr 512 [0.00 0 0] [energy 979.911000 ei 20.074 es 0.000 et 0.012 er 0.003] ------- [0:0 1:0 32 0] [3] 0 0
s 32.981000000 _1_ MAC  --- 0 SYNC 9 [0.12 1 0] [energy 979.914000 ei 20.074 es 0.000 et 0.006 er 0.006] 
N -t 32.981000 -n 0 -e 967.010000
N -t 33.102200 -n 1 -e 966.890800
N -t 34.392000 -n 1 -e 966.888510
s 34.420000000 _0_ MAC  --- 0 SYNC 9 [0.11 0 1] [energy 967.010000 ei 32.972 es 0.000 et 0.012 er 0.006] 
N -t 34.420000 -n 1 -e 966.857510
N -t 34.535200 -n 0 -e 965.454800
N -t 34.535200 -n 1 -e 966.744310
s 34.869010053 _0_ AGT  --- 4 cbr 512 [0.00 0 0] [energy 965.454800 ei 34.520 es 0.000 et 0.018 er 0.006] ------- [0:0 1:0 32 0] [4] 0 0
r 34.869010053 _0_ RTR  --- 4 cbr 512 [0.00 0 0] [energy 965.454800 ei 34.520 es 0.000 et 0.018 er 0.006] ------- [0:0 1:0 32 0] [4] 0 0
s 34.869010053 _0_ RTR  --- 4 cbr 512 [0.00 0 0] [energy 965.454800 ei 34.520 es 0.000 et 0.018 er 0.006] ------- [0:0 1:0 32 0] [4] 0 0
N -t 35.825000 -n 0 -e 965.452510
N -t 35.825000 -n 1 -e 966.742020
N -t 35.968200 -n 0 -e 965.308310
N -t 35.968200 -n 1 -e 966.597820
N -t 37.258000 -n 0 -e 965.306020
N -t 37.258000 -n 1 -e 966.595531
N -t 37.401200 -n 0 -e 965.161820
N -t 37.401200 -n 1 -e 966.451331
N -t 38.691000 -n 0 -e 965.159531
N -t 38.691000 -n 1 -e 966.449041
N -t 38.834200 -n 0 -e 965.015331
N -t 38.834200 -n 1 -e 966.304841
N -t 40.124000 -n 0 -e 965.013041
N -t 40.124000 -n 1 -e 966.302551
N -t 40.267200 -n 0 -e 964.868841
N -t 40.267200 -n 1 -e 966.158351
N -t 41.000000 -n 0 -e 964.868108
N -t 41.000000 -n 1 -e 966.157618
N -t 41.557000 -n 0 -e 964.866551
N -t 41.557000 -n 1 -e 966.156061
N -t 41.700200 -n 0 -e 964.722351
N -t 41.700200 -n 1 -e 966.011861
s 42.959800631 _0_ AGT  --- 5 cbr 512 [0.00 0 0] [energy 964.722351 ei 35.236 es 0.006 et 0.018 er 0.006] ------- [0:0 1:0 32 0] [5] 0 0
r 42.959800631 _0_ RTR  --- 5 cbr 512 [0.00 0 0] [energy 964.722351 ei 35.236 es 0.006 et 0.018 er 0.006] ------- [0:0 1:0 32 0] [5] 0 0
s 42.959800631 _0_ RTR  --- 5 cbr 512 [0.00 0 0] [energy 964.722351 ei 35.236 es 0.006 et 0.018 er 0.006] ------- [0:0 1:0 32 0] [5] 0 0
D 42.959800631 _0_ IFQ  ARP 4 cbr 512 [0.00 0 0] [energy 964.722351 ei 35.236 es 0.006 et 0.018 er 0.006] ------- [0:0 1:0 32 0] [4] 0 0
N -t 42.990000 -n 0 -e 964.720061
N -t 42.990000 -n 1 -e 966.009571
N -t 43.133200 -n 0 -e 964.575861
N -t 43.133200 -n 1 -e 965.865371
N -t 44.423000 -n 0 -e 964.573571
N -t 44.423000 -n 1 -e 965.863082
N -t 44.566200 -n 0 -e 964.429371
N -t 44.566200 -n 1 -e 965.718882
N -t 45.856000 -n 0 -e 964.427082
N -t 45.856000 -n 1 -e 965.716592
N -t 45.999200 -n 0 -e 964.282882
N -t 45.999200 -n 1 -e 965.572392
N -t 47.289000 -n 0 -e 964.280592
N -t 47.289000 -n 1 -e 965.570102
s 47.301000000 _1_ MAC  --- 0 SYNC 9 [0.13 1 0] [energy 965.570102 ei 34.376 es 0.013 et 0.012 er 0.009] 
N -t 47.301000 -n 0 -e 964.265592
N -t 47.432200 -n 1 -e 965.422902
N -t 47.432200 -n 0 -e 964.136392
N -t 48.722000 -n 1 -e 965.420612
N -t 48.722000 -n 0 -e 964.134102
s 48.759000000 _0_ MAC  --- 0 SYNC 9 [0.10 0 1] [energy 964.134102 ei 35.806 es 0.013 et 0.018 er 0.009] 
N -t 48.759000 -n 1 -e 965.380612
N -t 48.865200 -n 0 -e 963.986902
N -t 48.865200 -n 1 -e 965.276412
N -t 50.155000 -n 0 -e 963.984612
N -t 50.155000 -n 1 -e 965.274122
N -t 50.298200 -n 0 -e 963.840412
N -t 50.298200 -n 1 -e 965.129922
N -t 51.000000 -n 0 -e 963.839710
N -t 51.000000 -n 1 -e 965.129221
N -t 51.588000 -n 0 -e 963.838122
N -t 51.588000 -n 1 -e 965.127633
N -t 51.731200 -n 0 -e 963.693922
N -t 51.731200 -n 1 -e 964.983433
N -t 53.021000 -n 0 -e 963.691633
N -t 53.021000 -n 1 -e 964.981143
N -t 53.164200 -n 0 -e 963.547433
N -t 53.164200 -n 1 -e 964.836943
N -t 54.454000 -n 0 -e 963.545143
N -t 54.454000 -n 1 -e 964.834653
N -t 54.597200 -n 0 -e 963.400943
N -t 54.597200 -n 1 -e 964.690453
N -t 55.887000 -n 0 -e 963.398653
N -t 55.887000 -n 1 -e 964.688163
N -t 56.030200 -n 0 -e 963.254453
N -t 56.030200 -n 1 -e 964.543963
s 56.323036000 _0_ AGT  --- 6 cbr 512 [0.00 0 0] [energy 963.254453 ei 36.662 es 0.019 et 0.024 er 0.009] ------- [0:0 1:0 32 0] [6] 0 0
r 56.323036000 _0_ RTR  --- 6 cbr 512 [0.00 0 0] [energy 963.254453 ei 36.662 es 0.019 et 0.024 er 0.009] ------- [0:0 1:0 32 0] [6] 0 0
s 56.323036000 _0_ RTR  --- 6 cbr 512 [0.00 0 0] [energy 963.254453 ei 36.662 es 0.019 et 0.024 er 0.009] ------- [0:0 1:0 32 0] [6] 0 0
D 56.323036000 _0_ IFQ  ARP 5 cbr 512 [0.00 0 0] [energy 963.254453 ei 36.662 es 0.019 et 0.024 er 0.009] ------- [0:0 1:0 32 0] [5] 0 0
N -t 57.320000 -n 0 -e 963.252163
N -t 57.320000 -n 1 -e 964.541673
N -t 57.463200 -n 0 -e 963.107963
N -t 57.463200 -n 1 -e 964.397473
N -t 58.753000 -n 0 -e 963.105673
N -t 58.753000 -n 1 -e 964.395184
N -t 58.896200 -n 0 -e 962.961473
N -t 58.896200 -n 1 -e 964.250984
N -t 60.186000 -n 0 -e 962.959184
N -t 60.186000 -n 1 -e 964.248694
N -t 60.329200 -n 0 -e 962.814984
N -t 60.329200 -n 1 -e 964.104494
N -t 61.000000 -n 0 -e 962.814313
N -t 61.000000 -n 1 -e 964.103823
N -t 61.619000 -n 0 -e 962.812694
N -t 61.619000 -n 1 -e 964.102204
s 61.647000000 _1_ MAC  --- 0 SYNC 9 [0.11 1 0] [energy 964.102204 ei 35.802 es 0.026 et 0.018 er 0.012] 
N -t 61.647000 -n 0 -e 962.781694
N -t 61.762200 -n 1 -e 963.955004
N -t 61.762200 -n 0 -e 962.668494
N -t 63.052000 -n 1 -e 963.952714
N -t 63.052000 -n 0 -e 962.666204
s 63.074000000 _0_ MAC  --- 0 SYNC 9 [0.12 0 1] [energy 962.666204 ei 37.232 es 0.026 et 0.024 er 0.012] 
N -t 63.074000 -n 1 -e 963.927714
N -t 63.195200 -n 0 -e 962.519004
N -t 63.195200 -n 1 -e 963.808514
N -t 64.485000 -n 0 -e 962.516714
N -t 64.485000 -n 1 -e 963.806224
N -t 64.628200 -n 0 -e 962.372514
N -t 64.628200 -n 1 -e 963.662024
N -t 65.918000 -n 0 -e 962.370224
N -t 65.918000 -n 1 -e 963.659735
N -t 66.061200 -n 0 -e 962.226024
N -t 66.061200 -n 1 -e 963.515535
N -t 67.351000 -n 0 -e 962.223735
N -t 67.351000 -n 1 -e 963.513245
N -t 67.494200 -n 0 -e 962.079535
N -t 67.494200 -n 1 -e 963.369045
s 67.723712592 _0_ AGT  --- 7 cbr 512 [0.00 0 0] [energy 962.079535 ei 37.802 es 0.030 et 0.030 er 0.012] ------- [0:0 1:0 32 0] [7] 0 0
r 67.723712592 _0_ RTR  --- 7 cbr 512 [0.00 0 0] [energy 962.079535 ei 37.802 es 0.030 et 0.030 er 0.012] ------- [0:0 1:0 32 0] [7] 0 0
s 67.723712592 _0_ RTR  --- 7 cbr 512 [0.00 0 0] [energy 962.079535 ei 37.802 es 0.030 et 0.030 er 0.012] ------- [0:0 1:0 32 0] [7] 0 0
D 67.723712592 _0_ IFQ  ARP 6 cbr 512 [0.00 0 0] [energy 962.079535 ei 37.802 es 0.030 et 0.030 er 0.012] ------- [0:0 1:0 32 0] [6] 0 0
D 67.723712592 _0_ IFQ  ARP 7 cbr 512 [0.00 0 0] [energy 962.079535 ei 37.802 es 0.030 et 0.030 er 0.012] ------- [0:0 1:0 32 0] [7] 0 0
N -t 68.784000 -n 0 -e 962.077245
N -t 68.784000 -n 1 -e 963.366755
N -t 68.927200 -n 0 -e 961.933045
N -t 68.927200 -n 1 -e 963.222555
N -t 70.217000 -n 0 -e 961.930755
N -t 70.217000 -n 1 -e 963.220265
N -t 70.360200 -n 0 -e 961.786555
N -t 70.360200 -n 1 -e 963.076065
N -t 71.000000 -n 0 -e 961.785915
N -t 71.000000 -n 1 -e 963.075425
N -t 71.650000 -n 0 -e 961.784265
N -t 71.650000 -n 1 -e 963.073775
N -t 71.793200 -n 0 -e 961.640065
N -t 71.793200 -n 1 -e 962.929575
N -t 73.083000 -n 0 -e 961.637775
N -t 73.083000 -n 1 -e 962.927286
N -t 73.226200 -n 0 -e 961.493575
N -t 73.226200 -n 1 -e 962.783086
N -t 74.516000 -n 0 -e 961.491286
N -t 74.516000 -n 1 -e 962.780796
N -t 74.659200 -n 0 -e 961.347086
N -t 74.659200 -n 1 -e 962.636596
N -t 75.949000 -n 0 -e 961.344796
N -t 75.949000 -n 1 -e 962.634306
s 75.983000000 _1_ MAC  --- 0 SYNC 9 [0.11 1 0] [energy 962.634306 ei 37.228 es 0.039 et 0.024 er 0.015] 
N -t 75.983000 -n 0 -e 961.307796
N -t 76.092200 -n 1 -e 962.487106
N -t 76.092200 -n 0 -e 961.200596
s 76.960279955 _0_ AGT  --- 8 cbr 512 [0.00 0 0] [energy 961.200596 ei 38.658 es 0.037 et 0.030 er 0.015] ------- [0:0 1:0 32 0] [8] 0 0
r 76.960279955 _0_ RTR  --- 8 cbr 512 [0.00 0 0] [energy 961.200596 ei 38.658 es 0.037 et 0.030 er 0.015] ------- [0:0 1:0 32 0] [8] 0 0
s 76.960279955 _0_ RTR  --- 8 cbr 512 [0.00 0 0] [energy 961.200596 ei 38.658 es 0.037 et 0.030 er 0.015] ------- [0:0 1:0 32 0] [8] 0 0
N -t 77.382000 -n 1 -e 962.484816
N -t 77.382000 -n 0 -e 961.198306
s 77.408000000 _0_ MAC  --- 0 SYNC 9 [0.11 0 1] [energy 961.198306 ei 38.658 es 0.039 et 0.030 er 0.015] 
N -t 77.408000 -n 1 -e 962.455816
N -t 77.525200 -n 0 -e 961.051106
N -t 77.525200 -n 1 -e 962.340616
N -t 78.815000 -n 0 -e 961.048816
N -t 78.815000 -n 1 -e 962.338326
N -t 78.958200 -n 0 -e 960.904616
N -t 78.958200 -n 1 -e 962.194126
N -t 80.248000 -n 0 -e 960.902326
N -t 80.248000 -n 1 -e 962.191837
N -t 80.391200 -n 0 -e 960.758126
N -t 80.391200 -n 1 -e 962.047637
N -t 81.000000 -n 0 -e 960.757518
N -t 81.000000 -n 1 -e 962.047028
N -t 81.681000 -n 0 -e 960.755837
N -t 81.681000 -n 1 -e 962.045347
N -t 81.824200 -n 0 -e 960.611637
N -t 81.824200 -n 1 -e 961.901147
s 82.901668500 _0_ AGT  --- 9 cbr 512 [0.00 0 0] [energy 960.611637 ei 39.228 es 0.043 et 0.036 er 0.015] ------- [0:0 1:0 32 0] [9] 0 0
r 82.901668500 _0_ RTR  --- 9 cbr 512 [0.00 0 0] [energy 960.611637 ei 39.228 es 0.043 et 0.036 er 0.015] ------- [0:0 1:0 32 0] [9] 0 0
s 82.901668500 _0_ RTR  --- 9 cbr 512 [0.00 0 0] [energy 960.611637 ei 39.228 es 0.043 et 0.036 er 0.015] ------- [0:0 1:0 32 0] [9] 0 0
D 82.901668500 _0_ IFQ  ARP 8 cbr 512 [0.00 0 0] [energy 960.611637 ei 39.228 es 0.043 et 0.036 er 0.015] ------- [0:0 1:0 32 0] [8] 0 0
N -t 83.114000 -n 0 -e 960.609347
N -t 83.114000 -n 1 -e 961.898857
N -t 83.257200 -n 0 -e 960.465147
N -t 83.257200 -n 1 -e 961.754657
N -t 84.547000 -n 0 -e 960.462857
N -t 84.547000 -n 1 -e 961.752367
N -t 84.690200 -n 0 -e 960.318657
N -t 84.690200 -n 1 -e 961.608167
N -t 85.980000 -n 0 -e 960.316367
N -t 85.980000 -n 1 -e 961.605877
N -t 86.123200 -n 0 -e 960.172167
N -t 86.123200 -n 1 -e 961.461677
N -t 87.413000 -n 0 -e 960.169877
N -t 87.413000 -n 1 -e 961.459388
N -t 87.556200 -n 0 -e 960.025677
N -t 87.556200 -n 1 -e 961.315188
N -t 88.846000 -n 0 -e 960.023388
N -t 88.846000 -n 1 -e 961.312898
N -t 88.989200 -n 0 -e 959.879188
N -t 88.989200 -n 1 -e 961.168698
N -t 90.279000 -n 0 -e 959.876898
N -t 90.279000 -n 1 -e 961.166408
s 90.300000000 _1_ MAC  --- 0 SYNC 9 [0.12 1 0] [energy 961.166408 ei 38.654 es 0.052 et 0.030 er 0.018] 
N -t 90.300000 -n 0 -e 959.852898
N -t 90.422200 -n 1 -e 961.019208
N -t 90.422200 -n 0 -e 959.732698
N -t 91.000000 -n 0 -e 959.732120
N -t 91.000000 -n 1 -e 961.018630
s 91.389078756 _0_ AGT  --- 10 cbr 512 [0.00 0 0] [energy 959.732120 ei 40.084 es 0.051 et 0.036 er 0.018] ------- [0:0 1:0 32 0] [10] 0 0
r 91.389078756 _0_ RTR  --- 10 cbr 512 [0.00 0 0] [energy 959.732120 ei 40.084 es 0.051 et 0.036 er 0.018] ------- [0:0 1:0 32 0] [10] 0 0
s 91.389078756 _0_ RTR  --- 10 cbr 512 [0.00 0 0] [energy 959.732120 ei 40.084 es 0.051 et 0.036 er 0.018] ------- [0:0 1:0 32 0] [10] 0 0
D 91.389078756 _0_ IFQ  ARP 9 cbr 512 [0.00 0 0] [energy 959.732120 ei 40.084 es 0.051 et 0.036 er 0.018] ------- [0:0 1:0 32 0] [9] 0 0
N -t 91.712000 -n 1 -e 961.016918
N -t 91.712000 -n 0 -e 959.730408
s 91.734000000 _0_ MAC  --- 0 SYNC 9 [0.12 0 1] [energy 959.730408 ei 40.084 es 0.052 et 0.036 er 0.018] 
N -t 91.734000 -n 1 -e 960.991918
N -t 91.855200 -n 0 -e 959.583208
N -t 91.855200 -n 1 -e 960.872718
N -t 93.145000 -n 0 -e 959.580918
N -t 93.145000 -n 1 -e 960.870428
N -t 93.288200 -n 0 -e 959.436718
N -t 93.288200 -n 1 -e 960.726228
N -t 94.578000 -n 0 -e 959.434428
N -t 94.578000 -n 1 -e 960.723939
N -t 94.721200 -n 0 -e 959.290228
N -t 94.721200 -n 1 -e 960.579739
N -t 96.011000 -n 0 -e 959.287939
N -t 96.011000 -n 1 -e 960.577449
N -t 96.154200 -n 0 -e 959.143739
N -t 96.154200 -n 1 -e 960.433249
N -t 97.444000 -n 0 -e 959.141449
N -t 97.444000 -n 1 -e 960.430959
N -t 97.587200 -n 0 -e 958.997249
N -t 97.587200 -n 1 -e 960.286759
N -t 98.877000 -n 0 -e 958.994959
N -t 98.877000 -n 1 -e 960.284469
N -t 99.020200 -n 0 -e 958.850759
N -t 99.020200 -n 1 -e 960.140269
N -t 100.310000 -n 0 -e 958.848469
N -t 100.310000 -n 1 -e 960.137979
N -t 100.453200 -n 0 -e 958.704269
N -t 100.453200 -n 1 -e 959.993779
s 100.475935516 _0_ AGT  --- 11 cbr 512 [0.00 0 0] [energy 958.704269 ei 41.083 es 0.059 et 0.042 er 0.018] ------- [0:0 1:0 32 0] [11] 0 0
r 100.475935516 _0_ RTR  --- 11 cbr 512 [0.00 0 0] [energy 958.704269 ei 41.083 es 0.059 et 0.042 er 0.018] ------- [0:0 1:0 32 0] [11] 0 0
s 100.475935516 _0_ RTR  --- 11 cbr 512 [0.00 0 0] [energy 958.704269 ei 41.083 es 0.059 et 0.042 er 0.018] ------- [0:0 1:0 32 0] [11] 0 0
D 100.475935516 _0_ IFQ  ARP 10 cbr 512 [0.00 0 0] [energy 958.704269 ei 41.083 es 0.059 et 0.042 er 0.018] ------- [0:0 1:0 32 0] [10] 0 0
D 100.475935516 _0_ IFQ  ARP 11 cbr 512 [0.00 0 0] [energy 958.704269 ei 41.083 es 0.059 et 0.042 er 0.018] ------- [0:0 1:0 32 0] [11] 0 0
N -t 101.000000 -n 0 -e 958.703722
N -t 101.000000 -n 1 -e 959.993233
N -t 101.743000 -n 0 -e 958.701979
N -t 101.743000 -n 1 -e 959.991490
N -t 101.886200 -n 0 -e 958.557779
N -t 101.886200 -n 1 -e 959.847290
N -t 103.176000 -n 0 -e 958.555490
N -t 103.176000 -n 1 -e 959.845000
N -t 103.319200 -n 0 -e 958.411290
N -t 103.319200 -n 1 -e 959.700800
N -t 104.609000 -n 0 -e 958.409000
N -t 104.609000 -n 1 -e 959.698510
s 104.628000000 _1_ MAC  --- 0 SYNC 9 [0.12 1 0] [energy 959.698510 ei 40.080 es 0.064 et 0.036 er 0.021] 
N -t 104.628000 -n 0 -e 958.387000
N -t 104.752200 -n 1 -e 959.551310
N -t 104.752200 -n 0 -e 958.264800
N -t 106.042000 -n 1 -e 959.549020
N -t 106.042000 -n 0 -e 958.262510
s 106.081000000 _0_ MAC  --- 0 SYNC 9 [0.10 0 1] [energy 958.262510 ei 41.510 es 0.064 et 0.042 er 0.021] 
N -t 106.081000 -n 1 -e 959.507020
N -t 106.185200 -n 0 -e 958.115310
N -t 106.185200 -n 1 -e 959.404820
N -t 107.475000 -n 0 -e 958.113020
N -t 107.475000 -n 1 -e 959.402530
N -t 107.618200 -n 0 -e 957.968820
N -t 107.618200 -n 1 -e 959.258330
N -t 108.908000 -n 0 -e 957.966530
N -t 108.908000 -n 1 -e 959.256041
N -t 109.051200 -n 0 -e 957.822330
N -t 109.051200 -n 1 -e 959.111841
s 110.137094880 _0_ AGT  --- 12 cbr 512 [0.00 0 0] [energy 957.822330 ei 41.937 es 0.067 et 0.048 er 0.021] ------- [0:0 1:0 32 0] [12] 0 0
r 110.137094880 _0_ RTR  --- 12 cbr 512 [0.00 0 0] [energy 957.822330 ei 41.937 es 0.067 et 0.048 er 0.021] ------- [0:0 1:0 32 0] [12] 0 0
s 110.137094880 _0_ RTR  --- 12 cbr 512 [0.00 0 0] [energy 957.822330 ei 41.937 es 0.067 et 0.048 er 0.021] ------- [0:0 1:0 32 0] [12] 0 0
N -t 110.341000 -n 0 -e 957.820041
N -t 110.341000 -n 1 -e 959.109551
N -t 110.484200 -n 0 -e 957.675841
N -t 110.484200 -n 1 -e 958.965351
N -t 111.000000 -n 0 -e 957.675325
N -t 111.000000 -n 1 -e 958.964835
N -t 111.774000 -n 0 -e 957.673551
N -t 111.774000 -n 1 -e 958.963061
N -t 111.917200 -n 0 -e 957.529351
N -t 111.917200 -n 1 -e 958.818861
N -t 113.207000 -n 0 -e 957.527061
N -t 113.207000 -n 1 -e 958.816571
N -t 113.350200 -n 0 -e 957.382861
N -t 113.350200 -n 1 -e 958.672371
N -t 114.640000 -n 0 -e 957.380571
N -t 114.640000 -n 1 -e 958.670081
N -t 114.783200 -n 0 -e 957.236371
N -t 114.783200 -n 1 -e 958.525881
N -t 116.073000 -n 0 -e 957.234081
N -t 116.073000 -n 1 -e 958.523592
N -t 116.216200 -n 0 -e 957.089881
N -t 116.216200 -n 1 -e 958.379392
N -t 117.506000 -n 0 -e 957.087592
N -t 117.506000 -n 1 -e 958.377102
N -t 117.649200 -n 0 -e 956.943392
N -t 117.649200 -n 1 -e 958.232902
N -t 118.939000 -n 0 -e 956.941102
N -t 118.939000 -n 1 -e 958.230612
s 118.976000000 _1_ MAC  --- 0 SYNC 9 [0.10 1 0] [energy 958.230612 ei 41.506 es 0.077 et 0.042 er 0.024] 
N -t 118.976000 -n 0 -e 956.901102
N -t 119.082200 -n 1 -e 958.083412
N -t 119.082200 -n 0 -e 956.796902
N -t 120.372000 -n 1 -e 958.081122
N -t 120.372000 -n 0 -e 956.794612
s 120.400000000 _0_ MAC  --- 0 SYNC 9 [0.11 0 1] [energy 956.794612 ei 42.936 es 0.077 et 0.048 er 0.024] 
N -t 120.400000 -n 1 -e 958.050122
N -t 120.515200 -n 0 -e 956.647412
N -t 120.515200 -n 1 -e 957.936922
N -t 121.000000 -n 0 -e 956.646927
N -t 121.000000 -n 1 -e 957.936437
N -t 121.805000 -n 0 -e 956.645122
N -t 121.805000 -n 1 -e 957.934632
N -t 121.948200 -n 0 -e 956.500922
N -t 121.948200 -n 1 -e 957.790432
N -t 123.238000 -n 0 -e 956.498632
N -t 123.238000 -n 1 -e 957.788143
N -t 123.381200 -n 0 -e 956.354432
N -t 123.381200 -n 1 -e 957.643943
s 123.535346909 _0_ AGT  --- 13 cbr 512 [0.00 0 0] [energy 956.354432 ei 43.363 es 0.080 et 0.054 er 0.024] ------- [0:0 1:0 32 0] [13] 0 0
r 123.535346909 _0_ RTR  --- 13 cbr 512 [0.00 0 0] [energy 956.354432 ei 43.363 es 0.080 et 0.054 er 0.024] ------- [0:0 1:0 32 0] [13] 0 0
s 123.535346909 _0_ RTR  --- 13 cbr 512 [0.00 0 0] [energy 956.354432 ei 43.363 es 0.080 et 0.054 er 0.024] ------- [0:0 1:0 32 0] [13] 0 0
D 123.535346909 _0_ IFQ  ARP 12 cbr 512 [0.00 0 0] [energy 956.354432 ei 43.363 es 0.080 et 0.054 er 0.024] ------- [0:0 1:0 32 0] [12] 0 0
N -t 124.671000 -n 0 -e 956.352143
N -t 124.671000 -n 1 -e 957.641653
N -t 124.814200 -n 0 -e 956.207943
N -t 124.814200 -n 1 -e 957.497453
N -t 126.104000 -n 0 -e 956.205653
N -t 126.104000 -n 1 -e 957.495163
N -t 126.247200 -n 0 -e 956.061453
N -t 126.247200 -n 1 -e 957.350963
N -t 127.537000 -n 0 -e 956.059163
N -t 127.537000 -n 1 -e 957.348673
N -t 127.680200 -n 0 -e 955.914963
N -t 127.680200 -n 1 -e 957.204473
N -t 128.970000 -n 0 -e 955.912673
N -t 128.970000 -n 1 -e 957.202183
N -t 129.113200 -n 0 -e 955.768473
N -t 129.113200 -n 1 -e 957.057983
N -t 130.403000 -n 0 -e 955.766183
N -t 130.403000 -n 1 -e 957.055694
N -t 130.546200 -n 0 -e 955.621983
N -t 130.546200 -n 1 -e 956.911494
N -t 131.000000 -n 0 -e 955.621530
N -t 131.000000 -n 1 -e 956.911040
N -t 131.836000 -n 0 -e 955.619694
N -t 131.836000 -n 1 -e 956.909204
N -t 131.979200 -n 0 -e 955.475494
N -t 131.979200 -n 1 -e 956.765004
N -t 133.269000 -n 0 -e 955.473204
N -t 133.269000 -n 1 -e 956.762714
s 133.294000000 _1_ MAC  --- 0 SYNC 9 [0.12 1 0] [energy 956.762714 ei 42.932 es 0.090 et 0.048 er 0.027] 
N -t 133.294000 -n 0 -e 955.445204
N -t 133.412200 -n 0 -e 955.329004
N -t 133.412200 -n 1 -e 956.615514
N -t 134.702000 -n 0 -e 955.326714
N -t 134.702000 -n 1 -e 956.613224
s 134.730000000 _0_ MAC  --- 0 SYNC 9 [0.11 0 1] [energy 955.326714 ei 44.362 es 0.090 et 0.054 er 0.027] 
N -t 134.730000 -n 1 -e 956.582224
N -t 134.845200 -n 1 -e 956.469024
N -t 134.845200 -n 0 -e 955.179514
N -t 136.135000 -n 1 -e 956.466734
N -t 136.135000 -n 0 -e 955.177224
N -t 136.278200 -n 1 -e 956.322534
N -t 136.278200 -n 0 -e 955.033024
s 137.046412428 _0_ AGT  --- 14 cbr 512 [0.00 0 0] [energy 955.033024 ei 44.645 es 0.092 et 0.060 er 0.027] ------- [0:0 1:0 32 0] [14] 0 0
r 137.046412428 _0_ RTR  --- 14 cbr 512 [0.00 0 0] [energy 955.033024 ei 44.645 es 0.092 et 0.060 er 0.027] ------- [0:0 1:0 32 0] [14] 0 0
s 137.046412428 _0_ RTR  --- 14 cbr 512 [0.00 0 0] [energy 955.033024 ei 44.645 es 0.092 et 0.060 er 0.027] ------- [0:0 1:0 32 0] [14] 0 0
D 137.046412428 _0_ IFQ  ARP 13 cbr 512 [0.00 0 0] [energy 955.033024 ei 44.645 es 0.092 et 0.060 er 0.027] ------- [0:0 1:0 32 0] [13] 0 0
N -t 137.568000 -n 1 -e 956.320245
N -t 137.568000 -n 0 -e 955.030734
N -t 137.711200 -n 1 -e 956.176045
N -t 137.711200 -n 0 -e 954.886534
N -t 139.001000 -n 1 -e 956.173755
N -t 139.001000 -n 0 -e 954.884245
N -t 139.144200 -n 1 -e 956.029555
N -t 139.144200 -n 0 -e 954.740045
N -t 140.434000 -n 1 -e 956.027265
N -t 140.434000 -n 0 -e 954.737755
N -t 140.577200 -n 1 -e 955.883065
N -t 140.577200 -n 0 -e 954.593555
N -t 141.000000 -n 0 -e 954.593132
N -t 141.000000 -n 1 -e 955.882642
N -t 141.867000 -n 1 -e 955.880775
N -t 141.867000 -n 0 -e 954.591265
N -t 142.010200 -n 1 -e 955.736575
N -t 142.010200 -n 0 -e 954.447065
N -t 143.300000 -n 1 -e 955.734285
N -t 143.300000 -n 0 -e 954.444775
N -t 143.443200 -n 1 -e 955.590085
N -t 143.443200 -n 0 -e 954.300575
N -t 144.733000 -n 1 -e 955.587796
N -t 144.733000 -n 0 -e 954.298285
N -t 144.876200 -n 1 -e 955.443596
N -t 144.876200 -n 0 -e 954.154085
N -t 146.166000 -n 1 -e 955.441306
N -t 146.166000 -n 0 -e 954.151796
N -t 146.309200 -n 1 -e 955.297106
N -t 146.309200 -n 0 -e 954.007596
N -t 147.599000 -n 1 -e 955.294816
N -t 147.599000 -n 0 -e 954.005306
s 147.613000000 _1_ MAC  --- 0 SYNC 9 [0.13 1 0] [energy 955.294816 ei 44.358 es 0.103 et 0.054 er 0.030] 
N -t 147.613000 -n 0 -e 953.988306
N -t 147.742200 -n 0 -e 953.861106
N -t 147.742200 -n 1 -e 955.147616
N -t 149.032000 -n 0 -e 953.858816
N -t 149.032000 -n 1 -e 955.145326
s 149.056000000 _0_ MAC  --- 0 SYNC 9 [0.12 0 1] [energy 953.858816 ei 45.788 es 0.103 et 0.060 er 0.030] 
N -t 149.056000 -n 1 -e 955.118326
N -t 149.175200 -n 1 -e 955.001126
N -t 149.175200 -n 0 -e 953.711616
N -t 150.465000 -n 1 -e 954.998836
N -t 150.465000 -n 0 -e 953.709326
N -t 150.608200 -n 1 -e 954.854636
N -t 150.608200 -n 0 -e 953.565126
N -t 151.000000 -n 0 -e 953.564734
N -t 151.000000 -n 1 -e 954.854245
s 151.095867119 _0_ AGT  --- 15 cbr 512 [0.00 0 0] [energy 953.564734 ei 46.071 es 0.105 et 0.066 er 0.030] ------- [0:0 1:0 32 0] [15] 0 0
r 151.095867119 _0_ RTR  --- 15 cbr 512 [0.00 0 0] [energy 953.564734 ei 46.071 es 0.105 et 0.066 er 0.030] ------- [0:0 1:0 32 0] [15] 0 0
s 151.095867119 _0_ RTR  --- 15 cbr 512 [0.00 0 0] [energy 953.564734 ei 46.071 es 0.105 et 0.066 er 0.030] ------- [0:0 1:0 32 0] [15] 0 0
D 151.095867119 _0_ IFQ  ARP 14 cbr 512 [0.00 0 0] [energy 953.564734 ei 46.071 es 0.105 et 0.066 er 0.030] ------- [0:0 1:0 32 0] [14] 0 0
D 151.095867119 _0_ IFQ  ARP 15 cbr 512 [0.00 0 0] [energy 953.564734 ei 46.071 es 0.105 et 0.066 er 0.030] ------- [0:0 1:0 32 0] [15] 0 0
N -t 151.898000 -n 1 -e 954.852347
N -t 151.898000 -n 0 -e 953.562836
N -t 152.041200 -n 1 -e 954.708147
N -t 152.041200 -n 0 -e 953.418636
N -t 153.331000 -n 1 -e 954.705857
N -t 153.331000 -n 0 -e 953.416347
N -t 153.474200 -n 1 -e 954.561657
N -t 153.474200 -n 0 -e 953.272147
N -t 154.764000 -n 1 -e 954.559367
N -t 154.764000 -n 0 -e 953.269857
N -t 154.907200 -n 1 -e 954.415167
N -t 154.907200 -n 0 -e 953.125657
N -t 156.197000 -n 1 -e 954.412877
N -t 156.197000 -n 0 -e 953.123367
N -t 156.340200 -n 1 -e 954.268677
N -t 156.340200 -n 0 -e 952.979167
N -t 157.630000 -n 1 -e 954.266387
N -t 157.630000 -n 0 -e 952.976877
N -t 157.773200 -n 1 -e 954.122187
N -t 157.773200 -n 0 -e 952.832677
N -t 159.063000 -n 1 -e 954.119898
N -t 159.063000 -n 0 -e 952.830387
N -t 159.206200 -n 1 -e 953.975698
N -t 159.206200 -n 0 -e 952.686187
s 160.137942400 _0_ AGT  --- 16 cbr 512 [0.00 0 0] [energy 952.686187 ei 46.931 es 0.112 et 0.066 er 0.030] ------- [0:0 1:0 32 0] [16] 0 0
r 160.137942400 _0_ RTR  --- 16 cbr 512 [0.00 0 0] [energy 952.686187 ei 46.931 es 0.112 et 0.066 er 0.030] ------- [0:0 1:0 32 0] [16] 0 0
s 160.137942400 _0_ RTR  --- 16 cbr 512 [0.00 0 0] [energy 952.686187 ei 46.931 es 0.112 et 0.066 er 0.030] ------- [0:0 1:0 32 0] [16] 0 0
N -t 160.496000 -n 1 -e 953.973408
N -t 160.496000 -n 0 -e 952.683898
N -t 160.639200 -n 1 -e 953.829208
N -t 160.639200 -n 0 -e 952.539698
N -t 161.000000 -n 0 -e 952.539337
N -t 161.000000 -n 1 -e 953.828847
N -t 161.929000 -n 1 -e 953.826918
N -t 161.929000 -n 0 -e 952.537408
s 161.965000000 _1_ MAC  --- 0 SYNC 9 [0.10 1 0] [energy 953.826918 ei 45.784 es 0.116 et 0.060 er 0.033] 
N -t 161.965000 -n 0 -e 952.498408
N -t 162.072200 -n 0 -e 952.393208
N -t 162.072200 -n 1 -e 953.679718
N -t 163.362000 -n 0 -e 952.390918
N -t 163.362000 -n 1 -e 953.677428
s 163.383000000 _0_ MAC  --- 0 SYNC 9 [0.12 0 1] [energy 952.390918 ei 47.214 es 0.116 et 0.066 er 0.033] 
N -t 163.383000 -n 1 -e 953.653428
N -t 163.505200 -n 1 -e 953.533228
N -t 163.505200 -n 0 -e 952.243718
N -t 164.795000 -n 1 -e 953.530938
N -t 164.795000 -n 0 -e 952.241428
N -t 164.938200 -n 1 -e 953.386738
N -t 164.938200 -n 0 -e 952.097228
N -t 166.228000 -n 1 -e 953.384449
N -t 166.228000 -n 0 -e 952.094938
N -t 166.371200 -n 1 -e 953.240249
N -t 166.371200 -n 0 -e 951.950738
s 167.011594818 _0_ AGT  --- 17 cbr 512 [0.00 0 0] [energy 951.950738 ei 47.641 es 0.119 et 0.072 er 0.033] ------- [0:0 1:0 32 0] [17] 0 0
r 167.011594818 _0_ RTR  --- 17 cbr 512 [0.00 0 0] [energy 951.950738 ei 47.641 es 0.119 et 0.072 er 0.033] ------- [0:0 1:0 32 0] [17] 0 0
s 167.011594818 _0_ RTR  --- 17 cbr 512 [0.00 0 0] [energy 951.950738 ei 47.641 es 0.119 et 0.072 er 0.033] ------- [0:0 1:0 32 0] [17] 0 0
D 167.011594818 _0_ IFQ  ARP 16 cbr 512 [0.00 0 0] [energy 951.950738 ei 47.641 es 0.119 et 0.072 er 0.033] ------- [0:0 1:0 32 0] [16] 0 0
N -t 167.661000 -n 1 -e 953.237959
N -t 167.661000 -n 0 -e 951.948449
N -t 167.804200 -n 1 -e 953.093759
N -t 167.804200 -n 0 -e 951.804249
N -t 169.094000 -n 1 -e 953.091469
N -t 169.094000 -n 0 -e 951.801959
N -t 169.237200 -n 1 -e 952.947269
N -t 169.237200 -n 0 -e 951.657759
N -t 170.527000 -n 1 -e 952.944979
N -t 170.527000 -n 0 -e 951.655469
N -t 170.670200 -n 1 -e 952.800779
N -t 170.670200 -n 0 -e 951.511269
N -t 171.000000 -n 0 -e 951.510939
N -t 171.000000 -n 1 -e 952.800449
N -t 171.960000 -n 1 -e 952.798489
N -t 171.960000 -n 0 -e 951.508979
N -t 172.103200 -n 1 -e 952.654289
N -t 172.103200 -n 0 -e 951.364779
N -t 173.393000 -n 1 -e 952.652000
N -t 173.393000 -n 0 -e 951.362489
N -t 173.536200 -n 1 -e 952.507800
N -t 173.536200 -n 0 -e 951.218289
N -t 174.826000 -n 1 -e 952.505510
N -t 174.826000 -n 0 -e 951.216000
N -t 174.969200 -n 1 -e 952.361310
N -t 174.969200 -n 0 -e 951.071800
N -t 176.259000 -n 1 -e 952.359020
N -t 176.259000 -n 0 -e 951.069510
s 176.298000000 _1_ MAC  --- 0 SYNC 9 [0.10 1 0] [energy 952.359020 ei 47.210 es 0.129 et 0.066 er 0.036] 
N -t 176.298000 -n 0 -e 951.027510
N -t 176.402200 -n 0 -e 950.925310
N -t 176.402200 -n 1 -e 952.211820
N -t 177.692000 -n 0 -e 950.923020
N -t 177.692000 -n 1 -e 952.209530
s 177.705000000 _0_ MAC  --- 0 SYNC 9 [0.13 0 1] [energy 950.923020 ei 48.640 es 0.129 et 0.072 er 0.036] 
N -t 177.705000 -n 1 -e 952.193530
N -t 177.835200 -n 1 -e 952.065330
N -t 177.835200 -n 0 -e 950.775820
N -t 179.125000 -n 1 -e 952.063040
N -t 179.125000 -n 0 -e 950.773530
N -t 179.268200 -n 1 -e 951.918840
N -t 179.268200 -n 0 -e 950.629330
N -t 180.558000 -n 1 -e 951.916551
N -t 180.558000 -n 0 -e 950.627040
N -t 180.701200 -n 1 -e 951.772351
N -t 180.701200 -n 0 -e 950.482840
s 180.925073032 _0_ AGT  --- 18 cbr 512 [0.00 0 0] [energy 950.482840 ei 49.067 es 0.132 et 0.078 er 0.036] ------- [0:0 1:0 32 0] [18] 0 0
r 180.925073032 _0_ RTR  --- 18 cbr 512 [0.00 0 0] [energy 950.482840 ei 49.067 es 0.132 et 0.078 er 0.036] ------- [0:0 1:0 32 0] [18] 0 0
s 180.925073032 _0_ RTR  --- 18 cbr 512 [0.00 0 0] [energy 950.482840 ei 49.067 es 0.132 et 0.078 er 0.036] ------- [0:0 1:0 32 0] [18] 0 0
D 180.925073032 _0_ IFQ  ARP 17 cbr 512 [0.00 0 0] [energy 950.482840 ei 49.067 es 0.132 et 0.078 er 0.036] ------- [0:0 1:0 32 0] [17] 0 0
N -t 181.000000 -n 0 -e 950.482542
N -t 181.000000 -n 1 -e 951.772052
N -t 181.991000 -n 1 -e 951.770061
N -t 181.991000 -n 0 -e 950.480551
N -t 182.134200 -n 1 -e 951.625861
N -t 182.134200 -n 0 -e 950.336351
N -t 183.424000 -n 1 -e 951.623571
N -t 183.424000 -n 0 -e 950.334061
N -t 183.567200 -n 1 -e 951.479371
N -t 183.567200 -n 0 -e 950.189861
N -t 184.857000 -n 1 -e 951.477081
N -t 184.857000 -n 0 -e 950.187571
N -t 185.000200 -n 1 -e 951.332881
N -t 185.000200 -n 0 -e 950.043371
s 186.033156415 _0_ AGT  --- 19 cbr 512 [0.00 0 0] [energy 950.043371 ei 49.496 es 0.135 et 0.078 er 0.036] ------- [0:0 1:0 32 0] [19] 0 0
r 186.033156415 _0_ RTR  --- 19 cbr 512 [0.00 0 0] [energy 950.043371 ei 49.496 es 0.135 et 0.078 er 0.036] ------- [0:0 1:0 32 0] [19] 0 0