n -t * -s 0  -x 143.43750921878001 -y 94.217567273200004 -Z 0 -z 20  -v circle -c green
n -t * -s 1  -x 304.65324424678403 -y 167.07632596983501 -Z 0 -z 20  -v circle -c green
n -t * -s 2  -x 81.810723227699 -y 152.82536050561001 -Z 0 -z 20  -v circle -c green
n -t * -s 3  -x 325.834153339995 -y 354.615563074325 -Z 0 -z 20  -v circle -c green
n -t * -s 4  -x 23.768638624379001 -y 159.50938100993099 -Z 0 -z 20  -v circle -c green
V -t * -v 1.0a5 -a 0
W -t * -x 670 -y 670
A -t * -n 1 -p 0 -o 0x7fffffff -c 30 -a 1
A -t * -h 1 -m 1073741823 -s 0
+ -t 0.008945709 -s 0 -d -1 -p message -e 90 -c 2 -a 0 -i 0 -k MAC 
- -t 0.008945709 -s 0 -d -1 -p message -e 90 -c 2 -a 0 -i 0 -k MAC
h -t 0.008945709 -s 0 -d -1 -p message -e 90 -c 2 -a 0 -i 0 -k MAC
r -t 0.009665992 -s 2 -d -1 -p message -e 32 -c 2 -a 0 -i 0 -k MAC
r -t 0.009666163 -s 4 -d -1 -p message -e 32 -c 2 -a 0 -i 0 -k MAC
r -t 0.009666299 -s 1 -d -1 -p message -e 32 -c 2 -a 0 -i 0 -k MAC
+ -t 0.035112973 -s 2 -d -1 -p message -e 90 -c 2 -a 0 -i 1 -k MAC 
- -t 0.035112973 -s 2 -d -1 -p message -e 90 -c 2 -a 0 -i 1 -k MAC
h -t 0.035112973 -s 2 -d -1 -p message -e 90 -c 2 -a 0 -i 1 -k MAC
r -t 0.035833167 -s 4 -d -1 -p message -e 32 -c 2 -a 0 -i 1 -k MAC
r -t 0.035833256 -s 0 -d -1 -p message -e 32 -c 2 -a 0 -i 1 -k MAC
r -t 0.035833717 -s 1 -d -1 -p message -e 32 -c 2 -a 0 -i 1 -k MAC
+ -t 0.177108288 -s 3 -d -1 -p message -e 90 -c 2 -a 0 -i 2 -k MAC 
- -t 0.177108288 -s 3 -d -1 -p message -e 90 -c 2 -a 0 -i 2 -k MAC
h -t 0.177108288 -s 3 -d -1 -p message -e 90 -c 2 -a 0 -i 2 -k MAC
r -t 0.177828917 -s 1 -d -1 -p message -e 32 -c 2 -a 0 -i 2 -k MAC
+ -t 0.886998331 -s 4 -d -1 -p message -e 90 -c 2 -a 0 -i 3 -k MAC 
- -t 0.886998331 -s 4 -d -1 -p message -e 90 -c 2 -a 0 -i 3 -k MAC
h -t 0.886998331 -s 4 -d -1 -p message -e 90 -c 2 -a 0 -i 3 -k MAC
r -t 0.887718526 -s 2 -d -1 -p message -e 32 -c 2 -a 0 -i 3 -k MAC
r -t 0.887718786 -s 0 -d -1 -p message -e 32 -c 2 -a 0 -i 3 -k MAC
+ -t 1.115343842 -s 1 -d -1 -p message -e 90 -c 2 -a 0 -i 4 -k MAC 
- -t 1.115343842 -s 1 -d -1 -p message -e 90 -c 2 -a 0 -i 4 -k MAC
h -t 1.115343842 -s 1 -d -1 -p message -e 90 -c 2 -a 0 -i 4 -k MAC
r -t 1.116064432 -s 0 -d -1 -p message -e 32 -c 2 -a 0 -i 4 -k MAC
r -t 1.116064471 -s 3 -d -1 -p message -e 32 -c 2 -a 0 -i 4 -k MAC
r -t 1.116064587 -s 2 -d -1 -p message -e 32 -c 2 -a 0 -i 4 -k MAC
+ -t 12.014827152 -s 2 -d -1 -p message -e 90 -c 2 -a 0 -i 5 -k MAC 
- -t 12.014827152 -s 2 -d -1 -p message -e 90 -c 2 -a 0 -i 5 -k MAC
h -t 12.014827152 -s 2 -d -1 -p message -e 90 -c 2 -a 0 -i 5 -k MAC
r -t 12.015547347 -s 4 -d -1 -p message -e 32 -c 2 -a 0 -i 5 -k MAC
r -t 12.015547435 -s 0 -d -1 -p message -e 32 -c 2 -a 0 -i 5 -k MAC
r -t 12.015547896 -s 1 -d -1 -p message -e 32 -c 2 -a 0 -i 5 -k MAC
+ -t 12.017049232 -s 4 -d -1 -p message -e 90 -c 2 -a 0 -i 6 -k MAC 
- -t 12.017049232 -s 4 -d -1 -p message -e 90 -c 2 -a 0 -i 6 -k MAC
h -t 12.017049232 -s 4 -d -1 -p message -e 90 -c 2 -a 0 -i 6 -k MAC
r -t 12.017769426 -s 2 -d -1 -p message -e 32 -c 2 -a 0 -i 6 -k MAC
r -t 12.017769686 -s 0 -d -1 -p message -e 32 -c 2 -a 0 -i 6 -k MAC
+ -t 12.018686972 -s 1 -d -1 -p message -e 90 -c 2 -a 0 -i 7 -k MAC 
- -t 12.018686972 -s 1 -d -1 -p message -e 90 -c 2 -a 0 -i 7 -k MAC
h -t 12.018686972 -s 1 -d -1 -p message -e 90 -c 2 -a 0 -i 7 -k MAC
r -t 12.019407561 -s 0 -d -1 -p message -e 32 -c 2 -a 0 -i 7 -k MAC
r -t 12.019407601 -s 3 -d -1 -p message -e 32 -c 2 -a 0 -i 7 -k MAC
r -t 12.019407716 -s 2 -d -1 -p message -e 32 -c 2 -a 0 -i 7 -k MAC
+ -t 12.045062711 -s 0 -d -1 -p message -e 90 -c 2 -a 0 -i 8 -k MAC 
- -t 12.045062711 -s 0 -d -1 -p message -e 90 -c 2 -a 0 -i 8 -k MAC
h -t 12.045062711 -s 0 -d -1 -p message -e 90 -c 2 -a 0 -i 8 -k MAC
r -t 12.045782994 -s 2 -d -1 -p message -e 32 -c 2 -a 0 -i 8 -k MAC
r -t 12.045783165 -s 4 -d -1 -p message -e 32 -c 2 -a 0 -i 8 -k MAC
r -t 12.045783301 -s 1 -d -1 -p message -e 32 -c 2 -a 0 -i 8 -k MAC
+ -t 12.428922873 -s 0 -d -1 -p message -e 102 -c 2 -a 0 -i 9 -k MAC 
- -t 12.428922873 -s 0 -d -1 -p message -e 102 -c 2 -a 0 -i 9 -k MAC
h -t 12.428922873 -s 0 -d -1 -p message -e 102 -c 2 -a 0 -i 9 -k MAC
r -t 12.429739157 -s 2 -d -1 -p message -e 44 -c 2 -a 0 -i 9 -k MAC
r -t 12.429739328 -s 4 -d -1 -p message -e 44 -c 2 -a 0 -i 9 -k MAC
r -t 12.429739463 -s 1 -d -1 -p message -e 44 -c 2 -a 0 -i 9 -k MAC
+ -t 12.446504266 -s 2 -d -1 -p message -e 90 -c 2 -a 0 -i 10 -k MAC 
- -t 12.446504266 -s 2 -d -1 -p message -e 90 -c 2 -a 0 -i 10 -k MAC
h -t 12.446504266 -s 2 -d -1 -p message -e 90 -c 2 -a 0 -i 10 -k MAC
r -t 12.447224461 -s 4 -d -1 -p message -e 32 -c 2 -a 0 -i 10 -k MAC
r -t 12.447224550 -s 0 -d -1 -p message -e 32 -c 2 -a 0 -i 10 -k MAC
r -t 12.447225011 -s 1 -d -1 -p message -e 32 -c 2 -a 0 -i 10 -k MAC
+ -t 12.794171740 -s 4 -d -1 -p message -e 90 -c 2 -a 0 -i 11 -k MAC 
- -t 12.794171740 -s 4 -d -1 -p message -e 90 -c 2 -a 0 -i 11 -k MAC
h -t 12.794171740 -s 4 -d -1 -p message -e 90 -c 2 -a 0 -i 11 -k MAC
r -t 12.794891935 -s 2 -d -1 -p message -e 32 -c 2 -a 0 -i 11 -k MAC
r -t 12.794892194 -s 0 -d -1 -p message -e 32 -c 2 -a 0 -i 11 -k MAC
+ -t 13.012816236 -s 1 -d -1 -p message -e 90 -c 2 -a 0 -i 12 -k MAC 
- -t 13.012816236 -s 1 -d -1 -p message -e 90 -c 2 -a 0 -i 12 -k MAC
h -t 13.012816236 -s 1 -d -1 -p message -e 90 -c 2 -a 0 -i 12 -k MAC
r -t 13.013536826 -s 0 -d -1 -p message -e 32 -c 2 -a 0 -i 12 -k MAC
r -t 13.013536865 -s 3 -d -1 -p message -e 32 -c 2 -a 0 -i 12 -k MAC
r -t 13.013536980 -s 2 -d -1 -p message -e 32 -c 2 -a 0 -i 12 -k MAC
+ -t 13.125251028 -s 3 -d -1 -p message -e 90 -c 2 -a 0 -i 13 -k MAC 
- -t 13.125251028 -s 3 -d -1 -p message -e 90 -c 2 -a 0 -i 13 -k MAC
h -t 13.125251028 -s 3 -d -1 -p message -e 90 -c 2 -a 0 -i 13 -k MAC
r -t 13.125971657 -s 1 -d -1 -p message -e 32 -c 2 -a 0 -i 13 -k MAC
+ -t 13.334223113 -s 1 -d -1 -p message -e 102 -c 2 -a 0 -i 14 -k MAC 
- -t 13.334223113 -s 1 -d -1 -p message -e 102 -c 2 -a 0 -i 14 -k MAC
h -t 13.334223113 -s 1 -d -1 -p message -e 102 -c 2 -a 0 -i 14 -k MAC
r -t 13.335039703 -s 0 -d -1 -p message -e 44 -c 2 -a 0 -i 14 -k MAC
r -t 13.335039742 -s 3 -d -1 -p message -e 44 -c 2 -a 0 -i 14 -k MAC
r -t 13.335039857 -s 2 -d -1 -p message -e 44 -c 2 -a 0 -i 14 -k MAC
+ -t 13.834703935 -s 3 -d -1 -p message -e 90 -c 2 -a 0 -i 18 -k MAC 
- -t 13.834703935 -s 3 -d -1 -p message -e 90 -c 2 -a 0 -i 18 -k MAC
h -t 13.834703935 -s 3 -d -1 -p message -e 90 -c 2 -a 0 -i 18 -k MAC
r -t 13.835424564 -s 1 -d -1 -p message -e 32 -c 2 -a 0 -i 18 -k MAC
+ -t 24.026696973 -s 3 -d -1 -p message -e 102 -c 2 -a 0 -i 19 -k MAC 
- -t 24.026696973 -s 3 -d -1 -p message -e 102 -c 2 -a 0 -i 19 -k MAC
h -t 24.026696973 -s 3 -d -1 -p message -e 102 -c 2 -a 0 -i 19 -k MAC
r -t 24.027513602 -s 1 -d -1 -p message -e 44 -c 2 -a 0 -i 19 -k MAC
+ -t 24.109021791 -s 2 -d -1 -p message -e 126 -c 2 -a 0 -i 20 -k MAC 
- -t 24.109021791 -s 2 -d -1 -p message -e 126 -c 2 -a 0 -i 20 -k MAC
h -t 24.109021791 -s 2 -d -1 -p message -e 126 -c 2 -a 0 -i 20 -k MAC
r -t 24.110029986 -s 4 -d -1 -p message -e 68 -c 2 -a 0 -i 20 -k MAC
r -t 24.110030075 -s 0 -d -1 -p message -e 68 -c 2 -a 0 -i 20 -k MAC
r -t 24.110030536 -s 1 -d -1 -p message -e 68 -c 2 -a 0 -i 20 -k MAC
+ -t 24.382389440 -s 0 -d -1 -p message -e 114 -c 2 -a 0 -i 21 -k MAC 
- -t 24.382389440 -s 0 -d -1 -p message -e 114 -c 2 -a 0 -i 21 -k MAC
h -t 24.382389440 -s 0 -d -1 -p message -e 114 -c 2 -a 0 -i 21 -k MAC
r -t 24.383301724 -s 2 -d -1 -p message -e 56 -c 2 -a 0 -i 21 -k MAC
r -t 24.383301895 -s 4 -d -1 -p message -e 56 -c 2 -a 0 -i 21 -k MAC
r -t 24.383302030 -s 1 -d -1 -p message -e 56 -c 2 -a 0 -i 21 -k MAC
+ -t 24.691490763 -s 1 -d -1 -p message -e 102 -c 2 -a 0 -i 22 -k MAC 
- -t 24.691490763 -s 1 -d -1 -p message -e 102 -c 2 -a 0 -i 22 -k MAC
h -t 24.691490763 -s 1 -d -1 -p message -e 102 -c 2 -a 0 -i 22 -k MAC
r -t 24.692307353 -s 0 -d -1 -p message -e 44 -c 2 -a 0 -i 22 -k MAC
r -t 24.692307392 -s 3 -d -1 -p message -e 44 -c 2 -a 0 -i 22 -k MAC
r -t 24.692307507 -s 2 -d -1 -p message -e 44 -c 2 -a 0 -i 22 -k MAC
+ -t 25.303117935 -s 4 -d -1 -p message -e 90 -c 2 -a 0 -i 24 -k MAC 
- -t 25.303117935 -s 4 -d -1 -p message -e 90 -c 2 -a 0 -i 24 -k MAC
h -t 25.303117935 -s 4 -d -1 -p message -e 90 -c 2 -a 0 -i 24 -k MAC
r -t 25.303838130 -s 2 -d -1 -p message -e 32 -c 2 -a 0 -i 24 -k MAC
r -t 25.303838389 -s 0 -d -1 -p message -e 32 -c 2 -a 0 -i 24 -k MAC
+ -t 28.633258860 -s 3 -d -1 -p message -e 102 -c 2 -a 0 -i 26 -k MAC 
- -t 28.633258860 -s 3 -d -1 -p message -e 102 -c 2 -a 0 -i 26 -k MAC
h -t 28.633258860 -s 3 -d -1 -p message -e 102 -c 2 -a 0 -i 26 -k MAC
r -t 28.634075489 -s 1 -d -1 -p message -e 44 -c 2 -a 0 -i 26 -k MAC
+ -t 36.111969871 -s 4 -d -1 -p message -e 114 -c 2 -a 0 -i 27 -k MAC 
- -t 36.111969871 -s 4 -d -1 -p message -e 114 -c 2 -a 0 -i 27 -k MAC
h -t 36.111969871 -s 4 -d -1 -p message -e 114 -c 2 -a 0 -i 27 -k MAC
r -t 36.112882065 -s 2 -d -1 -p message -e 56 -c 2 -a 0 -i 27 -k MAC
r -t 36.112882325 -s 0 -d -1 -p message -e 56 -c 2 -a 0 -i 27 -k MAC
+ -t 36.114774311 -s 1 -d -1 -p message -e 114 -c 2 -a 0 -i 28 -k MAC 
- -t 36.114774311 -s 1 -d -1 -p message -e 114 -c 2 -a 0 -i 28 -k MAC
h -t 36.114774311 -s 1 -d -1 -p message -e 114 -c 2 -a 0 -i 28 -k MAC
r -t 36.115686901 -s 0 -d -1 -p message -e 56 -c 2 -a 0 -i 28 -k MAC
r -t 36.115686940 -s 3 -d -1 -p message -e 56 -c 2 -a 0 -i 28 -k MAC
r -t 36.115687055 -s 2 -d -1 -p message -e 56 -c 2 -a 0 -i 28 -k MAC
+ -t 37.205366755 -s 2 -d -1 -p message -e 138 -c 2 -a 0 -i 29 -k MAC 
- -t 37.205366755 -s 2 -d -1 -p message -e 138 -c 2 -a 0 -i 29 -k MAC
h -t 37.205366755 -s 2 -d -1 -p message -e 138 -c 2 -a 0 -i 29 -k MAC
r -t 37.206470949 -s 4 -d -1 -p message -e 80 -c 2 -a 0 -i 29 -k MAC
r -t 37.206471038 -s 0 -d -1 -p message -e 80 -c 2 -a 0 -i 29 -k MAC
r -t 37.206471499 -s 1 -d -1 -p message -e 80 -c 2 -a 0 -i 29 -k MAC
+ -t 38.387444651 -s 0 -d -1 -p message -e 126 -c 2 -a 0 -i 30 -k MAC 
- -t 38.387444651 -s 0 -d -1 -p message -e 126 -c 2 -a 0 -i 30 -k MAC
h -t 38.387444651 -s 0 -d -1 -p message -e 126 -c 2 -a 0 -i 30 -k MAC
r -t 38.388452934 -s 2 -d -1 -p message -e 68 -c 2 -a 0 -i 30 -k MAC
r -t 38.388453105 -s 4 -d -1 -p message -e 68 -c 2 -a 0 -i 30 -k MAC
r -t 38.388453240 -s 1 -d -1 -p message -e 68 -c 2 -a 0 -i 30 -k MAC
+ -t 39.315211369 -s 4 -d -1 -p message -e 90 -c 2 -a 0 -i 31 -k MAC 
- -t 39.315211369 -s 4 -d -1 -p message -e 90 -c 2 -a 0 -i 31 -k MAC
h -t 39.315211369 -s 4 -d -1 -p message -e 90 -c 2 -a 0 -i 31 -k MAC
r -t 39.315931564 -s 2 -d -1 -p message -e 32 -c 2 -a 0 -i 31 -k MAC
r -t 39.315931824 -s 0 -d -1 -p message -e 32 -c 2 -a 0 -i 31 -k MAC
+ -t 39.319164837 -s 1 -d -1 -p message -e 102 -c 2 -a 0 -i 32 -k MAC 
- -t 39.319164837 -s 1 -d -1 -p message -e 102 -c 2 -a 0 -i 32 -k MAC
h -t 39.319164837 -s 1 -d -1 -p message -e 102 -c 2 -a 0 -i 32 -k MAC
r -t 39.319981427 -s 0 -d -1 -p message -e 44 -c 2 -a 0 -i 32 -k MAC
r -t 39.319981466 -s 3 -d -1 -p message -e 44 -c 2 -a 0 -i 32 -k MAC
r -t 39.319981581 -s 2 -d -1 -p message -e 44 -c 2 -a 0 -i 32 -k MAC
+ -t 42.940776021 -s 3 -d -1 -p message -e 90 -c 2 -a 0 -i 33 -k MAC 
- -t 42.940776021 -s 3 -d -1 -p message -e 90 -c 2 -a 0 -i 33 -k MAC
h -t 42.940776021 -s 3 -d -1 -p message -e 90 -c 2 -a 0 -i 33 -k MAC
r -t 42.941496650 -s 1 -d -1 -p message -e 32 -c 2 -a 0 -i 33 -k MAC
+ -t 48.120579162 -s 3 -d -1 -p message -e 138 -c 2 -a 0 -i 34 -k MAC 
- -t 48.120579162 -s 3 -d -1 -p message -e 138 -c 2 -a 0 -i 34 -k MAC
h -t 48.120579162 -s 3 -d -1 -p message -e 138 -c 2 -a 0 -i 34 -k MAC
r -t 48.121683791 -s 1 -d -1 -p message -e 80 -c 2 -a 0 -i 34 -k MAC
+ -t 49.208972470 -s 4 -d -1 -p message -e 138 -c 2 -a 0 -i 36 -k MAC 
- -t 49.208972470 -s 4 -d -1 -p message -e 138 -c 2 -a 0 -i 36 -k MAC
h -t 49.208972470 -s 4 -d -1 -p message -e 138 -c 2 -a 0 -i 36 -k MAC
r -t 49.210076664 -s 2 -d -1 -p message -e 80 -c 2 -a 0 -i 36 -k MAC
r -t 49.210076924 -s 0 -d -1 -p message -e 80 -c 2 -a 0 -i 36 -k MAC
+ -t 50.781795617 -s 0 -d -1 -p message -e 126 -c 2 -a 0 -i 37 -k MAC 
- -t 50.781795617 -s 0 -d -1 -p message -e 126 -c 2 -a 0 -i 37 -k MAC
h -t 50.781795617 -s 0 -d -1 -p message -e 126 -c 2 -a 0 -i 37 -k MAC
r -t 50.782803900 -s 2 -d -1 -p message -e 68 -c 2 -a 0 -i 37 -k MAC
r -t 50.782804071 -s 4 -d -1 -p message -e 68 -c 2 -a 0 -i 37 -k MAC
r -t 50.782804207 -s 1 -d -1 -p message -e 68 -c 2 -a 0 -i 37 -k MAC
+ -t 51.066850280 -s 2 -d -1 -p message -e 114 -c 2 -a 0 -i 38 -k MAC 
- -t 51.066850280 -s 2 -d -1 -p message -e 114 -c 2 -a 0 -i 38 -k MAC
h -t 51.066850280 -s 2 -d -1 -p message -e 114 -c 2 -a 0 -i 38 -k MAC
r -t 51.067762475 -s 4 -d -1 -p message -e 56 -c 2 -a 0 -i 38 -k MAC
r -t 51.067762563 -s 0 -d -1 -p message -e 56 -c 2 -a 0 -i 38 -k MAC
r -t 51.067763024 -s 1 -d -1 -p message -e 56 -c 2 -a 0 -i 38 -k MAC
+ -t 53.401703313 -s 1 -d -1 -p message -e 102 -c 2 -a 0 -i 39 -k MAC 
- -t 53.401703313 -s 1 -d -1 -p message -e 102 -c 2 -a 0 -i 39 -k MAC
h -t 53.401703313 -s 1 -d -1 -p message -e 102 -c 2 -a 0 -i 39 -k MAC
r -t 53.402519903 -s 0 -d -1 -p message -e 44 -c 2 -a 0 -i 39 -k MAC
r -t 53.402519942 -s 3 -d -1 -p message -e 44 -c 2 -a 0 -i 39 -k MAC
r -t 53.402520057 -s 2 -d -1 -p message -e 44 -c 2 -a 0 -i 39 -k MAC
+ -t 61.021790985 -s 3 -d -1 -p message -e 126 -c 2 -a 0 -i 40 -k MAC 
- -t 61.021790985 -s 3 -d -1 -p message -e 126 -c 2 -a 0 -i 40 -k MAC
h -t 61.021790985 -s 3 -d -1 -p message -e 126 -c 2 -a 0 -i 40 -k MAC
r -t 61.022799614 -s 1 -d -1 -p message -e 68 -c 2 -a 0 -i 40 -k MAC
+ -t 63.830182807 -s 4 -d -1 -p message -e 138 -c 2 -a 0 -i 41 -k MAC 
- -t 63.830182807 -s 4 -d -1 -p message -e 138 -c 2 -a 0 -i 41 -k MAC
h -t 63.830182807 -s 4 -d -1 -p message -e 138 -c 2 -a 0 -i 41 -k MAC
r -t 63.831287002 -s 2 -d -1 -p message -e 80 -c 2 -a 0 -i 41 -k MAC
r -t 63.831287262 -s 0 -d -1 -p message -e 80 -c 2 -a 0 -i 41 -k MAC
+ -t 64.790835648 -s 0 -d -1 -p message -e 126 -c 2 -a 0 -i 42 -k MAC 
- -t 64.790835648 -s 0 -d -1 -p message -e 126 -c 2 -a 0 -i 42 -k MAC
h -t 64.790835648 -s 0 -d -1 -p message -e 126 -c 2 -a 0 -i 42 -k MAC
r -t 64.791843931 -s 2 -d -1 -p message -e 68 -c 2 -a 0 -i 42 -k MAC
r -t 64.791844102 -s 4 -d -1 -p message -e 68 -c 2 -a 0 -i 42 -k MAC
r -t 64.791844237 -s 1 -d -1 -p message -e 68 -c 2 -a 0 -i 42 -k MAC
+ -t 65.318366237 -s 1 -d -1 -p message -e 114 -c 2 -a 0 -i 43 -k MAC 
- -t 65.318366237 -s 1 -d -1 -p message -e 114 -c 2 -a 0 -i 43 -k MAC
h -t 65.318366237 -s 1 -d -1 -p message -e 114 -c 2 -a 0 -i 43 -k MAC
r -t 65.319278827 -s 0 -d -1 -p message -e 56 -c 2 -a 0 -i 43 -k MAC
r -t 65.319278866 -s 3 -d -1 -p message -e 56 -c 2 -a 0 -i 43 -k MAC
r -t 65.319278981 -s 2 -d -1 -p message -e 56 -c 2 -a 0 -i 43 -k MAC
+ -t 65.502514817 -s 2 -d -1 -p message -e 102 -c 2 -a 0 -i 44 -k MAC 
- -t 65.502514817 -s 2 -d -1 -p message -e 102 -c 2 -a 0 -i 44 -k MAC
h -t 65.502514817 -s 2 -d -1 -p message -e 102 -c 2 -a 0 -i 44 -k MAC
r -t 65.503331012 -s 4 -d -1 -p message -e 44 -c 2 -a 0 -i 44 -k MAC
r -t 65.503331101 -s 0 -d -1 -p message -e 44 -c 2 -a 0 -i 44 -k MAC
r -t 65.503331562 -s 1 -d -1 -p message -e 44 -c 2 -a 0 -i 44 -k MAC
+ -t 74.915011466 -s 3 -d -1 -p message -e 126 -c 2 -a 0 -i 45 -k MAC 
- -t 74.915011466 -s 3 -d -1 -p message -e 126 -c 2 -a 0 -i 45 -k MAC
h -t 74.915011466 -s 3 -d -1 -p message -e 126 -c 2 -a 0 -i 45 -k MAC
r -t 74.916020095 -s 1 -d -1 -p message -e 68 -c 2 -a 0 -i 45 -k MAC
+ -t 76.361568760 -s 4 -d -1 -p message -e 138 -c 2 -a 0 -i 46 -k MAC 
- -t 76.361568760 -s 4 -d -1 -p message -e 138 -c 2 -a 0 -i 46 -k MAC
h -t 76.361568760 -s 4 -d -1 -p message -e 138 -c 2 -a 0 -i 46 -k MAC
r -t 76.362672955 -s 2 -d -1 -p message -e 80 -c 2 -a 0 -i 46 -k MAC
r -t 76.362673214 -s 0 -d -1 -p message -e 80 -c 2 -a 0 -i 46 -k MAC
+ -t 76.896783642 -s 0 -d -1 -p message -e 126 -c 2 -a 0 -i 47 -k MAC 
- -t 76.896783642 -s 0 -d -1 -p message -e 126 -c 2 -a 0 -i 47 -k MAC
h -t 76.896783642 -s 0 -d -1 -p message -e 126 -c 2 -a 0 -i 47 -k MAC
r -t 76.897791926 -s 2 -d -1 -p message -e 68 -c 2 -a 0 -i 47 -k MAC
r -t 76.897792097 -s 4 -d -1 -p message -e 68 -c 2 -a 0 -i 47 -k MAC
r -t 76.897792232 -s 1 -d -1 -p message -e 68 -c 2 -a 0 -i 47 -k MAC
+ -t 79.946747027 -s 1 -d -1 -p message -e 114 -c 2 -a 0 -i 48 -k MAC 
- -t 79.946747027 -s 1 -d -1 -p message -e 114 -c 2 -a 0 -i 48 -k MAC
h -t 79.946747027 -s 1 -d -1 -p message -e 114 -c 2 -a 0 -i 48 -k MAC
r -t 79.947659616 -s 0 -d -1 -p message -e 56 -c 2 -a 0 -i 48 -k MAC
r -t 79.947659656 -s 3 -d -1 -p message -e 56 -c 2 -a 0 -i 48 -k MAC
r -t 79.947659771 -s 2 -d -1 -p message -e 56 -c 2 -a 0 -i 48 -k MAC
+ -t 80.303762705 -s 2 -d -1 -p message -e 102 -c 2 -a 0 -i 49 -k MAC 
- -t 80.303762705 -s 2 -d -1 -p message -e 102 -c 2 -a 0 -i 49 -k MAC
h -t 80.303762705 -s 2 -d -1 -p message -e 102 -c 2 -a 0 -i 49 -k MAC
r -t 80.304578900 -s 4 -d -1 -p message -e 44 -c 2 -a 0 -i 49 -k MAC
r -t 80.304578989 -s 0 -d -1 -p message -e 44 -c 2 -a 0 -i 49 -k MAC
r -t 80.304579450 -s 1 -d -1 -p message -e 44 -c 2 -a 0 -i 49 -k MAC
+ -t 82.557023746 -s 2 -d -1 -p cbr -e 512 -c 2 -a 0 -i 50 -k AGT 
- -t 82.557023746 -s 2 -d -1 -p cbr -e 512 -c 2 -a 0 -i 50 -k AGT
h -t 82.557023746 -s 2 -d -1 -p cbr -e 512 -c 2 -a 0 -i 50 -k AGT
+ -t 82.557078746 -s 2 -d -1 -p ARP -e 86 -c 2 -a 0 -i 0 -k MAC 
- -t 82.557078746 -s 2 -d -1 -p ARP -e 86 -c 2 -a 0 -i 0 -k MAC
h -t 82.557078746 -s 2 -d -1 -p ARP -e 86 -c 2 -a 0 -i 0 -k MAC
r -t 82.557766941 -s 4 -d -1 -p ARP -e 28 -c 2 -a 0 -i 0 -k MAC
r -t 82.557767030 -s 0 -d -1 -p ARP -e 28 -c 2 -a 0 -i 0 -k MAC
r -t 82.557767491 -s 1 -d -1 -p ARP -e 28 -c 2 -a 0 -i 0 -k MAC
+ -t 82.558142491 -s 1 -d -1 -p RTS -e 44 -c 2 -a 0 -i 0 -k MAC 
- -t 82.558142491 -s 1 -d -1 -p RTS -e 44 -c 2 -a 0 -i 0 -k MAC
h -t 82.558142491 -s 1 -d -1 -p RTS -e 44 -c 2 -a 0 -i 0 -k MAC
r -t 82.558495235 -s 2 -d -1 -p RTS -e 44 -c 2 -a 0 -i 0 -k MAC
+ -t 82.558505235 -s 2 -d -1 -p CTS -e 38 -c 2 -a 0 -i 0 -k MAC 
- -t 82.558505235 -s 2 -d -1 -p CTS -e 38 -c 2 -a 0 -i 0 -k MAC
h -t 82.558505235 -s 2 -d -1 -p CTS -e 38 -c 2 -a 0 -i 0 -k MAC
r -t 82.558809979 -s 1 -d -1 -p CTS -e 38 -c 2 -a 0 -i 0 -k MAC
+ -t 82.558819979 -s 1 -d -1 -p ARP -e 86 -c 2 -a 0 -i 0 -k MAC 
- -t 82.558819979 -s 1 -d -1 -p ARP -e 86 -c 2 -a 0 -i 0 -k MAC
h -t 82.558819979 -s 1 -d -1 -p ARP -e 86 -c 2 -a 0 -i 0 -k MAC
r -t 82.559508724 -s 2 -d -1 -p ARP -e 28 -c 2 -a 0 -i 0 -k MAC
+ -t 82.559518724 -s 2 -d -1 -p ACK -e 38 -c 2 -a 0 -i 0 -k MAC 
- -t 82.559518724 -s 2 -d -1 -p ACK -e 38 -c 2 -a 0 -i 0 -k MAC
h -t 82.559518724 -s 2 -d -1 -p ACK -e 38 -c 2 -a 0 -i 0 -k MAC
r -t 82.559823468 -s 1 -d -1 -p ACK -e 38 -c 2 -a 0 -i 0 -k MAC
+ -t 82.560112724 -s 2 -d -1 -p RTS -e 44 -c 2 -a 0 -i 0 -k MAC 
- -t 82.560112724 -s 2 -d -1 -p RTS -e 44 -c 2 -a 0 -i 0 -k MAC
h -t 82.560112724 -s 2 -d -1 -p RTS -e 44 -c 2 -a 0 -i 0 -k MAC
r -t 82.560465468 -s 1 -d -1 -p RTS -e 44 -c 2 -a 0 -i 0 -k MAC
+ -t 82.560475468 -s 1 -d -1 -p CTS -e 38 -c 2 -a 0 -i 0 -k MAC 
- -t 82.560475468 -s 1 -d -1 -p CTS -e 38 -c 2 -a 0 -i 0 -k MAC
h -t 82.560475468 -s 1 -d -1 -p CTS -e 38 -c 2 -a 0 -i 0 -k MAC
r -t 82.560780212 -s 2 -d -1 -p CTS -e 38 -c 2 -a 0 -i 0 -k MAC
+ -t 82.560790212 -s 2 -d 1 -p cbr -e 590 -c 2 -a 0 -i 50 -k MAC 
- -t 82.560790212 -s 2 -d 1 -p cbr -e 590 -c 2 -a 0 -i 50 -k MAC
h -t 82.560790212 -s 2 -d 1 -p cbr -e 590 -c 2 -a 0 -i 50 -k MAC
r -t 82.565510957 -s 1 -d 1 -p cbr -e 532 -c 2 -a 0 -i 50 -k MAC
+ -t 82.565520957 -s 1 -d -1 -p ACK -e 38 -c 2 -a 0 -i 0 -k MAC 
- -t 82.565520957 -s 1 -d -1 -p ACK -e 38 -c 2 -a 0 -i 0 -k MAC
h -t 82.565520957 -s 1 -d -1 -p ACK -e 38 -c 2 -a 0 -i 0 -k MAC
r -t 82.565825701 -s 2 -d -1 -p ACK -e 38 -c 2 -a 0 -i 0 -k MAC
+ -t 82.566014957 -s 1 -d -1 -p ARP -e 86 -c 2 -a 0 -i 0 -k MAC 
- -t 82.566014957 -s 1 -d -1 -p ARP -e 86 -c 2 -a 0 -i 0 -k MAC
h -t 82.566014957 -s 1 -d -1 -p ARP -e 86 -c 2 -a 0 -i 0 -k MAC
r -t 82.566703546 -s 0 -d -1 -p ARP -e 28 -c 2 -a 0 -i 0 -k MAC
r -t 82.566703586 -s 3 -d -1 -p ARP -e 28 -c 2 -a 0 -i 0 -k MAC
r -t 82.566703701 -s 2 -d -1 -p ARP -e 28 -c 2 -a 0 -i 0 -k MAC
+ -t 82.567158586 -s 3 -d -1 -p RTS -e 44 -c 2 -a 0 -i 0 -k MAC 
- -t 82.567158586 -s 3 -d -1 -p RTS -e 44 -c 2 -a 0 -i 0 -k MAC
h -t 82.567158586 -s 3 -d -1 -p RTS -e 44 -c 2 -a 0 -i 0 -k MAC
r -t 82.567511215 -s 1 -d -1 -p RTS -e 44 -c 2 -a 0 -i 0 -k MAC
+ -t 82.567521215 -s 1 -d -1 -p CTS -e 38 -c 2 -a 0 -i 0 -k MAC 
- -t 82.567521215 -s 1 -d -1 -p CTS -e 38 -c 2 -a 0 -i 0 -k MAC
h -t 82.567521215 -s 1 -d -1 -p CTS -e 38 -c 2 -a 0 -i 0 -k MAC
r -t 82.567825844 -s 3 -d -1 -p CTS -e 38 -c 2 -a 0 -i 0 -k MAC
+ -t 82.567835844 -s 3 -d -1 -p ARP -e 86 -c 2 -a 0 -i 0 -k MAC 
- -t 82.567835844 -s 3 -d -1 -p ARP -e 86 -c 2 -a 0 -i 0 -k MAC
h -t 82.567835844 -s 3 -d -1 -p ARP -e 86 -c 2 -a 0 -i 0 -k MAC
r -t 82.568524473 -s 1 -d -1 -p ARP -e 28 -c 2 -a 0 -i 0 -k MAC
+ -t 82.568534473 -s 1 -d -1 -p ACK -e 38 -c 2 -a 0 -i 0 -k MAC 
- -t 82.568534473 -s 1 -d -1 -p ACK -e 38 -c 2 -a 0 -i 0 -k MAC
h -t 82.568534473 -s 1 -d -1 -p ACK -e 38 -c 2 -a 0 -i 0 -k MAC
r -t 82.568839102 -s 3 -d -1 -p ACK -e 38 -c 2 -a 0 -i 0 -k MAC
+ -t 82.569008473 -s 1 -d -1 -p RTS -e 44 -c 2 -a 0 -i 0 -k MAC 
- -t 82.569008473 -s 1 -d -1 -p RTS -e 44 -c 2 -a 0 -i 0 -k MAC
h -t 82.569008473 -s 1 -d -1 -p RTS -e 44 -c 2 -a 0 -i 0 -k MAC
r -t 82.569361102 -s 3 -d -1 -p RTS -e 44 -c 2 -a 0 -i 0 -k MAC
+ -t 82.569371102 -s 3 -d -1 -p CTS -e 38 -c 2 -a 0 -i 0 -k MAC 
- -t 82.569371102 -s 3 -d -1 -p CTS -e 38 -c 2 -a 0 -i 0 -k MAC
h -t 82.569371102 -s 3 -d -1 -p CTS -e 38 -c 2 -a 0 -i 0 -k MAC
r -t 82.569675731 -s 1 -d -1 -p CTS -e 38 -c 2 -a 0 -i 0 -k MAC
+ -t 82.569685731 -s 1 -d 3 -p cbr -e 590 -c 2 -a 0 -i 50 -k MAC 
- -t 82.569685731 -s 1 -d 3 -p cbr -e 590 -c 2 -a 0 -i 50 -k MAC
h -t 82.569685731 -s 1 -d 3 -p cbr -e 590 -c 2 -a 0 -i 50 -k MAC
r -t 82.574406360 -s 3 -d 3 -p cbr -e 532 -c 2 -a 0 -i 50 -k MAC
+ -t 82.574416360 -s 3 -d -1 -p ACK -e 38 -c 2 -a 0 -i 0 -k MAC 
- -t 82.574416360 -s 3 -d -1 -p ACK -e 38 -c 2 -a 0 -i 0 -k MAC
h -t 82.574416360 -s 3 -d -1 -p ACK -e 38 -c 2 -a 0 -i 0 -k MAC
r -t 82.574431360 -s 3 -d 3 -p cbr -e 532 -c 2 -a 0 -i 50 -k AGT
r -t 82.574720989 -s 1 -d -1 -p ACK -e 38 -c 2 -a 0 -i 0 -k MAC
+ -t 83.640169743 -s 2 -d -1 -p cbr -e 512 -c 2 -a 0 -i 51 -k AGT 
- -t 83.640169743 -s 2 -d -1 -p cbr -e 512 -c 2 -a 0 -i 51 -k AGT
h -t 83.640169743 -s 2 -d -1 -p cbr -e 512 -c 2 -a 0 -i 51 -k AGT
+ -t 83.640324743 -s 2 -d -1 -p RTS -e 44 -c 2 -a 0 -i 0 -k MAC 
- -t 83.640324743 -s 2 -d -1 -p RTS -e 44 -c 2 -a 0 -i 0 -k MAC
h -t 83.640324743 -s 2 -d -1 -p RTS -e 44 -c 2 -a 0 -i 0 -k MAC
r -t 83.640677487 -s 1 -d -1 -p RTS -e 44 -c 2 -a 0 -i 0 -k MAC
+ -t 83.640687487 -s 1 -d -1 -p CTS -e 38 -c 2 -a 0 -i 0 -k MAC 
- -t 83.640687487 -s 1 -d -1 -p CTS -e 38 -c 2 -a 0 -i 0 -k MAC
h -t 83.640687487 -s 1 -d -1 -p CTS -e 38 -c 2 -a 0 -i 0 -k MAC
r -t 83.640992231 -s 2 -d -1 -p CTS -e 38 -c 2 -a 0 -i 0 -k MAC
+ -t 83.641002231 -s 2 -d 1 -p cbr -e 590 -c 2 -a 0 -i 51 -k MAC 
- -t 83.641002231 -s 2 -d 1 -p cbr -e 590 -c 2 -a 0 -i 51 -k MAC
h -t 83.641002231 -s 2 -d 1 -p cbr -e 590 -c 2 -a 0 -i 51 -k MAC
r -t 83.645722976 -s 1 -d 1 -p cbr -e 532 -c 2 -a 0 -i 51 -k MAC
+ -t 83.645732976 -s 1 -d -1 -p ACK -e 38 -c 2 -a 0 -i 0 -k MAC 
- -t 83.645732976 -s 1 -d -1 -p ACK -e 38 -c 2 -a 0 -i 0 -k MAC
h -t 83.645732976 -s 1 -d -1 -p ACK -e 38 -c 2 -a 0 -i 0 -k MAC
r -t 83.646037720 -s 2 -d -1 -p ACK -e 38 -c 2 -a 0 -i 0 -k MAC
+ -t 83.646646976 -s 1 -d -1 -p RTS -e 44 -c 2 -a 0 -i 0 -k MAC 
- -t 83.646646976 -s 1 -d -1 -p RTS -e 44 -c 2 -a 0 -i 0 -k MAC
h -t 83.646646976 -s 1 -d -1 -p RTS -e 44 -c 2 -a 0 -i 0 -k MAC
r -t 83.646999605 -s 3 -d -1 -p RTS -e 44 -c 2 -a 0 -i 0 -k MAC
+ -t 83.647009605 -s 3 -d -1 -p CTS -e 38 -c 2 -a 0 -i 0 -k MAC 
- -t 83.647009605 -s 3 -d -1 -p CTS -e 38 -c 2 -a 0 -i 0 -k MAC
h -t 83.647009605 -s 3 -d -1 -p CTS -e 38 -c 2 -a 0 -i 0 -k MAC
r -t 83.647314234 -s 1 -d -1 -p CTS -e 38 -c 2 -a 0 -i 0 -k MAC
+ -t 83.647324234 -s 1 -d 3 -p cbr -e 590 -c 2 -a 0 -i 51 -k MAC 
- -t 83.647324234 -s 1 -d 3 -p cbr -e 590 -c 2 -a 0 -i 51 -k MAC
h -t 83.647324234 -s 1 -d 3 -p cbr -e 590 -c 2 -a 0 -i 51 -k MAC
r -t 83.652044863 -s 3 -d 3 -p cbr -e 532 -c 2 -a 0 -i 51 -k MAC
+ -t 83.652054863 -s 3 -d -1 -p ACK -e 38 -c 2 -a 0 -i 0 -k MAC 
- -t 83.652054863 -s 3 -d -1 -p ACK -e 38 -c 2 -a 0 -i 0 -k MAC
h -t 83.652054863 -s 3 -d -1 -p ACK -e 38 -c 2 -a 0 -i 0 -k MAC
r -t 83.652069863 -s 3 -d 3 -p cbr -e 532 -c 2 -a 0 -i 51 -k AGT
r -t 83.652359492 -s 1 -d -1 -p ACK -e 38 -c 2 -a 0 -i 0 -k MAC
+ -t 86.300260547 -s 2 -d -1 -p cbr -e 512 -c 2 -a 0 -i 52 -k AGT 
- -t 86.300260547 -s 2 -d -1 -p cbr -e 512 -c 2 -a 0 -i 52 -k AGT
h -t 86.300260547 -s 2 -d -1 -p cbr -e 512 -c 2 -a 0 -i 52 -k AGT
+ -t 86.300695547 -s 2 -d -1 -p RTS -e 44 -c 2 -a 0 -i 0 -k MAC 
- -t 86.300695547 -s 2 -d -1 -p RTS -e 44 -c 2 -a 0 -i 0 -k MAC
h -t 86.300695547 -s 2 -d -1 -p RTS -e 44 -c 2 -a 0 -i 0 -k MAC
r -t 86.301048292 -s 1 -d -1 -p RTS -e 44 -c 2 -a 0 -i 0 -k MAC
+ -t 86.301058292 -s 1 -d -1 -p CTS -e 38 -c 2 -a 0 -i 0 -k MAC 
- -t 86.301058292 -s 1 -d -1 -p CTS -e 38 -c 2 -a 0 -i 0 -k MAC
h -t 86.301058292 -s 1 -d -1 -p CTS -e 38 -c 2 -a 0 -i 0 -k MAC
r -t 86.301363036 -s 2 -d -1 -p CTS -e 38 -c 2 -a 0 -i 0 -k MAC
+ -t 86.301373036 -s 2 -d 1 -p cbr -e 590 -c 2 -a 0 -i 52 -k MAC 
- -t 86.301373036 -s 2 -d 1 -p cbr -e 590 -c 2 -a 0 -i 52 -k MAC
h -t 86.301373036 -s 2 -d 1 -p cbr -e 590 -c 2 -a 0 -i 52 -k MAC
r -t 86.306093780 -s 1 -d 1 -p cbr -e 532 -c 2 -a 0 -i 52 -k MAC
+ -t 86.306103780 -s 1 -d -1 -p ACK -e 38 -c 2 -a 0 -i 0 -k MAC 
- -t 86.306103780 -s 1 -d -1 -p ACK -e 38 -c 2 -a 0 -i 0 -k MAC
h -t 86.306103780 -s 1 -d -1 -p ACK -e 38 -c 2 -a 0 -i 0 -k MAC
r -t 86.306408525 -s 2 -d -1 -p ACK -e 38 -c 2 -a 0 -i 0 -k MAC
+ -t 86.306557780 -s 1 -d -1 -p RTS -e 44 -c 2 -a 0 -i 0 -k MAC 
- -t 86.306557780 -s 1 -d -1 -p RTS -e 44 -c 2 -a 0 -i 0 -k MAC
h -t 86.306557780 -s 1 -d -1 -p RTS -e 44 -c 2 -a 0 -i 0 -k MAC
r -t 86.306910410 -s 3 -d -1 -p RTS -e 44 -c 2 -a 0 -i 0 -k MAC
+ -t 86.306920410 -s 3 -d -1 -p CTS -e 38 -c 2 -a 0 -i 0 -k MAC 
- -t 86.306920410 -s 3 -d -1 -p CTS -e 38 -c 2 -a 0 -i 0 -k MAC
h -t 86.306920410 -s 3 -d -1 -p CTS -e 38 -c 2 -a 0 -i 0 -k MAC
r -t 86.307225039 -s 1 -d -1 -p CTS -e 38 -c 2 -a 0 -i 0 -k MAC
+ -t 86.307235039 -s 1 -d 3 -p cbr -e 590 -c 2 -a 0 -i 52 -k MAC 
- -t 86.307235039 -s 1 -d 3 -p cbr -e 590 -c 2 -a 0 -i 52 -k MAC
h -t 86.307235039 -s 1 -d 3 -p cbr -e 590 -c 2 -a 0 -i 52 -k MAC
r -t 86.311955668 -s 3 -d 3 -p cbr -e 532 -c 2 -a 0 -i 52 -k MAC
+ -t 86.311965668 -s 3 -d -1 -p ACK -e 38 -c 2 -a 0 -i 0 -k MAC 
- -t 86.311965668 -s 3 -d -1 -p ACK -e 38 -c 2 -a 0 -i 0 -k MAC
h -t 86.311965668 -s 3 -d -1 -p ACK -e 38 -c 2 -a 0 -i 0 -k MAC
r -t 86.311980668 -s 3 -d 3 -p cbr -e 532 -c 2 -a 0 -i 52 -k AGT
r -t 86.312270297 -s 1 -d -1 -p ACK -e 38 -c 2 -a 0 -i 0 -k MAC
+ -t 88.134319315 -s 2 -d -1 -p cbr -e 512 -c 2 -a 0 -i 53 -k AGT 
- -t 88.134319315 -s 2 -d -1 -p cbr -e 512 -c 2 -a 0 -i 53 -k AGT
h -t 88.134319315 -s 2 -d -1 -p cbr -e 512 -c 2 -a 0 -i 53 -k AGT
+ -t 88.134494315 -s 2 -d -1 -p RTS -e 44 -c 2 -a 0 -i 0 -k MAC 
- -t 88.134494315 -s 2 -d -1 -p RTS -e 44 -c 2 -a 0 -i 0 -k MAC
h -t 88.134494315 -s 2 -d -1 -p RTS -e 44 -c 2 -a 0 -i 0 -k MAC
r -t 88.134847059 -s 1 -d -1 -p RTS -e 44 -c 2 -a 0 -i 0 -k MAC
+ -t 88.134857059 -s 1 -d -1 -p CTS -e 38 -c 2 -a 0 -i 0 -k MAC 
- -t 88.134857059 -s 1 -d -1 -p CTS -e 38 -c 2 -a 0 -i 0 -k MAC
h -t 88.134857059 -s 1 -d -1 -p CTS -e 38 -c 2 -a 0 -i 0 -k MAC
r -t 88.135161804 -s 2 -d -1 -p CTS -e 38 -c 2 -a 0 -i 0 -k MAC
+ -t 88.135171804 -s 2 -d 1 -p cbr -e 590 -c 2 -a 0 -i 53 -k MAC 
- -t 88.135171804 -s 2 -d 1 -p cbr -e 590 -c 2 -a 0 -i 53 -k MAC
h -t 88.135171804 -s 2 -d 1 -p cbr -e 590 -c 2 -a 0 -i 53 -k MAC
r -t 88.139892548 -s 1 -d 1 -p cbr -e 532 -c 2 -a 0 -i 53 -k MAC
+ -t 88.139902548 -s 1 -d -1 -p ACK -e 38 -c 2 -a 0 -i 0 -k MAC 
- -t 88.139902548 -s 1 -d -1 -p ACK -e 38 -c 2 -a 0 -i 0 -k MAC
h -t 88.139902548 -s 1 -d -1 -p ACK -e 38 -c 2 -a 0 -i 0 -k MAC
r -t 88.140207292 -s 2 -d -1 -p ACK -e 38 -c 2 -a 0 -i 0 -k MAC
+ -t 88.140716548 -s 1 -d -1 -p RTS -e 44 -c 2 -a 0 -i 0 -k MAC 
- -t 88.140716548 -s 1 -d -1 -p RTS -e 44 -c 2 -a 0 -i 0 -k MAC
h -t 88.140716548 -s 1 -d -1 -p RTS -e 44 -c 2 -a 0 -i 0 -k MAC
r -t 88.141069177 -s 3 -d -1 -p RTS -e 44 -c 2 -a 0 -i 0 -k MAC
+ -t 88.141079177 -s 3 -d -1 -p CTS -e 38 -c 2 -a 0 -i 0 -k MAC 
- -t 88.141079177 -s 3 -d -1 -p CTS -e 38 -c 2 -a 0 -i 0 -k MAC
h -t 88.141079177 -s 3 -d -1 -p CTS -e 38 -c 2 -a 0 -i 0 -k MAC
r -t 88.141383806 -s 1 -d -1 -p CTS -e 38 -c 2 -a 0 -i 0 -k MAC
+ -t 88.141393806 -s 1 -d 3 -p cbr -e 590 -c 2 -a 0 -i 53 -k MAC 
- -t 88.141393806 -s 1 -d 3 -p cbr -e 590 -c 2 -a 0 -i 53 -k MAC
h -t 88.141393806 -s 1 -d 3 -p cbr -e 590 -c 2 -a 0 -i 53 -k MAC
r -t 88.146114435 -s 3 -d 3 -p cbr -e 532 -c 2 -a 0 -i 53 -k MAC
+ -t 88.146124435 -s 3 -d -1 -p ACK -e 38 -c 2 -a 0 -i 0 -k MAC 
- -t 88.146124435 -s 3 -d -1 -p ACK -e 38 -c 2 -a 0 -i 0 -k MAC
h -t 88.146124435 -s 3 -d -1 -p ACK -e 38 -c 2 -a 0 -i 0 -k MAC
r -t 88.146139435 -s 3 -d 3 -p cbr -e 532 -c 2 -a 0 -i 53 -k AGT
r -t 88.146429064 -s 1 -d -1 -p ACK -e 38 -c 2 -a 0 -i 0 -k MAC
+ -t 88.591590581 -s 4 -d -1 -p message -e 138 -c 2 -a 0 -i 54 -k MAC 
- -t 88.591590581 -s 4 -d -1 -p message -e 138 -c 2 -a 0 -i 54 -k MAC
h -t 88.591590581 -s 4 -d -1 -p message -e 138 -c 2 -a 0 -i 54 -k MAC
r -t 88.592694776 -s 2 -d -1 -p message -e 80 -c 2 -a 0 -i 54 -k MAC
r -t 88.592695036 -s 0 -d -1 -p message -e 80 -c 2 -a 0 -i 54 -k MAC
+ -t 89.812590304 -s 3 -d -1 -p message -e 138 -c 2 -a 0 -i 55 -k MAC 
- -t 89.812590304 -s 3 -d -1 -p message -e 138 -c 2 -a 0 -i 55 -k MAC
h -t 89.812590304 -s 3 -d -1 -p message -e 138 -c 2 -a 0 -i 55 -k MAC
r -t 89.813694933 -s 1 -d -1 -p message -e 80 -c 2 -a 0 -i 55 -k MAC
+ -t 90.684569711 -s 0 -d -1 -p message -e 126 -c 2 -a 0 -i 56 -k MAC 
- -t 90.684569711 -s 0 -d -1 -p message -e 126 -c 2 -a 0 -i 56 -k MAC
h -t 90.684569711 -s 0 -d -1 -p message -e 126 -c 2 -a 0 -i 56 -k MAC
r -t 90.685577994 -s 2 -d -1 -p message -e 68 -c 2 -a 0 -i 56 -k MAC