n -t * -s 0  -x 143.43750921878001 -y 94.217567273200004 -Z 0 -z 20  -v circle -c green
n -t * -s 1  -x 304.65324424678403 -y 167.07632596983501 -Z 0 -z 20  -v circle -c green
n -t * -s 2  -x 81.810723227699 -y 152.82536050561001 -Z 0 -z 20  -v circle -c green
n -t * -s 3  -x 325.834153339995 -y 354.615563074325 -Z 0 -z 20  -v circle -c green
n -t * -s 4  -x 23.768638624379001 -y 159.50938100993099 -Z 0 -z 20  -v circle -c green
V -t * -v 1.0a5 -a 0
W -t * -x 670 -y 670
A -t * -n 1 -p 0 -o 0x7fffffff -c 30 -a 1
A -t * -h 1 -m 1073741823 -s 0
+ -t 82.557023746 -s 2 -d -1 -p cbr -e 512 -c 2 -a 0 -i 0 -k AGT 
- -t 82.557023746 -s 2 -d -1 -p cbr -e 512 -c 2 -a 0 -i 0 -k AGT
h -t 82.557023746 -s 2 -d -1 -p cbr -e 512 -c 2 -a 0 -i 0 -k AGT
+ -t 82.563764707 -s 2 -d -1 -p DSR -e 90 -c 2 -a 0 -i 1 -k MAC 
- -t 82.563764707 -s 2 -d -1 -p DSR -e 90 -c 2 -a 0 -i 1 -k MAC
h -t 82.563764707 -s 2 -d -1 -p DSR -e 90 -c 2 -a 0 -i 1 -k MAC
r -t 82.564484902 -s 4 -d -1 -p DSR -e 32 -c 2 -a 0 -i 1 -k MAC
r -t 82.564484990 -s 0 -d -1 -p DSR -e 32 -c 2 -a 0 -i 1 -k MAC
r -t 82.564485451 -s 1 -d -1 -p DSR -e 32 -c 2 -a 0 -i 1 -k MAC
+ -t 82.629395469 -s 2 -d -1 -p DSR -e 90 -c 2 -a 0 -i 3 -k MAC 
- -t 82.629395469 -s 2 -d -1 -p DSR -e 90 -c 2 -a 0 -i 3 -k MAC
h -t 82.629395469 -s 2 -d -1 -p DSR -e 90 -c 2 -a 0 -i 3 -k MAC
r -t 82.630115664 -s 4 -d -1 -p DSR -e 32 -c 2 -a 0 -i 3 -k MAC
r -t 82.630115753 -s 0 -d -1 -p DSR -e 32 -c 2 -a 0 -i 3 -k MAC
r -t 82.630116213 -s 1 -d -1 -p DSR -e 32 -c 2 -a 0 -i 3 -k MAC
+ -t 82.631093567 -s 1 -d -1 -p DSR -e 106 -c 2 -a 0 -i 3 -k MAC 
- -t 82.631093567 -s 1 -d -1 -p DSR -e 106 -c 2 -a 0 -i 3 -k MAC
h -t 82.631093567 -s 1 -d -1 -p DSR -e 106 -c 2 -a 0 -i 3 -k MAC
r -t 82.631942156 -s 0 -d -1 -p DSR -e 48 -c 2 -a 0 -i 3 -k MAC
r -t 82.631942196 -s 3 -d -1 -p DSR -e 48 -c 2 -a 0 -i 3 -k MAC
r -t 82.631942311 -s 2 -d -1 -p DSR -e 48 -c 2 -a 0 -i 3 -k MAC
+ -t 82.632456503 -s 4 -d -1 -p DSR -e 106 -c 2 -a 0 -i 3 -k MAC 
- -t 82.632456503 -s 4 -d -1 -p DSR -e 106 -c 2 -a 0 -i 3 -k MAC
h -t 82.632456503 -s 4 -d -1 -p DSR -e 106 -c 2 -a 0 -i 3 -k MAC
r -t 82.633304698 -s 2 -d -1 -p DSR -e 48 -c 2 -a 0 -i 3 -k MAC
r -t 82.633304958 -s 0 -d -1 -p DSR -e 48 -c 2 -a 0 -i 3 -k MAC
+ -t 82.633414958 -s 0 -d -1 -p DSR -e 106 -c 2 -a 0 -i 3 -k MAC 
- -t 82.633414958 -s 0 -d -1 -p DSR -e 106 -c 2 -a 0 -i 3 -k MAC
h -t 82.633414958 -s 0 -d -1 -p DSR -e 106 -c 2 -a 0 -i 3 -k MAC
r -t 82.634263241 -s 2 -d -1 -p DSR -e 48 -c 2 -a 0 -i 3 -k MAC
r -t 82.634263412 -s 4 -d -1 -p DSR -e 48 -c 2 -a 0 -i 3 -k MAC
r -t 82.634263547 -s 1 -d -1 -p DSR -e 48 -c 2 -a 0 -i 3 -k MAC
+ -t 82.636096658 -s 3 -d -1 -p ARP -e 86 -c 2 -a 0 -i 0 -k MAC 
- -t 82.636096658 -s 3 -d -1 -p ARP -e 86 -c 2 -a 0 -i 0 -k MAC
h -t 82.636096658 -s 3 -d -1 -p ARP -e 86 -c 2 -a 0 -i 0 -k MAC
r -t 82.636785287 -s 1 -d -1 -p ARP -e 28 -c 2 -a 0 -i 0 -k MAC
+ -t 82.636960287 -s 1 -d -1 -p RTS -e 44 -c 2 -a 0 -i 0 -k MAC 
- -t 82.636960287 -s 1 -d -1 -p RTS -e 44 -c 2 -a 0 -i 0 -k MAC
h -t 82.636960287 -s 1 -d -1 -p RTS -e 44 -c 2 -a 0 -i 0 -k MAC
r -t 82.637312916 -s 3 -d -1 -p RTS -e 44 -c 2 -a 0 -i 0 -k MAC
+ -t 82.637322916 -s 3 -d -1 -p CTS -e 38 -c 2 -a 0 -i 0 -k MAC 
- -t 82.637322916 -s 3 -d -1 -p CTS -e 38 -c 2 -a 0 -i 0 -k MAC
h -t 82.637322916 -s 3 -d -1 -p CTS -e 38 -c 2 -a 0 -i 0 -k MAC
r -t 82.637627545 -s 1 -d -1 -p CTS -e 38 -c 2 -a 0 -i 0 -k MAC
+ -t 82.637637545 -s 1 -d -1 -p ARP -e 86 -c 2 -a 0 -i 0 -k MAC 
- -t 82.637637545 -s 1 -d -1 -p ARP -e 86 -c 2 -a 0 -i 0 -k MAC
h -t 82.637637545 -s 1 -d -1 -p ARP -e 86 -c 2 -a 0 -i 0 -k MAC
r -t 82.638326174 -s 3 -d -1 -p ARP -e 28 -c 2 -a 0 -i 0 -k MAC
+ -t 82.638336174 -s 3 -d -1 -p ACK -e 38 -c 2 -a 0 -i 0 -k MAC 
- -t 82.638336174 -s 3 -d -1 -p ACK -e 38 -c 2 -a 0 -i 0 -k MAC
h -t 82.638336174 -s 3 -d -1 -p ACK -e 38 -c 2 -a 0 -i 0 -k MAC
r -t 82.638640803 -s 1 -d -1 -p ACK -e 38 -c 2 -a 0 -i 0 -k MAC
+ -t 82.638990174 -s 3 -d -1 -p RTS -e 44 -c 2 -a 0 -i 0 -k MAC 
- -t 82.638990174 -s 3 -d -1 -p RTS -e 44 -c 2 -a 0 -i 0 -k MAC
h -t 82.638990174 -s 3 -d -1 -p RTS -e 44 -c 2 -a 0 -i 0 -k MAC
r -t 82.639342803 -s 1 -d -1 -p RTS -e 44 -c 2 -a 0 -i 0 -k MAC
+ -t 82.639352803 -s 1 -d -1 -p CTS -e 38 -c 2 -a 0 -i 0 -k MAC 
- -t 82.639352803 -s 1 -d -1 -p CTS -e 38 -c 2 -a 0 -i 0 -k MAC
h -t 82.639352803 -s 1 -d -1 -p CTS -e 38 -c 2 -a 0 -i 0 -k MAC
r -t 82.639657432 -s 3 -d -1 -p CTS -e 38 -c 2 -a 0 -i 0 -k MAC
+ -t 82.639667432 -s 3 -d 1 -p DSR -e 110 -c 2 -a 0 -i 4 -k MAC 
- -t 82.639667432 -s 3 -d 1 -p DSR -e 110 -c 2 -a 0 -i 4 -k MAC
h -t 82.639667432 -s 3 -d 1 -p DSR -e 110 -c 2 -a 0 -i 4 -k MAC
r -t 82.640548062 -s 1 -d 1 -p DSR -e 52 -c 2 -a 0 -i 4 -k MAC
+ -t 82.640558062 -s 1 -d -1 -p ACK -e 38 -c 2 -a 0 -i 0 -k MAC 
- -t 82.640558062 -s 1 -d -1 -p ACK -e 38 -c 2 -a 0 -i 0 -k MAC
h -t 82.640558062 -s 1 -d -1 -p ACK -e 38 -c 2 -a 0 -i 0 -k MAC
r -t 82.640862691 -s 3 -d -1 -p ACK -e 38 -c 2 -a 0 -i 0 -k MAC
+ -t 82.641192062 -s 1 -d -1 -p ARP -e 86 -c 2 -a 0 -i 0 -k MAC 
- -t 82.641192062 -s 1 -d -1 -p ARP -e 86 -c 2 -a 0 -i 0 -k MAC
h -t 82.641192062 -s 1 -d -1 -p ARP -e 86 -c 2 -a 0 -i 0 -k MAC
r -t 82.641880651 -s 0 -d -1 -p ARP -e 28 -c 2 -a 0 -i 0 -k MAC
r -t 82.641880691 -s 3 -d -1 -p ARP -e 28 -c 2 -a 0 -i 0 -k MAC
r -t 82.641880806 -s 2 -d -1 -p ARP -e 28 -c 2 -a 0 -i 0 -k MAC
+ -t 82.642115806 -s 2 -d -1 -p RTS -e 44 -c 2 -a 0 -i 0 -k MAC 
- -t 82.642115806 -s 2 -d -1 -p RTS -e 44 -c 2 -a 0 -i 0 -k MAC
h -t 82.642115806 -s 2 -d -1 -p RTS -e 44 -c 2 -a 0 -i 0 -k MAC
r -t 82.642468550 -s 1 -d -1 -p RTS -e 44 -c 2 -a 0 -i 0 -k MAC
+ -t 82.642478550 -s 1 -d -1 -p CTS -e 38 -c 2 -a 0 -i 0 -k MAC 
- -t 82.642478550 -s 1 -d -1 -p CTS -e 38 -c 2 -a 0 -i 0 -k MAC
h -t 82.642478550 -s 1 -d -1 -p CTS -e 38 -c 2 -a 0 -i 0 -k MAC
r -t 82.642783295 -s 2 -d -1 -p CTS -e 38 -c 2 -a 0 -i 0 -k MAC
+ -t 82.642793295 -s 2 -d -1 -p ARP -e 86 -c 2 -a 0 -i 0 -k MAC 
- -t 82.642793295 -s 2 -d -1 -p ARP -e 86 -c 2 -a 0 -i 0 -k MAC
h -t 82.642793295 -s 2 -d -1 -p ARP -e 86 -c 2 -a 0 -i 0 -k MAC
r -t 82.643482039 -s 1 -d -1 -p ARP -e 28 -c 2 -a 0 -i 0 -k MAC
+ -t 82.643492039 -s 1 -d -1 -p ACK -e 38 -c 2 -a 0 -i 0 -k MAC 
- -t 82.643492039 -s 1 -d -1 -p ACK -e 38 -c 2 -a 0 -i 0 -k MAC
h -t 82.643492039 -s 1 -d -1 -p ACK -e 38 -c 2 -a 0 -i 0 -k MAC
r -t 82.643796783 -s 2 -d -1 -p ACK -e 38 -c 2 -a 0 -i 0 -k MAC
+ -t 82.644206039 -s 1 -d -1 -p RTS -e 44 -c 2 -a 0 -i 0 -k MAC 
- -t 82.644206039 -s 1 -d -1 -p RTS -e 44 -c 2 -a 0 -i 0 -k MAC
h -t 82.644206039 -s 1 -d -1 -p RTS -e 44 -c 2 -a 0 -i 0 -k MAC
r -t 82.644558783 -s 2 -d -1 -p RTS -e 44 -c 2 -a 0 -i 0 -k MAC
+ -t 82.644568783 -s 2 -d -1 -p CTS -e 38 -c 2 -a 0 -i 0 -k MAC 
- -t 82.644568783 -s 2 -d -1 -p CTS -e 38 -c 2 -a 0 -i 0 -k MAC
h -t 82.644568783 -s 2 -d -1 -p CTS -e 38 -c 2 -a 0 -i 0 -k MAC
r -t 82.644873528 -s 1 -d -1 -p CTS -e 38 -c 2 -a 0 -i 0 -k MAC
+ -t 82.644883528 -s 1 -d 2 -p DSR -e 110 -c 2 -a 0 -i 4 -k MAC 
- -t 82.644883528 -s 1 -d 2 -p DSR -e 110 -c 2 -a 0 -i 4 -k MAC
h -t 82.644883528 -s 1 -d 2 -p DSR -e 110 -c 2 -a 0 -i 4 -k MAC
r -t 82.645764272 -s 2 -d 2 -p DSR -e 52 -c 2 -a 0 -i 4 -k MAC
+ -t 82.645774272 -s 2 -d -1 -p ACK -e 38 -c 2 -a 0 -i 0 -k MAC 
- -t 82.645774272 -s 2 -d -1 -p ACK -e 38 -c 2 -a 0 -i 0 -k MAC
h -t 82.645774272 -s 2 -d -1 -p ACK -e 38 -c 2 -a 0 -i 0 -k MAC
r -t 82.646079016 -s 1 -d -1 -p ACK -e 38 -c 2 -a 0 -i 0 -k MAC
+ -t 82.646328272 -s 2 -d -1 -p RTS -e 44 -c 2 -a 0 -i 0 -k MAC 
- -t 82.646328272 -s 2 -d -1 -p RTS -e 44 -c 2 -a 0 -i 0 -k MAC
h -t 82.646328272 -s 2 -d -1 -p RTS -e 44 -c 2 -a 0 -i 0 -k MAC
r -t 82.646681016 -s 1 -d -1 -p RTS -e 44 -c 2 -a 0 -i 0 -k MAC
+ -t 82.646691016 -s 1 -d -1 -p CTS -e 38 -c 2 -a 0 -i 0 -k MAC 
- -t 82.646691016 -s 1 -d -1 -p CTS -e 38 -c 2 -a 0 -i 0 -k MAC
h -t 82.646691016 -s 1 -d -1 -p CTS -e 38 -c 2 -a 0 -i 0 -k MAC
r -t 82.646995760 -s 2 -d -1 -p CTS -e 38 -c 2 -a 0 -i 0 -k MAC
+ -t 82.647005760 -s 2 -d 1 -p cbr -e 610 -c 2 -a 0 -i 0 -k MAC 
- -t 82.647005760 -s 2 -d 1 -p cbr -e 610 -c 2 -a 0 -i 0 -k MAC
h -t 82.647005760 -s 2 -d 1 -p cbr -e 610 -c 2 -a 0 -i 0 -k MAC
r -t 82.651886505 -s 1 -d 1 -p cbr -e 552 -c 2 -a 0 -i 0 -k MAC
+ -t 82.651896505 -s 1 -d -1 -p ACK -e 38 -c 2 -a 0 -i 0 -k MAC 
- -t 82.651896505 -s 1 -d -1 -p ACK -e 38 -c 2 -a 0 -i 0 -k MAC
h -t 82.651896505 -s 1 -d -1 -p ACK -e 38 -c 2 -a 0 -i 0 -k MAC
r -t 82.652201249 -s 2 -d -1 -p ACK -e 38 -c 2 -a 0 -i 0 -k MAC
+ -t 82.652790505 -s 1 -d -1 -p RTS -e 44 -c 2 -a 0 -i 0 -k MAC 
- -t 82.652790505 -s 1 -d -1 -p RTS -e 44 -c 2 -a 0 -i 0 -k MAC
h -t 82.652790505 -s 1 -d -1 -p RTS -e 44 -c 2 -a 0 -i 0 -k MAC
r -t 82.653143134 -s 3 -d -1 -p RTS -e 44 -c 2 -a 0 -i 0 -k MAC
+ -t 82.653153134 -s 3 -d -1 -p CTS -e 38 -c 2 -a 0 -i 0 -k MAC 
- -t 82.653153134 -s 3 -d -1 -p CTS -e 38 -c 2 -a 0 -i 0 -k MAC
h -t 82.653153134 -s 3 -d -1 -p CTS -e 38 -c 2 -a 0 -i 0 -k MAC
r -t 82.653457763 -s 1 -d -1 -p CTS -e 38 -c 2 -a 0 -i 0 -k MAC
+ -t 82.653467763 -s 1 -d 3 -p cbr -e 610 -c 2 -a 0 -i 0 -k MAC 
- -t 82.653467763 -s 1 -d 3 -p cbr -e 610 -c 2 -a 0 -i 0 -k MAC
h -t 82.653467763 -s 1 -d 3 -p cbr -e 610 -c 2 -a 0 -i 0 -k MAC
r -t 82.658348392 -s 3 -d 3 -p cbr -e 552 -c 2 -a 0 -i 0 -k MAC
+ -t 82.658358392 -s 3 -d -1 -p ACK -e 38 -c 2 -a 0 -i 0 -k MAC 
- -t 82.658358392 -s 3 -d -1 -p ACK -e 38 -c 2 -a 0 -i 0 -k MAC
h -t 82.658358392 -s 3 -d -1 -p ACK -e 38 -c 2 -a 0 -i 0 -k MAC
r -t 82.658373392 -s 3 -d 3 -p cbr -e 512 -c 2 -a 0 -i 0 -k AGT
r -t 82.658663021 -s 1 -d -1 -p ACK -e 38 -c 2 -a 0 -i 0 -k MAC
+ -t 84.854630450 -s 2 -d -1 -p cbr -e 512 -c 2 -a 0 -i 5 -k AGT 
- -t 84.854630450 -s 2 -d -1 -p cbr -e 512 -c 2 -a 0 -i 5 -k AGT
h -t 84.854630450 -s 2 -d -1 -p cbr -e 512 -c 2 -a 0 -i 5 -k AGT
+ -t 84.854905450 -s 2 -d -1 -p RTS -e 44 -c 2 -a 0 -i 0 -k MAC 
- -t 84.854905450 -s 2 -d -1 -p RTS -e 44 -c 2 -a 0 -i 0 -k MAC
h -t 84.854905450 -s 2 -d -1 -p RTS -e 44 -c 2 -a 0 -i 0 -k MAC
r -t 84.855258194 -s 1 -d -1 -p RTS -e 44 -c 2 -a 0 -i 0 -k MAC
+ -t 84.855268194 -s 1 -d -1 -p CTS -e 38 -c 2 -a 0 -i 0 -k MAC 
- -t 84.855268194 -s 1 -d -1 -p CTS -e 38 -c 2 -a 0 -i 0 -k MAC
h -t 84.855268194 -s 1 -d -1 -p CTS -e 38 -c 2 -a 0 -i 0 -k MAC
r -t 84.855572938 -s 2 -d -1 -p CTS -e 38 -c 2 -a 0 -i 0 -k MAC
+ -t 84.855582938 -s 2 -d 1 -p cbr -e 610 -c 2 -a 0 -i 5 -k MAC 
- -t 84.855582938 -s 2 -d 1 -p cbr -e 610 -c 2 -a 0 -i 5 -k MAC
h -t 84.855582938 -s 2 -d 1 -p cbr -e 610 -c 2 -a 0 -i 5 -k MAC
r -t 84.860463683 -s 1 -d 1 -p cbr -e 552 -c 2 -a 0 -i 5 -k MAC
+ -t 84.860473683 -s 1 -d -1 -p ACK -e 38 -c 2 -a 0 -i 0 -k MAC 
- -t 84.860473683 -s 1 -d -1 -p ACK -e 38 -c 2 -a 0 -i 0 -k MAC
h -t 84.860473683 -s 1 -d -1 -p ACK -e 38 -c 2 -a 0 -i 0 -k MAC
r -t 84.860778427 -s 2 -d -1 -p ACK -e 38 -c 2 -a 0 -i 0 -k MAC
+ -t 84.861107683 -s 1 -d -1 -p RTS -e 44 -c 2 -a 0 -i 0 -k MAC 
- -t 84.861107683 -s 1 -d -1 -p RTS -e 44 -c 2 -a 0 -i 0 -k MAC
h -t 84.861107683 -s 1 -d -1 -p RTS -e 44 -c 2 -a 0 -i 0 -k MAC
r -t 84.861460312 -s 3 -d -1 -p RTS -e 44 -c 2 -a 0 -i 0 -k MAC
+ -t 84.861470312 -s 3 -d -1 -p CTS -e 38 -c 2 -a 0 -i 0 -k MAC 
- -t 84.861470312 -s 3 -d -1 -p CTS -e 38 -c 2 -a 0 -i 0 -k MAC
h -t 84.861470312 -s 3 -d -1 -p CTS -e 38 -c 2 -a 0 -i 0 -k MAC
r -t 84.861774941 -s 1 -d -1 -p CTS -e 38 -c 2 -a 0 -i 0 -k MAC
+ -t 84.861784941 -s 1 -d 3 -p cbr -e 610 -c 2 -a 0 -i 5 -k MAC 
- -t 84.861784941 -s 1 -d 3 -p cbr -e 610 -c 2 -a 0 -i 5 -k MAC
h -t 84.861784941 -s 1 -d 3 -p cbr -e 610 -c 2 -a 0 -i 5 -k MAC
r -t 84.866665570 -s 3 -d 3 -p cbr -e 552 -c 2 -a 0 -i 5 -k MAC
+ -t 84.866675570 -s 3 -d -1 -p ACK -e 38 -c 2 -a 0 -i 0 -k MAC 
- -t 84.866675570 -s 3 -d -1 -p ACK -e 38 -c 2 -a 0 -i 0 -k MAC
h -t 84.866675570 -s 3 -d -1 -p ACK -e 38 -c 2 -a 0 -i 0 -k MAC
r -t 84.866690570 -s 3 -d 3 -p cbr -e 512 -c 2 -a 0 -i 5 -k AGT
r -t 84.866980199 -s 1 -d -1 -p ACK -e 38 -c 2 -a 0 -i 0 -k MAC
+ -t 87.320010784 -s 2 -d -1 -p cbr -e 512 -c 2 -a 0 -i 6 -k AGT 
- -t 87.320010784 -s 2 -d -1 -p cbr -e 512 -c 2 -a 0 -i 6 -k AGT
h -t 87.320010784 -s 2 -d -1 -p cbr -e 512 -c 2 -a 0 -i 6 -k AGT
+ -t 87.320325784 -s 2 -d -1 -p RTS -e 44 -c 2 -a 0 -i 0 -k MAC 
- -t 87.320325784 -s 2 -d -1 -p RTS -e 44 -c 2 -a 0 -i 0 -k MAC
h -t 87.320325784 -s 2 -d -1 -p RTS -e 44 -c 2 -a 0 -i 0 -k MAC
r -t 87.320678528 -s 1 -d -1 -p RTS -e 44 -c 2 -a 0 -i 0 -k MAC
+ -t 87.320688528 -s 1 -d -1 -p CTS -e 38 -c 2 -a 0 -i 0 -k MAC 
- -t 87.320688528 -s 1 -d -1 -p CTS -e 38 -c 2 -a 0 -i 0 -k MAC
h -t 87.320688528 -s 1 -d -1 -p CTS -e 38 -c 2 -a 0 -i 0 -k MAC
r -t 87.320993272 -s 2 -d -1 -p CTS -e 38 -c 2 -a 0 -i 0 -k MAC
+ -t 87.321003272 -s 2 -d 1 -p cbr -e 610 -c 2 -a 0 -i 6 -k MAC 
- -t 87.321003272 -s 2 -d 1 -p cbr -e 610 -c 2 -a 0 -i 6 -k MAC
h -t 87.321003272 -s 2 -d 1 -p cbr -e 610 -c 2 -a 0 -i 6 -k MAC
r -t 87.325884017 -s 1 -d 1 -p cbr -e 552 -c 2 -a 0 -i 6 -k MAC
+ -t 87.325894017 -s 1 -d -1 -p ACK -e 38 -c 2 -a 0 -i 0 -k MAC 
- -t 87.325894017 -s 1 -d -1 -p ACK -e 38 -c 2 -a 0 -i 0 -k MAC
h -t 87.325894017 -s 1 -d -1 -p ACK -e 38 -c 2 -a 0 -i 0 -k MAC
r -t 87.326198761 -s 2 -d -1 -p ACK -e 38 -c 2 -a 0 -i 0 -k MAC
+ -t 87.326308017 -s 1 -d -1 -p RTS -e 44 -c 2 -a 0 -i 0 -k MAC 
- -t 87.326308017 -s 1 -d -1 -p RTS -e 44 -c 2 -a 0 -i 0 -k MAC
h -t 87.326308017 -s 1 -d -1 -p RTS -e 44 -c 2 -a 0 -i 0 -k MAC
r -t 87.326660646 -s 3 -d -1 -p RTS -e 44 -c 2 -a 0 -i 0 -k MAC
+ -t 87.326670646 -s 3 -d -1 -p CTS -e 38 -c 2 -a 0 -i 0 -k MAC 
- -t 87.326670646 -s 3 -d -1 -p CTS -e 38 -c 2 -a 0 -i 0 -k MAC
h -t 87.326670646 -s 3 -d -1 -p CTS -e 38 -c 2 -a 0 -i 0 -k MAC
r -t 87.326975275 -s 1 -d -1 -p CTS -e 38 -c 2 -a 0 -i 0 -k MAC
+ -t 87.326985275 -s 1 -d 3 -p cbr -e 610 -c 2 -a 0 -i 6 -k MAC 
- -t 87.326985275 -s 1 -d 3 -p cbr -e 610 -c 2 -a 0 -i 6 -k MAC
h -t 87.326985275 -s 1 -d 3 -p cbr -e 610 -c 2 -a 0 -i 6 -k MAC
r -t 87.331865904 -s 3 -d 3 -p cbr -e 552 -c 2 -a 0 -i 6 -k MAC
+ -t 87.331875904 -s 3 -d -1 -p ACK -e 38 -c 2 -a 0 -i 0 -k MAC 
- -t 87.331875904 -s 3 -d -1 -p ACK -e 38 -c 2 -a 0 -i 0 -k MAC
h -t 87.331875904 -s 3 -d -1 -p ACK -e 38 -c 2 -a 0 -i 0 -k MAC
r -t 87.331890904 -s 3 -d 3 -p cbr -e 512 -c 2 -a 0 -i 6 -k AGT
r -t 87.332180533 -s 1 -d -1 -p ACK -e 38 -c 2 -a 0 -i 0 -k MAC
+ -t 89.295607861 -s 2 -d -1 -p cbr -e 512 -c 2 -a 0 -i 7 -k AGT 
- -t 89.295607861 -s 2 -d -1 -p cbr -e 512 -c 2 -a 0 -i 7 -k AGT
h -t 89.295607861 -s 2 -d -1 -p cbr -e 512 -c 2 -a 0 -i 7 -k AGT
+ -t 89.295722861 -s 2 -d -1 -p RTS -e 44 -c 2 -a 0 -i 0 -k MAC 
- -t 89.295722861 -s 2 -d -1 -p RTS -e 44 -c 2 -a 0 -i 0 -k MAC
h -t 89.295722861 -s 2 -d -1 -p RTS -e 44 -c 2 -a 0 -i 0 -k MAC
r -t 89.296075606 -s 1 -d -1 -p RTS -e 44 -c 2 -a 0 -i 0 -k MAC
+ -t 89.296085606 -s 1 -d -1 -p CTS -e 38 -c 2 -a 0 -i 0 -k MAC 
- -t 89.296085606 -s 1 -d -1 -p CTS -e 38 -c 2 -a 0 -i 0 -k MAC
h -t 89.296085606 -s 1 -d -1 -p CTS -e 38 -c 2 -a 0 -i 0 -k MAC
r -t 89.296390350 -s 2 -d -1 -p CTS -e 38 -c 2 -a 0 -i 0 -k MAC
+ -t 89.296400350 -s 2 -d 1 -p cbr -e 590 -c 2 -a 0 -i 7 -k MAC 
- -t 89.296400350 -s 2 -d 1 -p cbr -e 590 -c 2 -a 0 -i 7 -k MAC
h -t 89.296400350 -s 2 -d 1 -p cbr -e 590 -c 2 -a 0 -i 7 -k MAC
r -t 89.301121094 -s 1 -d 1 -p cbr -e 532 -c 2 -a 0 -i 7 -k MAC
+ -t 89.301131094 -s 1 -d -1 -p ACK -e 38 -c 2 -a 0 -i 0 -k MAC 
- -t 89.301131094 -s 1 -d -1 -p ACK -e 38 -c 2 -a 0 -i 0 -k MAC
h -t 89.301131094 -s 1 -d -1 -p ACK -e 38 -c 2 -a 0 -i 0 -k MAC
r -t 89.301435839 -s 2 -d -1 -p ACK -e 38 -c 2 -a 0 -i 0 -k MAC
+ -t 89.302005094 -s 1 -d -1 -p RTS -e 44 -c 2 -a 0 -i 0 -k MAC 
- -t 89.302005094 -s 1 -d -1 -p RTS -e 44 -c 2 -a 0 -i 0 -k MAC
h -t 89.302005094 -s 1 -d -1 -p RTS -e 44 -c 2 -a 0 -i 0 -k MAC
r -t 89.302357723 -s 3 -d -1 -p RTS -e 44 -c 2 -a 0 -i 0 -k MAC
+ -t 89.302367723 -s 3 -d -1 -p CTS -e 38 -c 2 -a 0 -i 0 -k MAC 
- -t 89.302367723 -s 3 -d -1 -p CTS -e 38 -c 2 -a 0 -i 0 -k MAC
h -t 89.302367723 -s 3 -d -1 -p CTS -e 38 -c 2 -a 0 -i 0 -k MAC
r -t 89.302672352 -s 1 -d -1 -p CTS -e 38 -c 2 -a 0 -i 0 -k MAC
+ -t 89.302682352 -s 1 -d 3 -p cbr -e 590 -c 2 -a 0 -i 7 -k MAC 
- -t 89.302682352 -s 1 -d 3 -p cbr -e 590 -c 2 -a 0 -i 7 -k MAC
h -t 89.302682352 -s 1 -d 3 -p cbr -e 590 -c 2 -a 0 -i 7 -k MAC
r -t 89.307402982 -s 3 -d 3 -p cbr -e 532 -c 2 -a 0 -i 7 -k MAC
+ -t 89.307412982 -s 3 -d -1 -p ACK -e 38 -c 2 -a 0 -i 0 -k MAC 
- -t 89.307412982 -s 3 -d -1 -p ACK -e 38 -c 2 -a 0 -i 0 -k MAC
h -t 89.307412982 -s 3 -d -1 -p ACK -e 38 -c 2 -a 0 -i 0 -k MAC
r -t 89.307427982 -s 3 -d 3 -p cbr -e 512 -c 2 -a 0 -i 7 -k AGT
r -t 89.307717611 -s 1 -d -1 -p ACK -e 38 -c 2 -a 0 -i 0 -k MAC
+ -t 90.794563045 -s 2 -d -1 -p cbr -e 512 -c 2 -a 0 -i 8 -k AGT 
- -t 90.794563045 -s 2 -d -1 -p cbr -e 512 -c 2 -a 0 -i 8 -k AGT
h -t 90.794563045 -s 2 -d -1 -p cbr -e 512 -c 2 -a 0 -i 8 -k AGT
+ -t 90.794798045 -s 2 -d -1 -p RTS -e 44 -c 2 -a 0 -i 0 -k MAC 
- -t 90.794798045 -s 2 -d -1 -p RTS -e 44 -c 2 -a 0 -i 0 -k MAC
h -t 90.794798045 -s 2 -d -1 -p RTS -e 44 -c 2 -a 0 -i 0 -k MAC
r -t 90.795150790 -s 1 -d -1 -p RTS -e 44 -c 2 -a 0 -i 0 -k MAC
+ -t 90.795160790 -s 1 -d -1 -p CTS -e 38 -c 2 -a 0 -i 0 -k MAC 
- -t 90.795160790 -s 1 -d -1 -p CTS -e 38 -c 2 -a 0 -i 0 -k MAC
h -t 90.795160790 -s 1 -d -1 -p CTS -e 38 -c 2 -a 0 -i 0 -k MAC
r -t 90.795465534 -s 2 -d -1 -p CTS -e 38 -c 2 -a 0 -i 0 -k MAC
+ -t 90.795475534 -s 2 -d 1 -p cbr -e 590 -c 2 -a 0 -i 8 -k MAC 
- -t 90.795475534 -s 2 -d 1 -p cbr -e 590 -c 2 -a 0 -i 8 -k MAC
h -t 90.795475534 -s 2 -d 1 -p cbr -e 590 -c 2 -a 0 -i 8 -k MAC
r -t 90.800196278 -s 1 -d 1 -p cbr -e 532 -c 2 -a 0 -i 8 -k MAC
+ -t 90.800206278 -s 1 -d -1 -p ACK -e 38 -c 2 -a 0 -i 0 -k MAC 
- -t 90.800206278 -s 1 -d -1 -p ACK -e 38 -c 2 -a 0 -i 0 -k MAC
h -t 90.800206278 -s 1 -d -1 -p ACK -e 38 -c 2 -a 0 -i 0 -k MAC
r -t 90.800511023 -s 2 -d -1 -p ACK -e 38 -c 2 -a 0 -i 0 -k MAC
+ -t 90.800940278 -s 1 -d -1 -p RTS -e 44 -c 2 -a 0 -i 0 -k MAC 
- -t 90.800940278 -s 1 -d -1 -p RTS -e 44 -c 2 -a 0 -i 0 -k MAC
h -t 90.800940278 -s 1 -d -1 -p RTS -e 44 -c 2 -a 0 -i 0 -k MAC
r -t 90.801292907 -s 3 -d -1 -p RTS -e 44 -c 2 -a 0 -i 0 -k MAC
+ -t 90.801302907 -s 3 -d -1 -p CTS -e 38 -c 2 -a 0 -i 0 -k MAC 
- -t 90.801302907 -s 3 -d -1 -p CTS -e 38 -c 2 -a 0 -i 0 -k MAC
h -t 90.801302907 -s 3 -d -1 -p CTS -e 38 -c 2 -a 0 -i 0 -k MAC
r -t 90.801607537 -s 1 -d -1 -p CTS -e 38 -c 2 -a 0 -i 0 -k MAC
+ -t 90.801617537 -s 1 -d 3 -p cbr -e 590 -c 2 -a 0 -i 8 -k MAC 
- -t 90.801617537 -s 1 -d 3 -p cbr -e 590 -c 2 -a 0 -i 8 -k MAC
h -t 90.801617537 -s 1 -d 3 -p cbr -e 590 -c 2 -a 0 -i 8 -k MAC
r -t 90.806338166 -s 3 -d 3 -p cbr -e 532 -c 2 -a 0 -i 8 -k MAC
+ -t 90.806348166 -s 3 -d -1 -p ACK -e 38 -c 2 -a 0 -i 0 -k MAC 
- -t 90.806348166 -s 3 -d -1 -p ACK -e 38 -c 2 -a 0 -i 0 -k MAC
h -t 90.806348166 -s 3 -d -1 -p ACK -e 38 -c 2 -a 0 -i 0 -k MAC
r -t 90.806363166 -s 3 -d 3 -p cbr -e 512 -c 2 -a 0 -i 8 -k AGT
r -t 90.806652795 -s 1 -d -1 -p ACK -e 38 -c 2 -a 0 -i 0 -k MAC
+ -t 92.549376162 -s 2 -d -1 -p cbr -e 512 -c 2 -a 0 -i 9 -k AGT 
- -t 92.549376162 -s 2 -d -1 -p cbr -e 512 -c 2 -a 0 -i 9 -k AGT
h -t 92.549376162 -s 2 -d -1 -p cbr -e 512 -c 2 -a 0 -i 9 -k AGT
+ -t 92.549871162 -s 2 -d -1 -p RTS -e 44 -c 2 -a 0 -i 0 -k MAC 
- -t 92.549871162 -s 2 -d -1 -p RTS -e 44 -c 2 -a 0 -i 0 -k MAC
h -t 92.549871162 -s 2 -d -1 -p RTS -e 44 -c 2 -a 0 -i 0 -k MAC
r -t 92.550223906 -s 1 -d -1 -p RTS -e 44 -c 2 -a 0 -i 0 -k MAC
+ -t 92.550233906 -s 1 -d -1 -p CTS -e 38 -c 2 -a 0 -i 0 -k MAC 
- -t 92.550233906 -s 1 -d -1 -p CTS -e 38 -c 2 -a 0 -i 0 -k MAC
h -t 92.550233906 -s 1 -d -1 -p CTS -e 38 -c 2 -a 0 -i 0 -k MAC
r -t 92.550538651 -s 2 -d -1 -p CTS -e 38 -c 2 -a 0 -i 0 -k MAC
+ -t 92.550548651 -s 2 -d 1 -p cbr -e 610 -c 2 -a 0 -i 9 -k MAC 
- -t 92.550548651 -s 2 -d 1 -p cbr -e 610 -c 2 -a 0 -i 9 -k MAC
h -t 92.550548651 -s 2 -d 1 -p cbr -e 610 -c 2 -a 0 -i 9 -k MAC
r -t 92.555429395 -s 1 -d 1 -p cbr -e 552 -c 2 -a 0 -i 9 -k MAC
+ -t 92.555439395 -s 1 -d -1 -p ACK -e 38 -c 2 -a 0 -i 0 -k MAC 
- -t 92.555439395 -s 1 -d -1 -p ACK -e 38 -c 2 -a 0 -i 0 -k MAC
h -t 92.555439395 -s 1 -d -1 -p ACK -e 38 -c 2 -a 0 -i 0 -k MAC
r -t 92.555744139 -s 2 -d -1 -p ACK -e 38 -c 2 -a 0 -i 0 -k MAC
+ -t 92.556313395 -s 1 -d -1 -p RTS -e 44 -c 2 -a 0 -i 0 -k MAC 
- -t 92.556313395 -s 1 -d -1 -p RTS -e 44 -c 2 -a 0 -i 0 -k MAC
h -t 92.556313395 -s 1 -d -1 -p RTS -e 44 -c 2 -a 0 -i 0 -k MAC
r -t 92.556666024 -s 3 -d -1 -p RTS -e 44 -c 2 -a 0 -i 0 -k MAC
+ -t 92.556676024 -s 3 -d -1 -p CTS -e 38 -c 2 -a 0 -i 0 -k MAC 
- -t 92.556676024 -s 3 -d -1 -p CTS -e 38 -c 2 -a 0 -i 0 -k MAC
h -t 92.556676024 -s 3 -d -1 -p CTS -e 38 -c 2 -a 0 -i 0 -k MAC
r -t 92.556980653 -s 1 -d -1 -p CTS -e 38 -c 2 -a 0 -i 0 -k MAC
+ -t 92.556990653 -s 1 -d 3 -p cbr -e 610 -c 2 -a 0 -i 9 -k MAC 
- -t 92.556990653 -s 1 -d 3 -p cbr -e 610 -c 2 -a 0 -i 9 -k MAC
h -t 92.556990653 -s 1 -d 3 -p cbr -e 610 -c 2 -a 0 -i 9 -k MAC
r -t 92.561871282 -s 3 -d 3 -p cbr -e 552 -c 2 -a 0 -i 9 -k MAC
+ -t 92.561881282 -s 3 -d -1 -p ACK -e 38 -c 2 -a 0 -i 0 -k MAC 
- -t 92.561881282 -s 3 -d -1 -p ACK -e 38 -c 2 -a 0 -i 0 -k MAC
h -t 92.561881282 -s 3 -d -1 -p ACK -e 38 -c 2 -a 0 -i 0 -k MAC
r -t 92.561896282 -s 3 -d 3 -p cbr -e 512 -c 2 -a 0 -i 9 -k AGT
r -t 92.562185912 -s 1 -d -1 -p ACK -e 38 -c 2 -a 0 -i 0 -k MAC
+ -t 93.663277831 -s 2 -d -1 -p cbr -e 512 -c 2 -a 0 -i 10 -k AGT 
- -t 93.663277831 -s 2 -d -1 -p cbr -e 512 -c 2 -a 0 -i 10 -k AGT
h -t 93.663277831 -s 2 -d -1 -p cbr -e 512 -c 2 -a 0 -i 10 -k AGT
+ -t 93.663812831 -s 2 -d -1 -p RTS -e 44 -c 2 -a 0 -i 0 -k MAC 
- -t 93.663812831 -s 2 -d -1 -p RTS -e 44 -c 2 -a 0 -i 0 -k MAC
h -t 93.663812831 -s 2 -d -1 -p RTS -e 44 -c 2 -a 0 -i 0 -k MAC
r -t 93.664165575 -s 1 -d -1 -p RTS -e 44 -c 2 -a 0 -i 0 -k MAC
+ -t 93.664175575 -s 1 -d -1 -p CTS -e 38 -c 2 -a 0 -i 0 -k MAC 
- -t 93.664175575 -s 1 -d -1 -p CTS -e 38 -c 2 -a 0 -i 0 -k MAC
h -t 93.664175575 -s 1 -d -1 -p CTS -e 38 -c 2 -a 0 -i 0 -k MAC
r -t 93.664480319 -s 2 -d -1 -p CTS -e 38 -c 2 -a 0 -i 0 -k MAC
+ -t 93.664490319 -s 2 -d 1 -p cbr -e 590 -c 2 -a 0 -i 10 -k MAC 
- -t 93.664490319 -s 2 -d 1 -p cbr -e 590 -c 2 -a 0 -i 10 -k MAC
h -t 93.664490319 -s 2 -d 1 -p cbr -e 590 -c 2 -a 0 -i 10 -k MAC
r -t 93.669211064 -s 1 -d 1 -p cbr -e 532 -c 2 -a 0 -i 10 -k MAC
+ -t 93.669221064 -s 1 -d -1 -p ACK -e 38 -c 2 -a 0 -i 0 -k MAC 
- -t 93.669221064 -s 1 -d -1 -p ACK -e 38 -c 2 -a 0 -i 0 -k MAC
h -t 93.669221064 -s 1 -d -1 -p ACK -e 38 -c 2 -a 0 -i 0 -k MAC
r -t 93.669525808 -s 2 -d -1 -p ACK -e 38 -c 2 -a 0 -i 0 -k MAC
+ -t 93.669975064 -s 1 -d -1 -p RTS -e 44 -c 2 -a 0 -i 0 -k MAC 
- -t 93.669975064 -s 1 -d -1 -p RTS -e 44 -c 2 -a 0 -i 0 -k MAC
h -t 93.669975064 -s 1 -d -1 -p RTS -e 44 -c 2 -a 0 -i 0 -k MAC
r -t 93.670327693 -s 3 -d -1 -p RTS -e 44 -c 2 -a 0 -i 0 -k MAC
+ -t 93.670337693 -s 3 -d -1 -p CTS -e 38 -c 2 -a 0 -i 0 -k MAC 
- -t 93.670337693 -s 3 -d -1 -p CTS -e 38 -c 2 -a 0 -i 0 -k MAC
h -t 93.670337693 -s 3 -d -1 -p CTS -e 38 -c 2 -a 0 -i 0 -k MAC
r -t 93.670642322 -s 1 -d -1 -p CTS -e 38 -c 2 -a 0 -i 0 -k MAC
+ -t 93.670652322 -s 1 -d 3 -p cbr -e 590 -c 2 -a 0 -i 10 -k MAC 
- -t 93.670652322 -s 1 -d 3 -p cbr -e 590 -c 2 -a 0 -i 10 -k MAC
h -t 93.670652322 -s 1 -d 3 -p cbr -e 590 -c 2 -a 0 -i 10 -k MAC
r -t 93.675372951 -s 3 -d 3 -p cbr -e 532 -c 2 -a 0 -i 10 -k MAC
+ -t 93.675382951 -s 3 -d -1 -p ACK -e 38 -c 2 -a 0 -i 0 -k MAC 
- -t 93.675382951 -s 3 -d -1 -p ACK -e 38 -c 2 -a 0 -i 0 -k MAC
h -t 93.675382951 -s 3 -d -1 -p ACK -e 38 -c 2 -a 0 -i 0 -k MAC
r -t 93.675397951 -s 3 -d 3 -p cbr -e 512 -c 2 -a 0 -i 10 -k AGT
r -t 93.675687580 -s 1 -d -1 -p ACK -e 38 -c 2 -a 0 -i 0 -k MAC
+ -t 95.037456991 -s 2 -d -1 -p cbr -e 512 -c 2 -a 0 -i 11 -k AGT 
- -t 95.037456991 -s 2 -d -1 -p cbr -e 512 -c 2 -a 0 -i 11 -k AGT
h -t 95.037456991 -s 2 -d -1 -p cbr -e 512 -c 2 -a 0 -i 11 -k AGT
+ -t 95.038111991 -s 2 -d -1 -p RTS -e 44 -c 2 -a 0 -i 0 -k MAC 
- -t 95.038111991 -s 2 -d -1 -p RTS -e 44 -c 2 -a 0 -i 0 -k MAC
h -t 95.038111991 -s 2 -d -1 -p RTS -e 44 -c 2 -a 0 -i 0 -k MAC
r -t 95.038464736 -s 1 -d -1 -p RTS -e 44 -c 2 -a 0 -i 0 -k MAC
+ -t 95.038474736 -s 1 -d -1 -p CTS -e 38 -c 2 -a 0 -i 0 -k MAC 
- -t 95.038474736 -s 1 -d -1 -p CTS -e 38 -c 2 -a 0 -i 0 -k MAC
h -t 95.038474736 -s 1 -d -1 -p CTS -e 38 -c 2 -a 0 -i 0 -k MAC
r -t 95.038779480 -s 2 -d -1 -p CTS -e 38 -c 2 -a 0 -i 0 -k MAC
+ -t 95.038789480 -s 2 -d 1 -p cbr -e 590 -c 2 -a 0 -i 11 -k MAC 
- -t 95.038789480 -s 2 -d 1 -p cbr -e 590 -c 2 -a 0 -i 11 -k MAC
h -t 95.038789480 -s 2 -d 1 -p cbr -e 590 -c 2 -a 0 -i 11 -k MAC
r -t 95.043510224 -s 1 -d 1 -p cbr -e 532 -c 2 -a 0 -i 11 -k MAC
+ -t 95.043520224 -s 1 -d -1 -p ACK -e 38 -c 2 -a 0 -i 0 -k MAC 
- -t 95.043520224 -s 1 -d -1 -p ACK -e 38 -c 2 -a 0 -i 0 -k MAC
h -t 95.043520224 -s 1 -d -1 -p ACK -e 38 -c 2 -a 0 -i 0 -k MAC
r -t 95.043824969 -s 2 -d -1 -p ACK -e 38 -c 2 -a 0 -i 0 -k MAC
+ -t 95.044474224 -s 1 -d -1 -p RTS -e 44 -c 2 -a 0 -i 0 -k MAC 
- -t 95.044474224 -s 1 -d -1 -p RTS -e 44 -c 2 -a 0 -i 0 -k MAC
h -t 95.044474224 -s 1 -d -1 -p RTS -e 44 -c 2 -a 0 -i 0 -k MAC
r -t 95.044826853 -s 3 -d -1 -p RTS -e 44 -c 2 -a 0 -i 0 -k MAC
+ -t 95.044836853 -s 3 -d -1 -p CTS -e 38 -c 2 -a 0 -i 0 -k MAC 
- -t 95.044836853 -s 3 -d -1 -p CTS -e 38 -c 2 -a 0 -i 0 -k MAC
h -t 95.044836853 -s 3 -d -1 -p CTS -e 38 -c 2 -a 0 -i 0 -k MAC
r -t 95.045141483 -s 1 -d -1 -p CTS -e 38 -c 2 -a 0 -i 0 -k MAC
+ -t 95.045151483 -s 1 -d 3 -p cbr -e 590 -c 2 -a 0 -i 11 -k MAC 
- -t 95.045151483 -s 1 -d 3 -p cbr -e 590 -c 2 -a 0 -i 11 -k MAC
h -t 95.045151483 -s 1 -d 3 -p cbr -e 590 -c 2 -a 0 -i 11 -k MAC
r -t 95.049872112 -s 3 -d 3 -p cbr -e 532 -c 2 -a 0 -i 11 -k MAC
+ -t 95.049882112 -s 3 -d -1 -p ACK -e 38 -c 2 -a 0 -i 0 -k MAC 
- -t 95.049882112 -s 3 -d -1 -p ACK -e 38 -c 2 -a 0 -i 0 -k MAC
h -t 95.049882112 -s 3 -d -1 -p ACK -e 38 -c 2 -a 0 -i 0 -k MAC
r -t 95.049897112 -s 3 -d 3 -p cbr -e 512 -c 2 -a 0 -i 11 -k AGT
r -t 95.050186741 -s 1 -d -1 -p ACK -e 38 -c 2 -a 0 -i 0 -k MAC
+ -t 96.083455375 -s 2 -d -1 -p cbr -e 512 -c 2 -a 0 -i 12 -k AGT 
- -t 96.083455375 -s 2 -d -1 -p cbr -e 512 -c 2 -a 0 -i 12 -k AGT
h -t 96.083455375 -s 2 -d -1 -p cbr -e 512 -c 2 -a 0 -i 12 -k AGT
+ -t 96.084070375 -s 2 -d -1 -p RTS -e 44 -c 2 -a 0 -i 0 -k MAC 
- -t 96.084070375 -s 2 -d -1 -p RTS -e 44 -c 2 -a 0 -i 0 -k MAC
h -t 96.084070375 -s 2 -d -1 -p RTS -e 44 -c 2 -a 0 -i 0 -k MAC
r -t 96.084423119 -s 1 -d -1 -p RTS -e 44 -c 2 -a 0 -i 0 -k MAC
+ -t 96.084433119 -s 1 -d -1 -p CTS -e 38 -c 2 -a 0 -i 0 -k MAC 
- -t 96.084433119 -s 1 -d -1 -p CTS -e 38 -c 2 -a 0 -i 0 -k MAC
h -t 96.084433119 -s 1 -d -1 -p CTS -e 38 -c 2 -a 0 -i 0 -k MAC
r -t 96.084737863 -s 2 -d -1 -p CTS -e 38 -c 2 -a 0 -i 0 -k MAC
+ -t 96.084747863 -s 2 -d 1 -p cbr -e 590 -c 2 -a 0 -i 12 -k MAC 
- -t 96.084747863 -s 2 -d 1 -p cbr -e 590 -c 2 -a 0 -i 12 -k MAC
h -t 96.084747863 -s 2 -d 1 -p cbr -e 590 -c 2 -a 0 -i 12 -k MAC
r -t 96.089468608 -s 1 -d 1 -p cbr -e 532 -c 2 -a 0 -i 12 -k MAC
+ -t 96.089478608 -s 1 -d -1 -p ACK -e 38 -c 2 -a 0 -i 0 -k MAC 
- -t 96.089478608 -s 1 -d -1 -p ACK -e 38 -c 2 -a 0 -i 0 -k MAC
h -t 96.089478608 -s 1 -d -1 -p ACK -e 38 -c 2 -a 0 -i 0 -k MAC
r -t 96.089783352 -s 2 -d -1 -p ACK -e 38 -c 2 -a 0 -i 0 -k MAC
+ -t 96.090272608 -s 1 -d -1 -p RTS -e 44 -c 2 -a 0 -i 0 -k MAC 
- -t 96.090272608 -s 1 -d -1 -p RTS -e 44 -c 2 -a 0 -i 0 -k MAC
h -t 96.090272608 -s 1 -d -1 -p RTS -e 44 -c 2 -a 0 -i 0 -k MAC
r -t 96.090625237 -s 3 -d -1 -p RTS -e 44 -c 2 -a 0 -i 0 -k MAC
+ -t 96.090635237 -s 3 -d -1 -p CTS -e 38 -c 2 -a 0 -i 0 -k MAC 
- -t 96.090635237 -s 3 -d -1 -p CTS -e 38 -c 2 -a 0 -i 0 -k MAC
h -t 96.090635237 -s 3 -d -1 -p CTS -e 38 -c 2 -a 0 -i 0 -k MAC
r -t 96.090939866 -s 1 -d -1 -p CTS -e 38 -c 2 -a 0 -i 0 -k MAC
+ -t 96.090949866 -s 1 -d 3 -p cbr -e 590 -c 2 -a 0 -i 12 -k MAC 
- -t 96.090949866 -s 1 -d 3 -p cbr -e 590 -c 2 -a 0 -i 12 -k MAC
h -t 96.090949866 -s 1 -d 3 -p cbr -e 590 -c 2 -a 0 -i 12 -k MAC
r -t 96.095670495 -s 3 -d 3 -p cbr -e 532 -c 2 -a 0 -i 12 -k MAC
+ -t 96.095680495 -s 3 -d -1 -p ACK -e 38 -c 2 -a 0 -i 0 -k MAC 
- -t 96.095680495 -s 3 -d -1 -p ACK -e 38 -c 2 -a 0 -i 0 -k MAC
h -t 96.095680495 -s 3 -d -1 -p ACK -e 38 -c 2 -a 0 -i 0 -k MAC
r -t 96.095695495 -s 3 -d 3 -p cbr -e 512 -c 2 -a 0 -i 12 -k AGT
r -t 96.095985124 -s 1 -d -1 -p ACK -e 38 -c 2 -a 0 -i 0 -k MAC
+ -t 98.062104769 -s 2 -d -1 -p cbr -e 512 -c 2 -a 0 -i 13 -k AGT 
- -t 98.062104769 -s 2 -d -1 -p cbr -e 512 -c 2 -a 0 -i 13 -k AGT
h -t 98.062104769 -s 2 -d -1 -p cbr -e 512 -c 2 -a 0 -i 13 -k AGT
+ -t 98.062439769 -s 2 -d -1 -p RTS -e 44 -c 2 -a 0 -i 0 -k MAC 
- -t 98.062439769 -s 2 -d -1 -p RTS -e 44 -c 2 -a 0 -i 0 -k MAC
h -t 98.062439769 -s 2 -d -1 -p RTS -e 44 -c 2 -a 0 -i 0 -k MAC
r -t 98.062792513 -s 1 -d -1 -p RTS -e 44 -c 2 -a 0 -i 0 -k MAC
+ -t 98.062802513 -s 1 -d -1 -p CTS -e 38 -c 2 -a 0 -i 0 -k MAC 
- -t 98.062802513 -s 1 -d -1 -p CTS -e 38 -c 2 -a 0 -i 0 -k MAC
h -t 98.062802513 -s 1 -d -1 -p CTS -e 38 -c 2 -a 0 -i 0 -k MAC
r -t 98.063107258 -s 2 -d -1 -p CTS -e 38 -c 2 -a 0 -i 0 -k MAC
+ -t 98.063117258 -s 2 -d 1 -p cbr -e 610 -c 2 -a 0 -i 13 -k MAC 
- -t 98.063117258 -s 2 -d 1 -p cbr -e 610 -c 2 -a 0 -i 13 -k MAC
h -t 98.063117258 -s 2 -d 1 -p cbr -e 610 -c 2 -a 0 -i 13 -k MAC
r -t 98.067998002 -s 1 -d 1 -p cbr -e 552 -c 2 -a 0 -i 13 -k MAC
+ -t 98.068008002 -s 1 -d -1 -p ACK -e 38 -c 2 -a 0 -i 0 -k MAC 
- -t 98.068008002 -s 1 -d -1 -p ACK -e 38 -c 2 -a 0 -i 0 -k MAC
h -t 98.068008002 -s 1 -d -1 -p ACK -e 38 -c 2 -a 0 -i 0 -k MAC
r -t 98.068312746 -s 2 -d -1 -p ACK -e 38 -c 2 -a 0 -i 0 -k MAC
+ -t 98.068702002 -s 1 -d -1 -p RTS -e 44 -c 2 -a 0 -i 0 -k MAC 
- -t 98.068702002 -s 1 -d -1 -p RTS -e 44 -c 2 -a 0 -i 0 -k MAC
h -t 98.068702002 -s 1 -d -1 -p RTS -e 44 -c 2 -a 0 -i 0 -k MAC
r -t 98.069054631 -s 3 -d -1 -p RTS -e 44 -c 2 -a 0 -i 0 -k MAC
+ -t 98.069064631 -s 3 -d -1 -p CTS -e 38 -c 2 -a 0 -i 0 -k MAC 
- -t 98.069064631 -s 3 -d -1 -p CTS -e 38 -c 2 -a 0 -i 0 -k MAC
h -t 98.069064631 -s 3 -d -1 -p CTS -e 38 -c 2 -a 0 -i 0 -k MAC
r -t 98.069369260 -s 1 -d -1 -p CTS -e 38 -c 2 -a 0 -i 0 -k MAC
+ -t 98.069379260 -s 1 -d 3 -p cbr -e 610 -c 2 -a 0 -i 13 -k MAC 
- -t 98.069379260 -s 1 -d 3 -p cbr -e 610 -c 2 -a 0 -i 13 -k MAC
h -t 98.069379260 -s 1 -d 3 -p cbr -e 610 -c 2 -a 0 -i 13 -k MAC