+ 1.6175 21 6 exp 210 ------- 0 21.1 6.1 0 0 6.00 -6.00 -9.00 9.00
- 1.6175 21 6 exp 210 ------- 0 21.1 6.1 0 0 6.00 -6.00 -9.00 9.00
+ 1.6197 20 5 exp 210 ------- 0 20.1 5.1 0 1 5.00 -5.00 -10.00 10.00
- 1.6197 20 5 exp 210 ------- 0 20.1 5.1 0 1 5.00 -5.00 -10.00 10.00
+ 1.6342 14 29 exp 210 ------- 0 14.0 29.0 0 2 -1.00 1.00 14.00 -14.00
- 1.6342 14 29 exp 210 ------- 0 14.0 29.0 0 2 -1.00 1.00 14.00 -14.00
+ 1.6406 16 1 exp 210 ------- 0 16.1 1.1 0 3 1.00 -1.00 -14.00 14.00
- 1.6406 16 1 exp 210 ------- 0 16.1 1.1 0 3 1.00 -1.00 -14.00 14.00
+ 1.6494 6 21 exp 210 ------- 0 6.0 21.0 0 4 -9.00 9.00 6.00 -6.00
- 1.6494 6 21 exp 210 ------- 0 6.0 21.0 0 4 -9.00 9.00 6.00 -6.00
+ 1.6614 4 19 exp 210 ------- 0 4.0 19.0 0 5 -11.00 11.00 4.00 -4.00
- 1.6614 4 19 exp 210 ------- 0 4.0 19.0 0 5 -11.00 11.00 4.00 -4.00
+ 1.6721 3 18 exp 210 ------- 0 3.0 18.0 0 6 -12.00 12.00 3.00 -3.00
- 1.6721 3 18 exp 210 ------- 0 3.0 18.0 0 6 -12.00 12.00 3.00 -3.00
+ 1.6810 30 15 exp 210 ------- 0 30.1 15.1 0 7 15.00 -15.00 0.00 0.00
- 1.6810 30 15 exp 210 ------- 0 30.1 15.1 0 7 15.00 -15.00 0.00 0.00
+ 1.6958 17 2 exp 210 ------- 0 17.1 2.1 0 8 2.00 -2.00 -13.00 13.00
- 1.6958 17 2 exp 210 ------- 0 17.1 2.1 0 8 2.00 -2.00 -13.00 13.00
+ 1.7840 5 20 exp 210 ------- 0 5.0 20.0 0 9 -10.00 10.00 5.00 -5.00
- 1.7840 5 20 exp 210 ------- 0 5.0 20.0 0 9 -10.00 10.00 5.00 -5.00
+ 1.8196 23 8 exp 210 ------- 0 23.1 8.1 0 10 8.00 -8.00 -7.00 7.00
- 1.8196 23 8 exp 210 ------- 0 23.1 8.1 0 10 8.00 -8.00 -7.00 7.00
+ 1.8536 1 16 exp 210 ------- 0 1.0 16.0 0 11 -14.00 14.00 1.00 -1.00
- 1.8536 1 16 exp 210 ------- 0 1.0 16.0 0 11 -14.00 14.00 1.00 -1.00
r 1.8580 21 6 exp 210 ------- 0 21.1 6.1 0 0 6.00 -6.00 -9.00 9.00
r 1.8603 20 5 exp 210 ------- 0 20.1 5.1 0 1 5.00 -5.00 -10.00 10.00
+ 1.8636 26 11 exp 210 ------- 0 26.1 11.1 0 12 11.00 -11.00 -4.00 4.00
- 1.8636 26 11 exp 210 ------- 0 26.1 11.1 0 12 11.00 -11.00 -4.00 4.00
r 1.8753 14 29 exp 210 ------- 0 14.0 29.0 0 2 -1.00 1.00 14.00 -14.00
r 1.8817 16 1 exp 210 ------- 0 16.1 1.1 0 3 1.00 -1.00 -14.00 14.00
r 1.8899 6 21 exp 210 ------- 0 6.0 21.0 0 4 -9.00 9.00 6.00 -6.00
r 1.9021 4 19 exp 210 ------- 0 4.0 19.0 0 5 -11.00 11.00 4.00 -4.00
r 1.9129 3 18 exp 210 ------- 0 3.0 18.0 0 6 -12.00 12.00 3.00 -3.00
r 1.9224 30 15 exp 210 ------- 0 30.1 15.1 0 7 15.00 -15.00 0.00 0.00
r 1.9367 17 2 exp 210 ------- 0 17.1 2.1 0 8 2.00 -2.00 -13.00 13.00
+ 1.9417 13 28 exp 210 ------- 0 13.0 28.0 0 13 -2.00 2.00 13.00 -13.00
- 1.9417 13 28 exp 210 ------- 0 13.0 28.0 0 13 -2.00 2.00 13.00 -13.00
+ 1.9870 28 13 exp 210 ------- 0 28.1 13.1 0 14 13.00 -13.00 -2.00 2.00
- 1.9870 28 13 exp 210 ------- 0 28.1 13.1 0 14 13.00 -13.00 -2.00 2.00
+ 1.9894 9 24 exp 210 ------- 0 9.0 24.0 0 15 -6.00 6.00 9.00 -9.00
- 1.9894 9 24 exp 210 ------- 0 9.0 24.0 0 15 -6.00 6.00 9.00 -9.00
+ 2.0074 12 27 exp 210 ------- 0 12.0 27.0 0 16 -3.00 3.00 12.00 -12.00
- 2.0074 12 27 exp 210 ------- 0 12.0 27.0 0 16 -3.00 3.00 12.00 -12.00
+ 2.0113 18 3 exp 210 ------- 0 18.1 3.1 0 17 3.00 -3.00 -12.00 12.00
- 2.0113 18 3 exp 210 ------- 0 18.1 3.1 0 17 3.00 -3.00 -12.00 12.00
+ 2.0129 19 4 exp 210 ------- 0 19.1 4.1 0 18 4.00 -4.00 -11.00 11.00
- 2.0129 19 4 exp 210 ------- 0 19.1 4.1 0 18 4.00 -4.00 -11.00 11.00
r 2.0246 5 20 exp 210 ------- 0 5.0 20.0 0 9 -10.00 10.00 5.00 -5.00
r 2.0601 23 8 exp 210 ------- 0 23.1 8.1 0 10 8.00 -8.00 -7.00 7.00
+ 2.0867 11 26 exp 210 ------- 0 11.0 26.0 0 19 -4.00 4.00 11.00 -11.00
- 2.0867 11 26 exp 210 ------- 0 11.0 26.0 0 19 -4.00 4.00 11.00 -11.00
r 2.0947 1 16 exp 210 ------- 0 1.0 16.0 0 11 -14.00 14.00 1.00 -1.00
r 2.1043 26 11 exp 210 ------- 0 26.1 11.1 0 12 11.00 -11.00 -4.00 4.00
+ 2.1184 29 14 exp 210 ------- 0 29.1 14.1 0 20 14.00 -14.00 -1.00 1.00
- 2.1184 29 14 exp 210 ------- 0 29.1 14.1 0 20 14.00 -14.00 -1.00 1.00
r 2.1826 13 28 exp 210 ------- 0 13.0 28.0 0 13 -2.00 2.00 13.00 -13.00
+ 2.2064 14 29 exp 210 ------- 0 14.0 29.0 1 21 -1.00 1.00 14.00 -14.00
- 2.2064 14 29 exp 210 ------- 0 14.0 29.0 1 21 -1.00 1.00 14.00 -14.00
r 2.2280 28 13 exp 210 ------- 0 28.1 13.1 0 14 13.00 -13.00 -2.00 2.00
r 2.2299 9 24 exp 210 ------- 0 9.0 24.0 0 15 -6.00 6.00 9.00 -9.00
+ 2.2300 27 12 exp 210 ------- 0 27.1 12.1 0 22 12.00 -12.00 -3.00 3.00
- 2.2300 27 12 exp 210 ------- 0 27.1 12.1 0 22 12.00 -12.00 -3.00 3.00
+ 2.2394 25 10 exp 210 ------- 0 25.1 10.1 0 23 10.00 -10.00 -5.00 5.00
- 2.2394 25 10 exp 210 ------- 0 25.1 10.1 0 23 10.00 -10.00 -5.00 5.00
+ 2.2410 30 15 exp 210 ------- 0 30.1 15.1 1 24 15.00 -15.00 0.00 0.00
- 2.2410 30 15 exp 210 ------- 0 30.1 15.1 1 24 15.00 -15.00 0.00 0.00
r 2.2482 12 27 exp 210 ------- 0 12.0 27.0 0 16 -3.00 3.00 12.00 -12.00
r 2.2521 18 3 exp 210 ------- 0 18.1 3.1 0 17 3.00 -3.00 -12.00 12.00
r 2.2536 19 4 exp 210 ------- 0 19.1 4.1 0 18 4.00 -4.00 -11.00 11.00
+ 2.2818 6 21 exp 210 ------- 0 6.0 21.0 1 25 -9.00 9.00 6.00 -6.00
- 2.2818 6 21 exp 210 ------- 0 6.0 21.0 1 25 -9.00 9.00 6.00 -6.00
+ 2.3064 21 6 exp 210 ------- 0 21.1 6.1 1 26 6.00 -6.00 -9.00 9.00
- 2.3064 21 6 exp 210 ------- 0 21.1 6.1 1 26 6.00 -6.00 -9.00 9.00
+ 2.3069 17 2 exp 210 ------- 0 17.1 2.1 1 27 2.00 -2.00 -13.00 13.00
- 2.3069 17 2 exp 210 ------- 0 17.1 2.1 1 27 2.00 -2.00 -13.00 13.00
+ 2.3236 15 30 exp 210 ------- 0 15.0 30.0 0 28 0.00 0.00 15.00 -15.00
- 2.3236 15 30 exp 210 ------- 0 15.0 30.0 0 28 0.00 0.00 15.00 -15.00
r 2.3274 11 26 exp 210 ------- 0 11.0 26.0 0 19 -4.00 4.00 11.00 -11.00
r 2.3595 29 14 exp 210 ------- 0 29.1 14.1 0 20 14.00 -14.00 -1.00 1.00
+ 2.3617 20 5 exp 210 ------- 0 20.1 5.1 1 29 5.00 -5.00 -10.00 10.00
- 2.3617 20 5 exp 210 ------- 0 20.1 5.1 1 29 5.00 -5.00 -10.00 10.00
+ 2.3753 4 19 exp 210 ------- 0 4.0 19.0 1 30 -11.00 11.00 4.00 -4.00
- 2.3753 4 19 exp 210 ------- 0 4.0 19.0 1 30 -11.00 11.00 4.00 -4.00
+ 2.3796 23 8 exp 210 ------- 0 23.1 8.1 1 31 8.00 -8.00 -7.00 7.00
- 2.3796 23 8 exp 210 ------- 0 23.1 8.1 1 31 8.00 -8.00 -7.00 7.00
+ 2.4110 5 20 exp 210 ------- 0 5.0 20.0 1 32 -10.00 10.00 5.00 -5.00
- 2.4110 5 20 exp 210 ------- 0 5.0 20.0 1 32 -10.00 10.00 5.00 -5.00
+ 2.4136 1 16 exp 210 ------- 0 1.0 16.0 1 33 -14.00 14.00 1.00 -1.00
- 2.4136 1 16 exp 210 ------- 0 1.0 16.0 1 33 -14.00 14.00 1.00 -1.00
r 2.4475 14 29 exp 210 ------- 0 14.0 29.0 1 21 -1.00 1.00 14.00 -14.00
r 2.4708 27 12 exp 210 ------- 0 27.1 12.1 0 22 12.00 -12.00 -3.00 3.00
r 2.4799 25 10 exp 210 ------- 0 25.1 10.1 0 23 10.00 -10.00 -5.00 5.00
r 2.4824 30 15 exp 210 ------- 0 30.1 15.1 1 24 15.00 -15.00 0.00 0.00
r 2.5223 6 21 exp 210 ------- 0 6.0 21.0 1 25 -9.00 9.00 6.00 -6.00
+ 2.5555 16 1 exp 210 ------- 0 16.1 1.1 1 34 1.00 -1.00 -14.00 14.00
- 2.5555 16 1 exp 210 ------- 0 16.1 1.1 1 34 1.00 -1.00 -14.00 14.00
r 2.5649 15 30 exp 210 ------- 0 15.0 30.0 0 28 0.00 0.00 15.00 -15.00
+ 2.5729 19 4 exp 210 ------- 0 19.1 4.1 1 35 4.00 -4.00 -11.00 11.00
- 2.5729 19 4 exp 210 ------- 0 19.1 4.1 1 35 4.00 -4.00 -11.00 11.00
+ 2.5770 26 11 exp 210 ------- 0 26.1 11.1 1 36 11.00 -11.00 -4.00 4.00
- 2.5770 26 11 exp 210 ------- 0 26.1 11.1 1 36 11.00 -11.00 -4.00 4.00
r 2.6023 20 5 exp 210 ------- 0 20.1 5.1 1 29 5.00 -5.00 -10.00 10.00
+ 2.6074 24 9 exp 210 ------- 0 24.1 9.1 0 37 9.00 -9.00 -6.00 6.00
- 2.6074 24 9 exp 210 ------- 0 24.1 9.1 0 37 9.00 -9.00 -6.00 6.00
r 2.6159 4 19 exp 210 ------- 0 4.0 19.0 1 30 -11.00 11.00 4.00 -4.00
r 2.6201 23 8 exp 210 ------- 0 23.1 8.1 1 31 8.00 -8.00 -7.00 7.00
+ 2.6466 8 23 exp 210 ------- 0 8.0 23.0 0 38 -7.00 7.00 8.00 -8.00
- 2.6466 8 23 exp 210 ------- 0 8.0 23.0 0 38 -7.00 7.00 8.00 -8.00
+ 2.6490 28 13 exp 210 ------- 0 28.1 13.1 1 39 13.00 -13.00 -2.00 2.00
- 2.6490 28 13 exp 210 ------- 0 28.1 13.1 1 39 13.00 -13.00 -2.00 2.00
r 2.6516 5 20 exp 210 ------- 0 5.0 20.0 1 32 -10.00 10.00 5.00 -5.00
r 2.6547 1 16 exp 210 ------- 0 1.0 16.0 1 33 -14.00 14.00 1.00 -1.00
+ 2.6784 29 14 exp 210 ------- 0 29.1 14.1 1 40 14.00 -14.00 -1.00 1.00
- 2.6784 29 14 exp 210 ------- 0 29.1 14.1 1 40 14.00 -14.00 -1.00 1.00
+ 2.7415 10 25 exp 210 ------- 0 10.0 25.0 0 41 -5.00 5.00 10.00 -10.00
- 2.7415 10 25 exp 210 ------- 0 10.0 25.0 0 41 -5.00 5.00 10.00 -10.00
+ 2.7545 9 24 exp 210 ------- 0 9.0 24.0 1 42 -6.00 6.00 9.00 -9.00
- 2.7545 9 24 exp 210 ------- 0 9.0 24.0 1 42 -6.00 6.00 9.00 -9.00
+ 2.7664 14 29 exp 210 ------- 0 14.0 29.0 2 43 -1.00 1.00 14.00 -14.00
- 2.7664 14 29 exp 210 ------- 0 14.0 29.0 2 43 -1.00 1.00 14.00 -14.00
+ 2.7745 2 17 exp 210 ------- 0 2.0 17.0 0 44 -13.00 13.00 2.00 -2.00
- 2.7745 2 17 exp 210 ------- 0 2.0 17.0 0 44 -13.00 13.00 2.00 -2.00
r 2.7966 16 1 exp 210 ------- 0 16.1 1.1 1 34 1.00 -1.00 -14.00 14.00
r 2.8136 19 4 exp 210 ------- 0 19.1 4.1 1 35 4.00 -4.00 -11.00 11.00
r 2.8177 26 11 exp 210 ------- 0 26.1 11.1 1 36 11.00 -11.00 -4.00 4.00
+ 2.8418 6 21 exp 210 ------- 0 6.0 21.0 2 45 -9.00 9.00 6.00 -6.00
- 2.8418 6 21 exp 210 ------- 0 6.0 21.0 2 45 -9.00 9.00 6.00 -6.00
r 2.8479 24 9 exp 210 ------- 0 24.1 9.1 0 37 9.00 -9.00 -6.00 6.00
r 2.8871 8 23 exp 210 ------- 0 8.0 23.0 0 38 -7.00 7.00 8.00 -8.00
r 2.8899 28 13 exp 210 ------- 0 28.1 13.1 1 39 13.00 -13.00 -2.00 2.00
r 2.9195 29 14 exp 210 ------- 0 29.1 14.1 1 40 14.00 -14.00 -1.00 1.00
+ 2.9308 17 2 exp 210 ------- 0 17.1 2.1 2 46 2.00 -2.00 -13.00 13.00
+ 2.9396 23 8 exp 210 ------- 0 23.1 8.1 2 47 8.00 -8.00 -7.00 7.00
- 2.9396 23 8 exp 210 ------- 0 23.1 8.1 2 47 8.00 -8.00 -7.00 7.00
+ 2.9715 27 12 exp 210 ------- 0 27.1 12.1 1 48 12.00 -12.00 -3.00 3.00
- 2.9715 27 12 exp 210 ------- 0 27.1 12.1 1 48 12.00 -12.00 -3.00 3.00
+ 2.9736 1 16 exp 210 ------- 0 1.0 16.0 2 49 -14.00 14.00 1.00 -1.00
- 2.9736 1 16 exp 210 ------- 0 1.0 16.0 2 49 -14.00 14.00 1.00 -1.00
+ 2.9802 22 7 exp 210 ------- 0 22.1 7.1 0 50 7.00 -7.00 -8.00 8.00
- 2.9802 22 7 exp 210 ------- 0 22.1 7.1 0 50 7.00 -7.00 -8.00 8.00
r 2.9821 10 25 exp 210 ------- 0 10.0 25.0 0 41 -5.00 5.00 10.00 -10.00
r 2.9950 9 24 exp 210 ------- 0 9.0 24.0 1 42 -6.00 6.00 9.00 -9.00
r 3.0075 14 29 exp 210 ------- 0 14.0 29.0 2 43 -1.00 1.00 14.00 -14.00
r 3.0154 2 17 exp 210 ------- 0 2.0 17.0 0 44 -13.00 13.00 2.00 -2.00
+ 3.0176 12 27 exp 210 ------- 0 12.0 27.0 1 51 -3.00 3.00 12.00 -12.00
- 3.0176 12 27 exp 210 ------- 0 12.0 27.0 1 51 -3.00 3.00 12.00 -12.00
+ 3.0180 13 28 exp 210 ------- 0 13.0 28.0 1 52 -2.00 2.00 13.00 -13.00
- 3.0180 13 28 exp 210 ------- 0 13.0 28.0 1 52 -2.00 2.00 13.00 -13.00
+ 3.0534 4 19 exp 210 ------- 0 4.0 19.0 2 53 -11.00 11.00 4.00 -4.00
- 3.0534 4 19 exp 210 ------- 0 4.0 19.0 2 53 -11.00 11.00 4.00 -4.00
+ 3.0620 20 5 exp 210 ------- 0 20.1 5.1 2 54 5.00 -5.00 -10.00 10.00
- 3.0620 20 5 exp 210 ------- 0 20.1 5.1 2 54 5.00 -5.00 -10.00 10.00
+ 3.0636 18 3 exp 210 ------- 0 18.1 3.1 1 55 3.00 -3.00 -12.00 12.00
- 3.0636 18 3 exp 210 ------- 0 18.1 3.1 1 55 3.00 -3.00 -12.00 12.00
r 3.0823 6 21 exp 210 ------- 0 6.0 21.0 2 45 -9.00 9.00 6.00 -6.00
+ 3.1155 16 1 exp 210 ------- 0 16.1 1.1 2 56 1.00 -1.00 -14.00 14.00
- 3.1155 16 1 exp 210 ------- 0 16.1 1.1 2 56 1.00 -1.00 -14.00 14.00
+ 3.1357 7 22 exp 210 ------- 0 7.0 22.0 0 57 -8.00 8.00 7.00 -7.00
- 3.1357 7 22 exp 210 ------- 0 7.0 22.0 0 57 -8.00 8.00 7.00 -7.00
r 3.1801 23 8 exp 210 ------- 0 23.1 8.1 2 47 8.00 -8.00 -7.00 7.00
r 3.2123 27 12 exp 210 ------- 0 27.1 12.1 1 48 12.00 -12.00 -3.00 3.00
r 3.2147 1 16 exp 210 ------- 0 1.0 16.0 2 49 -14.00 14.00 1.00 -1.00
r 3.2207 22 7 exp 210 ------- 0 22.1 7.1 0 50 7.00 -7.00 -8.00 8.00
+ 3.2384 29 14 exp 210 ------- 0 29.1 14.1 2 58 14.00 -14.00 -1.00 1.00
- 3.2384 29 14 exp 210 ------- 0 29.1 14.1 2 58 14.00 -14.00 -1.00 1.00
r 3.2940 4 19 exp 210 ------- 0 4.0 19.0 2 53 -11.00 11.00 4.00 -4.00
+ 3.3015 10 25 exp 210 ------- 0 10.0 25.0 1 59 -5.00 5.00 10.00 -10.00
- 3.3015 10 25 exp 210 ------- 0 10.0 25.0 1 59 -5.00 5.00 10.00 -10.00
r 3.3026 20 5 exp 210 ------- 0 20.1 5.1 2 54 5.00 -5.00 -10.00 10.00
r 3.3044 18 3 exp 210 ------- 0 18.1 3.1 1 55 3.00 -3.00 -12.00 12.00
+ 3.3345 2 17 exp 210 ------- 0 2.0 17.0 1 60 -13.00 13.00 2.00 -2.00
- 3.3345 2 17 exp 210 ------- 0 2.0 17.0 1 60 -13.00 13.00 2.00 -2.00
r 3.3566 16 1 exp 210 ------- 0 16.1 1.1 2 56 1.00 -1.00 -14.00 14.00
+ 3.3624 28 13 exp 210 ------- 0 28.1 13.1 2 61 13.00 -13.00 -2.00 2.00
- 3.3624 28 13 exp 210 ------- 0 28.1 13.1 2 61 13.00 -13.00 -2.00 2.00
+ 3.3689 5 20 exp 210 ------- 0 5.0 20.0 2 62 -10.00 10.00 5.00 -5.00
- 3.3689 5 20 exp 210 ------- 0 5.0 20.0 2 62 -10.00 10.00 5.00 -5.00
+ 3.3690 9 24 exp 210 ------- 0 9.0 24.0 2 63 -6.00 6.00 9.00 -9.00
- 3.3690 9 24 exp 210 ------- 0 9.0 24.0 2 63 -6.00 6.00 9.00 -9.00
r 3.3762 7 22 exp 210 ------- 0 7.0 22.0 0 57 -8.00 8.00 7.00 -7.00
+ 3.3948 30 15 exp 210 ------- 0 30.1 15.1 2 64 15.00 -15.00 0.00 0.00
- 3.3948 30 15 exp 210 ------- 0 30.1 15.1 2 64 15.00 -15.00 0.00 0.00
+ 3.4018 6 21 exp 210 ------- 0 6.0 21.0 3 65 -9.00 9.00 6.00 -6.00
- 3.4018 6 21 exp 210 ------- 0 6.0 21.0 3 65 -9.00 9.00 6.00 -6.00
+ 3.4072 14 29 exp 210 ------- 0 14.0 29.0 3 66 -1.00 1.00 14.00 -14.00
- 3.4072 14 29 exp 210 ------- 0 14.0 29.0 3 66 -1.00 1.00 14.00 -14.00
+ 3.4335 21 6 exp 210 ------- 0 21.1 6.1 2 67 6.00 -6.00 -9.00 9.00
+ 3.4462 3 18 exp 210 ------- 0 3.0 18.0 1 68 -12.00 12.00 3.00 -3.00
- 3.4462 3 18 exp 210 ------- 0 3.0 18.0 1 68 -12.00 12.00 3.00 -3.00
r 3.4795 29 14 exp 210 ------- 0 29.1 14.1 2 58 14.00 -14.00 -1.00 1.00
+ 3.4996 23 8 exp 210 ------- 0 23.1 8.1 3 69 8.00 -8.00 -7.00 7.00
- 3.4996 23 8 exp 210 ------- 0 23.1 8.1 3 69 8.00 -8.00 -7.00 7.00
+ 3.5336 1 16 exp 210 ------- 0 1.0 16.0 3 70 -14.00 14.00 1.00 -1.00
- 3.5336 1 16 exp 210 ------- 0 1.0 16.0 3 70 -14.00 14.00 1.00 -1.00
+ 3.5402 22 7 exp 210 ------- 0 22.1 7.1 1 71 7.00 -7.00 -8.00 8.00
- 3.5402 22 7 exp 210 ------- 0 22.1 7.1 1 71 7.00 -7.00 -8.00 8.00
r 3.5421 10 25 exp 210 ------- 0 10.0 25.0 1 59 -5.00 5.00 10.00 -10.00
+ 3.5507 26 11 exp 210 ------- 0 26.1 11.1 2 72 11.00 -11.00 -4.00 4.00
- 3.5507 26 11 exp 210 ------- 0 26.1 11.1 2 72 11.00 -11.00 -4.00 4.00
r 3.5754 2 17 exp 210 ------- 0 2.0 17.0 1 60 -13.00 13.00 2.00 -2.00
+ 3.5776 12 27 exp 210 ------- 0 12.0 27.0 2 73 -3.00 3.00 12.00 -12.00
r 3.6034 28 13 exp 210 ------- 0 28.1 13.1 2 61 13.00 -13.00 -2.00 2.00
+ 3.6220 20 5 exp 210 ------- 0 20.1 5.1 3 74 5.00 -5.00 -10.00 10.00
- 3.6220 20 5 exp 210 ------- 0 20.1 5.1 3 74 5.00 -5.00 -10.00 10.00
r 3.6361 30 15 exp 210 ------- 0 30.1 15.1 2 64 15.00 -15.00 0.00 0.00
+ 3.6369 8 23 exp 210 ------- 0 8.0 23.0 1 75 -7.00 7.00 8.00 -8.00
- 3.6369 8 23 exp 210 ------- 0 8.0 23.0 1 75 -7.00 7.00 8.00 -8.00
r 3.6423 6 21 exp 210 ------- 0 6.0 21.0 3 65 -9.00 9.00 6.00 -6.00
r 3.6483 14 29 exp 210 ------- 0 14.0 29.0 3 66 -1.00 1.00 14.00 -14.00
r 3.6870 3 18 exp 210 ------- 0 3.0 18.0 1 68 -12.00 12.00 3.00 -3.00
+ 3.6957 7 22 exp 210 ------- 0 7.0 22.0 1 76 -8.00 8.00 7.00 -7.00
- 3.6957 7 22 exp 210 ------- 0 7.0 22.0 1 76 -8.00 8.00 7.00 -7.00
+ 3.7166 18 3 exp 210 ------- 0 18.1 3.1 2 77 3.00 -3.00 -12.00 12.00
- 3.7166 18 3 exp 210 ------- 0 18.1 3.1 2 77 3.00 -3.00 -12.00 12.00
r 3.7401 23 8 exp 210 ------- 0 23.1 8.1 3 69 8.00 -8.00 -7.00 7.00
+ 3.7660 15 30 exp 210 ------- 0 15.0 30.0 1 78 0.00 0.00 15.00 -15.00
- 3.7660 15 30 exp 210 ------- 0 15.0 30.0 1 78 0.00 0.00 15.00 -15.00
r 3.7747 1 16 exp 210 ------- 0 1.0 16.0 3 70 -14.00 14.00 1.00 -1.00
r 3.7807 22 7 exp 210 ------- 0 22.1 7.1 1 71 7.00 -7.00 -8.00 8.00
+ 3.7873 4 19 exp 210 ------- 0 4.0 19.0 3 79 -11.00 11.00 4.00 -4.00
- 3.7873 4 19 exp 210 ------- 0 4.0 19.0 3 79 -11.00 11.00 4.00 -4.00
r 3.7913 26 11 exp 210 ------- 0 26.1 11.1 2 72 11.00 -11.00 -4.00 4.00
r 3.8626 20 5 exp 210 ------- 0 20.1 5.1 3 74 5.00 -5.00 -10.00 10.00
r 3.8774 8 23 exp 210 ------- 0 8.0 23.0 1 75 -7.00 7.00 8.00 -8.00
+ 3.8886 11 26 exp 210 ------- 0 11.0 26.0 1 80 -4.00 4.00 11.00 -11.00
- 3.8886 11 26 exp 210 ------- 0 11.0 26.0 1 80 -4.00 4.00 11.00 -11.00
+ 3.8925 10 25 exp 210 ------- 0 10.0 25.0 2 81 -5.00 5.00 10.00 -10.00
- 3.8925 10 25 exp 210 ------- 0 10.0 25.0 2 81 -5.00 5.00 10.00 -10.00
+ 3.8945 2 17 exp 210 ------- 0 2.0 17.0 2 82 -13.00 13.00 2.00 -2.00
- 3.8945 2 17 exp 210 ------- 0 2.0 17.0 2 82 -13.00 13.00 2.00 -2.00
- 3.9225 21 6 exp 210 ------- 0 21.1 6.1 2 67 6.00 -6.00 -9.00 9.00
r 3.9229 21 6 exp 210 ------- 0 21.1 6.1 1 26 6.00 -6.00 -9.00 9.00
r 3.9362 7 22 exp 210 ------- 0 7.0 22.0 1 76 -8.00 8.00 7.00 -7.00
+ 3.9379 24 9 exp 210 ------- 0 24.1 9.1 1 83 9.00 -9.00 -6.00 6.00
- 3.9379 24 9 exp 210 ------- 0 24.1 9.1 1 83 9.00 -9.00 -6.00 6.00
+ 3.9572 9 24 exp 210 ------- 0 9.0 24.0 3 84 -6.00 6.00 9.00 -9.00
r 3.9574 18 3 exp 210 ------- 0 18.1 3.1 2 77 3.00 -3.00 -12.00 12.00
+ 3.9743 28 13 exp 210 ------- 0 28.1 13.1 3 85 13.00 -13.00 -2.00 2.00
- 3.9743 28 13 exp 210 ------- 0 28.1 13.1 3 85 13.00 -13.00 -2.00 2.00
+ 3.9761 6 21 exp 210 ------- 0 6.0 21.0 4 86 -9.00 9.00 6.00 -6.00
- 3.9761 6 21 exp 210 ------- 0 6.0 21.0 4 86 -9.00 9.00 6.00 -6.00
+ 3.9784 5 20 exp 210 ------- 0 5.0 20.0 3 87 -10.00 10.00 5.00 -5.00
+ 3.9935 21 6 exp 210 ------- 0 21.1 6.1 3 88 6.00 -6.00 -9.00 9.00
r 4.0073 15 30 exp 210 ------- 0 15.0 30.0 1 78 0.00 0.00 15.00 -15.00
+ 4.0238 29 14 exp 210 ------- 0 29.1 14.1 3 89 14.00 -14.00 -1.00 1.00
- 4.0238 29 14 exp 210 ------- 0 29.1 14.1 3 89 14.00 -14.00 -1.00 1.00
r 4.0280 4 19 exp 210 ------- 0 4.0 19.0 3 79 -11.00 11.00 4.00 -4.00
+ 4.0305 14 29 exp 210 ------- 0 14.0 29.0 4 90 -1.00 1.00 14.00 -14.00
- 4.0305 14 29 exp 210 ------- 0 14.0 29.0 4 90 -1.00 1.00 14.00 -14.00
r 4.0375 5 20 exp 210 ------- 0 5.0 20.0 2 62 -10.00 10.00 5.00 -5.00
- 4.0381 5 20 exp 210 ------- 0 5.0 20.0 3 87 -10.00 10.00 5.00 -5.00
+ 4.0936 1 16 exp 210 ------- 0 1.0 16.0 4 91 -14.00 14.00 1.00 -1.00
- 4.0936 1 16 exp 210 ------- 0 1.0 16.0 4 91 -14.00 14.00 1.00 -1.00
r 4.1293 11 26 exp 210 ------- 0 11.0 26.0 1 80 -4.00 4.00 11.00 -11.00
r 4.1331 10 25 exp 210 ------- 0 10.0 25.0 2 81 -5.00 5.00 10.00 -10.00
r 4.1354 2 17 exp 210 ------- 0 2.0 17.0 2 82 -13.00 13.00 2.00 -2.00
- 4.1627 21 6 exp 210 ------- 0 21.1 6.1 3 88 6.00 -6.00 -9.00 9.00
r 4.1631 21 6 exp 210 ------- 0 21.1 6.1 2 67 6.00 -6.00 -9.00 9.00
r 4.1784 24 9 exp 210 ------- 0 24.1 9.1 1 83 9.00 -9.00 -6.00 6.00
+ 4.1820 20 5 exp 210 ------- 0 20.1 5.1 4 92 5.00 -5.00 -10.00 10.00
- 4.1820 20 5 exp 210 ------- 0 20.1 5.1 4 92 5.00 -5.00 -10.00 10.00
+ 4.2036 23 8 exp 210 ------- 0 23.1 8.1 4 93 8.00 -8.00 -7.00 7.00
- 4.2036 23 8 exp 210 ------- 0 23.1 8.1 4 93 8.00 -8.00 -7.00 7.00
+ 4.2137 17 2 exp 210 ------- 0 17.1 2.1 3 94 2.00 -2.00 -13.00 13.00
+ 4.2150 16 1 exp 210 ------- 0 16.1 1.1 3 95 1.00 -1.00 -14.00 14.00
- 4.2150 16 1 exp 210 ------- 0 16.1 1.1 3 95 1.00 -1.00 -14.00 14.00
r 4.2153 28 13 exp 210 ------- 0 28.1 13.1 3 85 13.00 -13.00 -2.00 2.00
r 4.2166 6 21 exp 210 ------- 0 6.0 21.0 4 86 -9.00 9.00 6.00 -6.00
r 4.2650 29 14 exp 210 ------- 0 29.1 14.1 3 89 14.00 -14.00 -1.00 1.00
+ 4.2672 30 15 exp 210 ------- 0 30.1 15.1 3 96 15.00 -15.00 0.00 0.00
- 4.2672 30 15 exp 210 ------- 0 30.1 15.1 3 96 15.00 -15.00 0.00 0.00
r 4.2716 14 29 exp 210 ------- 0 14.0 29.0 4 90 -1.00 1.00 14.00 -14.00
r 4.2787 5 20 exp 210 ------- 0 5.0 20.0 3 87 -10.00 10.00 5.00 -5.00
+ 4.2964 22 7 exp 210 ------- 0 22.1 7.1 2 97 7.00 -7.00 -8.00 8.00
- 4.2964 22 7 exp 210 ------- 0 22.1 7.1 2 97 7.00 -7.00 -8.00 8.00
r 4.3347 1 16 exp 210 ------- 0 1.0 16.0 4 91 -14.00 14.00 1.00 -1.00
- 4.3644 12 27 exp 210 ------- 0 12.0 27.0 2 73 -3.00 3.00 12.00 -12.00
r 4.3654 12 27 exp 210 ------- 0 12.0 27.0 1 51 -3.00 3.00 12.00 -12.00
+ 4.3982 27 12 exp 210 ------- 0 27.1 12.1 2 98 12.00 -12.00 -3.00 3.00
- 4.3982 27 12 exp 210 ------- 0 27.1 12.1 2 98 12.00 -12.00 -3.00 3.00
r 4.4033 21 6 exp 210 ------- 0 21.1 6.1 3 88 6.00 -6.00 -9.00 9.00
+ 4.4081 8 23 exp 210 ------- 0 8.0 23.0 2 99 -7.00 7.00 8.00 -8.00
- 4.4081 8 23 exp 210 ------- 0 8.0 23.0 2 99 -7.00 7.00 8.00 -8.00
r 4.4226 20 5 exp 210 ------- 0 20.1 5.1 4 92 5.00 -5.00 -10.00 10.00
r 4.4441 23 8 exp 210 ------- 0 23.1 8.1 4 93 8.00 -8.00 -7.00 7.00
+ 4.4486 11 26 exp 210 ------- 0 11.0 26.0 2 100 -4.00 4.00 11.00 -11.00
- 4.4486 11 26 exp 210 ------- 0 11.0 26.0 2 100 -4.00 4.00 11.00 -11.00
+ 4.4545 2 17 exp 210 ------- 0 2.0 17.0 3 101 -13.00 13.00 2.00 -2.00
- 4.4545 2 17 exp 210 ------- 0 2.0 17.0 3 101 -13.00 13.00 2.00 -2.00
r 4.4561 16 1 exp 210 ------- 0 16.1 1.1 3 95 1.00 -1.00 -14.00 14.00
+ 4.4761 10 25 exp 210 ------- 0 10.0 25.0 3 102 -5.00 5.00 10.00 -10.00
- 4.4761 10 25 exp 210 ------- 0 10.0 25.0 3 102 -5.00 5.00 10.00 -10.00
+ 4.5081 25 10 exp 210 ------- 0 25.1 10.1 1 103 10.00 -10.00 -5.00 5.00
- 4.5081 25 10 exp 210 ------- 0 25.1 10.1 1 103 10.00 -10.00 -5.00 5.00
r 4.5085 30 15 exp 210 ------- 0 30.1 15.1 3 96 15.00 -15.00 0.00 0.00
+ 4.5172 9 24 exp 210 ------- 0 9.0 24.0 4 104 -6.00 6.00 9.00 -9.00
+ 4.5361 6 21 exp 210 ------- 0 6.0 21.0 5 105 -9.00 9.00 6.00 -6.00
- 4.5361 6 21 exp 210 ------- 0 6.0 21.0 5 105 -9.00 9.00 6.00 -6.00
r 4.5369 22 7 exp 210 ------- 0 22.1 7.1 2 97 7.00 -7.00 -8.00 8.00
+ 4.5535 21 6 exp 210 ------- 0 21.1 6.1 4 106 6.00 -6.00 -9.00 9.00
- 4.5535 21 6 exp 210 ------- 0 21.1 6.1 4 106 6.00 -6.00 -9.00 9.00
r 4.6052 12 27 exp 210 ------- 0 12.0 27.0 2 73 -3.00 3.00 12.00 -12.00
+ 4.6232 12 27 exp 210 ------- 0 12.0 27.0 3 107 -3.00 3.00 12.00 -12.00
- 4.6232 12 27 exp 210 ------- 0 12.0 27.0 3 107 -3.00 3.00 12.00 -12.00
+ 4.6275 28 13 exp 210 ------- 0 28.1 13.1 4 108 13.00 -13.00 -2.00 2.00
- 4.6275 28 13 exp 210 ------- 0 28.1 13.1 4 108 13.00 -13.00 -2.00 2.00
r 4.6390 27 12 exp 210 ------- 0 27.1 12.1 2 98 12.00 -12.00 -3.00 3.00
r 4.6486 8 23 exp 210 ------- 0 8.0 23.0 2 99 -7.00 7.00 8.00 -8.00
+ 4.6536 1 16 exp 210 ------- 0 1.0 16.0 5 109 -14.00 14.00 1.00 -1.00
- 4.6536 1 16 exp 210 ------- 0 1.0 16.0 5 109 -14.00 14.00 1.00 -1.00
+ 4.6703 24 9 exp 210 ------- 0 24.1 9.1 2 110 9.00 -9.00 -6.00 6.00
- 4.6703 24 9 exp 210 ------- 0 24.1 9.1 2 110 9.00 -9.00 -6.00 6.00
+ 4.6742 3 18 exp 210 ------- 0 3.0 18.0 2 111 -12.00 12.00 3.00 -3.00
- 4.6742 3 18 exp 210 ------- 0 3.0 18.0 2 111 -12.00 12.00 3.00 -3.00
+ 4.6856 14 29 exp 210 ------- 0 14.0 29.0 5 112 -1.00 1.00 14.00 -14.00
- 4.6856 14 29 exp 210 ------- 0 14.0 29.0 5 112 -1.00 1.00 14.00 -14.00
r 4.6893 11 26 exp 210 ------- 0 11.0 26.0 2 100 -4.00 4.00 11.00 -11.00
r 4.6954 2 17 exp 210 ------- 0 2.0 17.0 3 101 -13.00 13.00 2.00 -2.00
r 4.7167 10 25 exp 210 ------- 0 10.0 25.0 3 102 -5.00 5.00 10.00 -10.00
r 4.7487 25 10 exp 210 ------- 0 25.1 10.1 1 103 10.00 -10.00 -5.00 5.00
+ 4.7737 17 2 exp 210 ------- 0 17.1 2.1 4 113 2.00 -2.00 -13.00 13.00
+ 4.7750 16 1 exp 210 ------- 0 16.1 1.1 4 114 1.00 -1.00 -14.00 14.00
- 4.7750 16 1 exp 210 ------- 0 16.1 1.1 4 114 1.00 -1.00 -14.00 14.00
r 4.7766 6 21 exp 210 ------- 0 6.0 21.0 5 105 -9.00 9.00 6.00 -6.00
r 4.7940 21 6 exp 210 ------- 0 21.1 6.1 4 106 6.00 -6.00 -9.00 9.00
+ 4.8190 20 5 exp 210 ------- 0 20.1 5.1 5 115 5.00 -5.00 -10.00 10.00
- 4.8190 20 5 exp 210 ------- 0 20.1 5.1 5 115 5.00 -5.00 -10.00 10.00
+ 4.8433 5 20 exp 210 ------- 0 5.0 20.0 4 116 -10.00 10.00 5.00 -5.00
- 4.8433 5 20 exp 210 ------- 0 5.0 20.0 4 116 -10.00 10.00 5.00 -5.00
+ 4.8560 29 14 exp 210 ------- 0 29.1 14.1 4 117 14.00 -14.00 -1.00 1.00
- 4.8560 29 14 exp 210 ------- 0 29.1 14.1 4 117 14.00 -14.00 -1.00 1.00
r 4.8640 12 27 exp 210 ------- 0 12.0 27.0 3 107 -3.00 3.00 12.00 -12.00
r 4.8684 28 13 exp 210 ------- 0 28.1 13.1 4 108 13.00 -13.00 -2.00 2.00
+ 4.8792 23 8 exp 210 ------- 0 23.1 8.1 5 118 8.00 -8.00 -7.00 7.00
- 4.8792 23 8 exp 210 ------- 0 23.1 8.1 5 118 8.00 -8.00 -7.00 7.00
r 4.8947 1 16 exp 210 ------- 0 1.0 16.0 5 109 -14.00 14.00 1.00 -1.00
r 4.9108 24 9 exp 210 ------- 0 24.1 9.1 2 110 9.00 -9.00 -6.00 6.00
r 4.9150 3 18 exp 210 ------- 0 3.0 18.0 2 111 -12.00 12.00 3.00 -3.00
r 4.9267 14 29 exp 210 ------- 0 14.0 29.0 5 112 -1.00 1.00 14.00 -14.00
- 4.9446 17 2 exp 210 ------- 0 17.1 2.1 2 46 2.00 -2.00 -13.00 13.00
r 4.9458 17 2 exp 210 ------- 0 17.1 2.1 1 27 2.00 -2.00 -13.00 13.00
+ 4.9582 27 12 exp 210 ------- 0 27.1 12.1 3 119 12.00 -12.00 -3.00 3.00
- 4.9582 27 12 exp 210 ------- 0 27.1 12.1 3 119 12.00 -12.00 -3.00 3.00
r 5.0040 13 28 exp 210 ------- 0 13.0 28.0 1 52 -2.00 2.00 13.00 -13.00
+ 5.0086 11 26 exp 210 ------- 0 11.0 26.0 3 120 -4.00 4.00 11.00 -11.00
- 5.0086 11 26 exp 210 ------- 0 11.0 26.0 3 120 -4.00 4.00 11.00 -11.00
r 5.0161 16 1 exp 210 ------- 0 16.1 1.1 4 114 1.00 -1.00 -14.00 14.00
+ 5.0212 26 11 exp 210 ------- 0 26.1 11.1 3 121 11.00 -11.00 -4.00 4.00
- 5.0212 26 11 exp 210 ------- 0 26.1 11.1 3 121 11.00 -11.00 -4.00 4.00
+ 5.0361 10 25 exp 210 ------- 0 10.0 25.0 4 122 -5.00 5.00 10.00 -10.00
- 5.0361 10 25 exp 210 ------- 0 10.0 25.0 4 122 -5.00 5.00 10.00 -10.00
r 5.0596 20 5 exp 210 ------- 0 20.1 5.1 5 115 5.00 -5.00 -10.00 10.00
+ 5.0785 7 22 exp 210 ------- 0 7.0 22.0 2 123 -8.00 8.00 7.00 -7.00
- 5.0785 7 22 exp 210 ------- 0 7.0 22.0 2 123 -8.00 8.00 7.00 -7.00
r 5.0838 5 20 exp 210 ------- 0 5.0 20.0 4 116 -10.00 10.00 5.00 -5.00
r 5.0971 29 14 exp 210 ------- 0 29.1 14.1 4 117 14.00 -14.00 -1.00 1.00
+ 5.1135 21 6 exp 210 ------- 0 21.1 6.1 5 124 6.00 -6.00 -9.00 9.00
- 5.1135 21 6 exp 210 ------- 0 21.1 6.1 5 124 6.00 -6.00 -9.00 9.00
+ 5.1174 4 19 exp 210 ------- 0 4.0 19.0 4 125 -11.00 11.00 4.00 -4.00
- 5.1174 4 19 exp 210 ------- 0 4.0 19.0 4 125 -11.00 11.00 4.00 -4.00
r 5.1197 23 8 exp 210 ------- 0 23.1 8.1 5 118 8.00 -8.00 -7.00 7.00
- 5.1515 9 24 exp 210 ------- 0 9.0 24.0 3 84 -6.00 6.00 9.00 -9.00
r 5.1518 9 24 exp 210 ------- 0 9.0 24.0 2 63 -6.00 6.00 9.00 -9.00
- 5.1843 17 2 exp 210 ------- 0 17.1 2.1 3 94 2.00 -2.00 -13.00 13.00
r 5.1855 17 2 exp 210 ------- 0 17.1 2.1 2 46 2.00 -2.00 -13.00 13.00
+ 5.1899 2 17 exp 210 ------- 0 2.0 17.0 4 126 -13.00 13.00 2.00 -2.00
- 5.1899 2 17 exp 210 ------- 0 2.0 17.0 4 126 -13.00 13.00 2.00 -2.00
+ 5.1937 13 28 exp 210 ------- 0 13.0 28.0 2 127 -2.00 2.00 13.00 -13.00
- 5.1937 13 28 exp 210 ------- 0 13.0 28.0 2 127 -2.00 2.00 13.00 -13.00
r 5.1989 27 12 exp 210 ------- 0 27.1 12.1 3 119 12.00 -12.00 -3.00 3.00
+ 5.2006 19 4 exp 210 ------- 0 19.1 4.1 2 128 4.00 -4.00 -11.00 11.00
- 5.2006 19 4 exp 210 ------- 0 19.1 4.1 2 128 4.00 -4.00 -11.00 11.00
+ 5.2136 1 16 exp 210 ------- 0 1.0 16.0 6 129 -14.00 14.00 1.00 -1.00
- 5.2136 1 16 exp 210 ------- 0 1.0 16.0 6 129 -14.00 14.00 1.00 -1.00
+ 5.2263 22 7 exp 210 ------- 0 22.1 7.1 3 130 7.00 -7.00 -8.00 8.00
- 5.2263 22 7 exp 210 ------- 0 22.1 7.1 3 130 7.00 -7.00 -8.00 8.00
+ 5.2367 24 9 exp 210 ------- 0 24.1 9.1 3 131 9.00 -9.00 -6.00 6.00
- 5.2367 24 9 exp 210 ------- 0 24.1 9.1 3 131 9.00 -9.00 -6.00 6.00
+ 5.2368 12 27 exp 210 ------- 0 12.0 27.0 4 132 -3.00 3.00 12.00 -12.00
- 5.2368 12 27 exp 210 ------- 0 12.0 27.0 4 132 -3.00 3.00 12.00 -12.00
r 5.2493 11 26 exp 210 ------- 0 11.0 26.0 3 120 -4.00 4.00 11.00 -11.00
r 5.2619 26 11 exp 210 ------- 0 26.1 11.1 3 121 11.00 -11.00 -4.00 4.00
r 5.2767 10 25 exp 210 ------- 0 10.0 25.0 4 122 -5.00 5.00 10.00 -10.00
r 5.3190 7 22 exp 210 ------- 0 7.0 22.0 2 123 -8.00 8.00 7.00 -7.00
+ 5.3350 16 1 exp 210 ------- 0 16.1 1.1 5 133 1.00 -1.00 -14.00 14.00
- 5.3350 16 1 exp 210 ------- 0 16.1 1.1 5 133 1.00 -1.00 -14.00 14.00
r 5.3540 21 6 exp 210 ------- 0 21.1 6.1 5 124 6.00 -6.00 -9.00 9.00
r 5.3581 4 19 exp 210 ------- 0 4.0 19.0 4 125 -11.00 11.00 4.00 -4.00
- 5.3917 9 24 exp 210 ------- 0 9.0 24.0 4 104 -6.00 6.00 9.00 -9.00
r 5.3920 9 24 exp 210 ------- 0 9.0 24.0 3 84 -6.00 6.00 9.00 -9.00
+ 5.4160 29 14 exp 210 ------- 0 29.1 14.1 5 134 14.00 -14.00 -1.00 1.00
- 5.4160 29 14 exp 210 ------- 0 29.1 14.1 5 134 14.00 -14.00 -1.00 1.00
- 5.4240 17 2 exp 210 ------- 0 17.1 2.1 4 113 2.00 -2.00 -13.00 13.00
r 5.4252 17 2 exp 210 ------- 0 17.1 2.1 3 94 2.00 -2.00 -13.00 13.00
+ 5.4274 25 10 exp 210 ------- 0 25.1 10.1 2 135 10.00 -10.00 -5.00 5.00
- 5.4274 25 10 exp 210 ------- 0 25.1 10.1 2 135 10.00 -10.00 -5.00 5.00
r 5.4308 2 17 exp 210 ------- 0 2.0 17.0 4 126 -13.00 13.00 2.00 -2.00
r 5.4346 13 28 exp 210 ------- 0 13.0 28.0 2 127 -2.00 2.00 13.00 -13.00
+ 5.4392 23 8 exp 210 ------- 0 23.1 8.1 6 136 8.00 -8.00 -7.00 7.00
- 5.4392 23 8 exp 210 ------- 0 23.1 8.1 6 136 8.00 -8.00 -7.00 7.00
r 5.4413 19 4 exp 210 ------- 0 19.1 4.1 2 128 4.00 -4.00 -11.00 11.00
r 5.4547 1 16 exp 210 ------- 0 1.0 16.0 6 129 -14.00 14.00 1.00 -1.00
r 5.4668 22 7 exp 210 ------- 0 22.1 7.1 3 130 7.00 -7.00 -8.00 8.00
+ 5.5560 18 3 exp 210 ------- 0 18.1 3.1 3 137 3.00 -3.00 -12.00 12.00
- 5.5560 18 3 exp 210 ------- 0 18.1 3.1 3 137 3.00 -3.00 -12.00 12.00
+ 5.5570 28 13 exp 210 ------- 0 28.1 13.1 5 138 13.00 -13.00 -2.00 2.00
- 5.5570 28 13 exp 210 ------- 0 28.1 13.1 5 138 13.00 -13.00 -2.00 2.00
+ 5.5686 11 26 exp 210 ------- 0 11.0 26.0 4 139 -4.00 4.00 11.00 -11.00
- 5.5686 11 26 exp 210 ------- 0 11.0 26.0 4 139 -4.00 4.00 11.00 -11.00
+ 5.5757 3 18 exp 210 ------- 0 3.0 18.0 3 140 -12.00 12.00 3.00 -3.00
- 5.5757 3 18 exp 210 ------- 0 3.0 18.0 3 140 -12.00 12.00 3.00 -3.00
r 5.5761 16 1 exp 210 ------- 0 16.1 1.1 5 133 1.00 -1.00 -14.00 14.00
+ 5.5961 10 25 exp 210 ------- 0 10.0 25.0 5 141 -5.00 5.00 10.00 -10.00
- 5.5961 10 25 exp 210 ------- 0 10.0 25.0 5 141 -5.00 5.00 10.00 -10.00
+ 5.6042 30 15 exp 210 ------- 0 30.1 15.1 4 142 15.00 -15.00 0.00 0.00
- 5.6042 30 15 exp 210 ------- 0 30.1 15.1 4 142 15.00 -15.00 0.00 0.00
+ 5.6232 8 23 exp 210 ------- 0 8.0 23.0 3 143 -7.00 7.00 8.00 -8.00
- 5.6232 8 23 exp 210 ------- 0 8.0 23.0 3 143 -7.00 7.00 8.00 -8.00
r 5.6322 9 24 exp 210 ------- 0 9.0 24.0 4 104 -6.00 6.00 9.00 -9.00
+ 5.6385 7 22 exp 210 ------- 0 7.0 22.0 3 144 -8.00 8.00 7.00 -7.00
- 5.6385 7 22 exp 210 ------- 0 7.0 22.0 3 144 -8.00 8.00 7.00 -7.00
r 5.6571 29 14 exp 210 ------- 0 29.1 14.1 5 134 14.00 -14.00 -1.00 1.00
r 5.6649 17 2 exp 210 ------- 0 17.1 2.1 4 113 2.00 -2.00 -13.00 13.00
r 5.6680 25 10 exp 210 ------- 0 25.1 10.1 2 135 10.00 -10.00 -5.00 5.00
+ 5.6735 21 6 exp 210 ------- 0 21.1 6.1 6 145 6.00 -6.00 -9.00 9.00
- 5.6735 21 6 exp 210 ------- 0 21.1 6.1 6 145 6.00 -6.00 -9.00 9.00