+ 1.0000 12 11 cbr 210 ------- 0 12.0 13.0 0 0 37.90 -122.30 0.00 -100.00
- 1.0000 12 11 cbr 210 ------- 0 12.0 13.0 0 0 37.90 -122.30 0.00 -100.00
r 1.1272 12 11 cbr 210 ------- 0 12.0 13.0 0 0 37.90 -122.30 0.00 -100.00
+ 1.1272 11 13 cbr 210 ------- 0 12.0 13.0 0 0 0.00 -100.00 42.30 -71.10
- 1.1272 11 13 cbr 210 ------- 0 12.0 13.0 0 0 0.00 -100.00 42.30 -71.10
r 1.2563 11 13 cbr 210 ------- 0 12.0 13.0 0 0 0.00 -100.00 42.30 -71.10
+ 61.0100 12 11 cbr 210 ------- 0 12.0 13.0 1 1 37.90 -122.30 0.00 -100.00
- 61.0100 12 11 cbr 210 ------- 0 12.0 13.0 1 1 37.90 -122.30 0.00 -100.00
r 61.1372 12 11 cbr 210 ------- 0 12.0 13.0 1 1 37.90 -122.30 0.00 -100.00
+ 61.1372 11 13 cbr 210 ------- 0 12.0 13.0 1 1 0.00 -100.00 42.30 -71.10
- 61.1372 11 13 cbr 210 ------- 0 12.0 13.0 1 1 0.00 -100.00 42.30 -71.10
r 61.2663 11 13 cbr 210 ------- 0 12.0 13.0 1 1 0.00 -100.00 42.30 -71.10
+ 121.0200 12 11 cbr 210 ------- 0 12.0 13.0 2 2 37.90 -122.30 0.00 -100.00
- 121.0200 12 11 cbr 210 ------- 0 12.0 13.0 2 2 37.90 -122.30 0.00 -100.00
r 121.1472 12 11 cbr 210 ------- 0 12.0 13.0 2 2 37.90 -122.30 0.00 -100.00
+ 121.1472 11 13 cbr 210 ------- 0 12.0 13.0 2 2 0.00 -100.00 42.30 -71.10
- 121.1472 11 13 cbr 210 ------- 0 12.0 13.0 2 2 0.00 -100.00 42.30 -71.10
r 121.2763 11 13 cbr 210 ------- 0 12.0 13.0 2 2 0.00 -100.00 42.30 -71.10
+ 181.0300 12 11 cbr 210 ------- 0 12.0 13.0 3 3 37.90 -122.30 0.00 -100.00
- 181.0300 12 11 cbr 210 ------- 0 12.0 13.0 3 3 37.90 -122.30 0.00 -100.00
r 181.1572 12 11 cbr 210 ------- 0 12.0 13.0 3 3 37.90 -122.30 0.00 -100.00
+ 181.1572 11 13 cbr 210 ------- 0 12.0 13.0 3 3 0.00 -100.00 42.30 -71.10
- 181.1572 11 13 cbr 210 ------- 0 12.0 13.0 3 3 0.00 -100.00 42.30 -71.10
r 181.2863 11 13 cbr 210 ------- 0 12.0 13.0 3 3 0.00 -100.00 42.30 -71.10
+ 241.0400 12 11 cbr 210 ------- 0 12.0 13.0 4 4 37.90 -122.30 0.00 -100.00
- 241.0400 12 11 cbr 210 ------- 0 12.0 13.0 4 4 37.90 -122.30 0.00 -100.00
r 241.1672 12 11 cbr 210 ------- 0 12.0 13.0 4 4 37.90 -122.30 0.00 -100.00
+ 241.1672 11 13 cbr 210 ------- 0 12.0 13.0 4 4 0.00 -100.00 42.30 -71.10
- 241.1672 11 13 cbr 210 ------- 0 12.0 13.0 4 4 0.00 -100.00 42.30 -71.10
r 241.2963 11 13 cbr 210 ------- 0 12.0 13.0 4 4 0.00 -100.00 42.30 -71.10
+ 301.0500 12 11 cbr 210 ------- 0 12.0 13.0 5 5 37.90 -122.30 0.00 -100.00
- 301.0500 12 11 cbr 210 ------- 0 12.0 13.0 5 5 37.90 -122.30 0.00 -100.00
r 301.1772 12 11 cbr 210 ------- 0 12.0 13.0 5 5 37.90 -122.30 0.00 -100.00
+ 301.1772 11 13 cbr 210 ------- 0 12.0 13.0 5 5 0.00 -100.00 42.30 -71.10
- 301.1772 11 13 cbr 210 ------- 0 12.0 13.0 5 5 0.00 -100.00 42.30 -71.10
r 301.3063 11 13 cbr 210 ------- 0 12.0 13.0 5 5 0.00 -100.00 42.30 -71.10
+ 305.0000 14 10 cbr 210 ------- 1 14.0 15.0 0 6 0.00 10.00 -14.51 -1.27
- 305.0000 14 10 cbr 210 ------- 1 14.0 15.0 0 6 0.00 10.00 -14.51 -1.27
r 305.0088 14 10 cbr 210 ------- 1 14.0 15.0 0 6 0.00 10.00 -14.51 -1.27
+ 305.0088 10 0 cbr 210 ------- 1 14.0 15.0 0 6 -14.51 -1.27 18.22 -1.27
- 305.0088 10 0 cbr 210 ------- 1 14.0 15.0 0 6 -14.51 -1.27 18.22 -1.27
r 305.0224 10 0 cbr 210 ------- 1 14.0 15.0 0 6 -14.51 -1.27 18.22 -1.27
+ 305.0224 0 15 cbr 210 ------- 1 14.0 15.0 0 6 18.22 -1.27 0.00 -10.00
- 305.0224 0 15 cbr 210 ------- 1 14.0 15.0 0 6 18.22 -1.27 0.00 -10.00
r 305.0319 0 15 cbr 210 ------- 1 14.0 15.0 0 6 18.22 -1.27 0.00 -10.00
+ 361.0600 12 11 cbr 210 ------- 0 12.0 13.0 6 7 37.90 -122.30 0.00 -100.00
- 361.0600 12 11 cbr 210 ------- 0 12.0 13.0 6 7 37.90 -122.30 0.00 -100.00
r 361.1872 12 11 cbr 210 ------- 0 12.0 13.0 6 7 37.90 -122.30 0.00 -100.00
+ 361.1872 11 13 cbr 210 ------- 0 12.0 13.0 6 7 0.00 -100.00 42.30 -71.10
- 361.1872 11 13 cbr 210 ------- 0 12.0 13.0 6 7 0.00 -100.00 42.30 -71.10
r 361.3163 11 13 cbr 210 ------- 0 12.0 13.0 6 7 0.00 -100.00 42.30 -71.10
+ 395.5000 14 10 cbr 210 ------- 1 14.0 15.0 1 8 0.00 10.00 -9.11 -1.65
- 395.5000 14 10 cbr 210 ------- 1 14.0 15.0 1 8 0.00 10.00 -9.11 -1.65
r 395.5075 14 10 cbr 210 ------- 1 14.0 15.0 1 8 0.00 10.00 -9.11 -1.65
+ 395.5075 10 15 cbr 210 ------- 1 14.0 15.0 1 8 -9.11 -1.65 0.00 -10.00
- 395.5075 10 15 cbr 210 ------- 1 14.0 15.0 1 8 -9.11 -1.65 0.00 -10.00
r 395.5143 10 15 cbr 210 ------- 1 14.0 15.0 1 8 -9.11 -1.65 0.00 -10.00
+ 421.0700 12 11 cbr 210 ------- 0 12.0 13.0 7 9 37.90 -122.30 0.00 -100.00
- 421.0700 12 11 cbr 210 ------- 0 12.0 13.0 7 9 37.90 -122.30 0.00 -100.00
r 421.1972 12 11 cbr 210 ------- 0 12.0 13.0 7 9 37.90 -122.30 0.00 -100.00
+ 421.1972 11 13 cbr 210 ------- 0 12.0 13.0 7 9 0.00 -100.00 42.30 -71.10
- 421.1972 11 13 cbr 210 ------- 0 12.0 13.0 7 9 0.00 -100.00 42.30 -71.10
r 421.3263 11 13 cbr 210 ------- 0 12.0 13.0 7 9 0.00 -100.00 42.30 -71.10
+ 481.0800 12 11 cbr 210 ------- 0 12.0 13.0 8 10 37.90 -122.30 0.00 -100.00
- 481.0800 12 11 cbr 210 ------- 0 12.0 13.0 8 10 37.90 -122.30 0.00 -100.00
r 481.2072 12 11 cbr 210 ------- 0 12.0 13.0 8 10 37.90 -122.30 0.00 -100.00
+ 481.2072 11 13 cbr 210 ------- 0 12.0 13.0 8 10 0.00 -100.00 42.30 -71.10
- 481.2072 11 13 cbr 210 ------- 0 12.0 13.0 8 10 0.00 -100.00 42.30 -71.10
r 481.3363 11 13 cbr 210 ------- 0 12.0 13.0 8 10 0.00 -100.00 42.30 -71.10
+ 486.0000 14 10 cbr 210 ------- 1 14.0 15.0 2 11 0.00 10.00 -3.70 -2.03
- 486.0000 14 10 cbr 210 ------- 1 14.0 15.0 2 11 0.00 10.00 -3.70 -2.03
r 486.0068 14 10 cbr 210 ------- 1 14.0 15.0 2 11 0.00 10.00 -3.70 -2.03
+ 486.0068 10 15 cbr 210 ------- 1 14.0 15.0 2 11 -3.70 -2.03 0.00 -10.00
- 486.0068 10 15 cbr 210 ------- 1 14.0 15.0 2 11 -3.70 -2.03 0.00 -10.00
r 486.0123 10 15 cbr 210 ------- 1 14.0 15.0 2 11 -3.70 -2.03 0.00 -10.00
+ 541.0900 12 11 cbr 210 ------- 0 12.0 13.0 9 12 37.90 -122.30 0.00 -100.00
- 541.0900 12 11 cbr 210 ------- 0 12.0 13.0 9 12 37.90 -122.30 0.00 -100.00
r 541.2172 12 11 cbr 210 ------- 0 12.0 13.0 9 12 37.90 -122.30 0.00 -100.00
+ 541.2172 11 13 cbr 210 ------- 0 12.0 13.0 9 12 0.00 -100.00 42.30 -71.10
- 541.2172 11 13 cbr 210 ------- 0 12.0 13.0 9 12 0.00 -100.00 42.30 -71.10
r 541.3463 11 13 cbr 210 ------- 0 12.0 13.0 9 12 0.00 -100.00 42.30 -71.10
+ 576.5000 14 10 cbr 210 ------- 1 14.0 15.0 3 13 0.00 10.00 1.71 -2.41
- 576.5000 14 10 cbr 210 ------- 1 14.0 15.0 3 13 0.00 10.00 1.71 -2.41
r 576.5068 14 10 cbr 210 ------- 1 14.0 15.0 3 13 0.00 10.00 1.71 -2.41
+ 576.5068 10 15 cbr 210 ------- 1 14.0 15.0 3 13 1.71 -2.41 0.00 -10.00
- 576.5068 10 15 cbr 210 ------- 1 14.0 15.0 3 13 1.71 -2.41 0.00 -10.00
r 576.5120 10 15 cbr 210 ------- 1 14.0 15.0 3 13 1.71 -2.41 0.00 -10.00
+ 601.1000 12 11 cbr 210 ------- 0 12.0 13.0 10 14 37.90 -122.30 0.00 -100.00
- 601.1000 12 11 cbr 210 ------- 0 12.0 13.0 10 14 37.90 -122.30 0.00 -100.00
r 601.2272 12 11 cbr 210 ------- 0 12.0 13.0 10 14 37.90 -122.30 0.00 -100.00
+ 601.2272 11 13 cbr 210 ------- 0 12.0 13.0 10 14 0.00 -100.00 42.30 -71.10
- 601.2272 11 13 cbr 210 ------- 0 12.0 13.0 10 14 0.00 -100.00 42.30 -71.10
r 601.3563 11 13 cbr 210 ------- 0 12.0 13.0 10 14 0.00 -100.00 42.30 -71.10
+ 661.1100 12 11 cbr 210 ------- 0 12.0 13.0 11 15 37.90 -122.30 0.00 -100.00
- 661.1100 12 11 cbr 210 ------- 0 12.0 13.0 11 15 37.90 -122.30 0.00 -100.00
r 661.2372 12 11 cbr 210 ------- 0 12.0 13.0 11 15 37.90 -122.30 0.00 -100.00
+ 661.2372 11 13 cbr 210 ------- 0 12.0 13.0 11 15 0.00 -100.00 42.30 -71.10
- 661.2372 11 13 cbr 210 ------- 0 12.0 13.0 11 15 0.00 -100.00 42.30 -71.10
r 661.3663 11 13 cbr 210 ------- 0 12.0 13.0 11 15 0.00 -100.00 42.30 -71.10
+ 667.0000 14 10 cbr 210 ------- 1 14.0 15.0 4 16 0.00 10.00 7.11 -2.79
- 667.0000 14 10 cbr 210 ------- 1 14.0 15.0 4 16 0.00 10.00 7.11 -2.79
r 667.0075 14 10 cbr 210 ------- 1 14.0 15.0 4 16 0.00 10.00 7.11 -2.79
+ 667.0075 10 15 cbr 210 ------- 1 14.0 15.0 4 16 7.11 -2.79 0.00 -10.00
- 667.0075 10 15 cbr 210 ------- 1 14.0 15.0 4 16 7.11 -2.79 0.00 -10.00
r 667.0135 10 15 cbr 210 ------- 1 14.0 15.0 4 16 7.11 -2.79 0.00 -10.00
+ 721.1200 12 11 cbr 210 ------- 0 12.0 13.0 12 17 37.90 -122.30 0.00 -100.00
- 721.1200 12 11 cbr 210 ------- 0 12.0 13.0 12 17 37.90 -122.30 0.00 -100.00
r 721.2472 12 11 cbr 210 ------- 0 12.0 13.0 12 17 37.90 -122.30 0.00 -100.00
+ 721.2472 11 13 cbr 210 ------- 0 12.0 13.0 12 17 0.00 -100.00 42.30 -71.10
- 721.2472 11 13 cbr 210 ------- 0 12.0 13.0 12 17 0.00 -100.00 42.30 -71.10
r 721.3763 11 13 cbr 210 ------- 0 12.0 13.0 12 17 0.00 -100.00 42.30 -71.10
+ 757.5000 14 10 cbr 210 ------- 1 14.0 15.0 5 18 0.00 10.00 12.52 -3.16
- 757.5000 14 10 cbr 210 ------- 1 14.0 15.0 5 18 0.00 10.00 12.52 -3.16
r 757.5088 14 10 cbr 210 ------- 1 14.0 15.0 5 18 0.00 10.00 12.52 -3.16
+ 757.5088 10 15 cbr 210 ------- 1 14.0 15.0 5 18 12.52 -3.16 0.00 -10.00
- 757.5088 10 15 cbr 210 ------- 1 14.0 15.0 5 18 12.52 -3.16 0.00 -10.00
r 757.5161 10 15 cbr 210 ------- 1 14.0 15.0 5 18 12.52 -3.16 0.00 -10.00
+ 781.1300 12 11 cbr 210 ------- 0 12.0 13.0 13 19 37.90 -122.30 0.00 -100.00
- 781.1300 12 11 cbr 210 ------- 0 12.0 13.0 13 19 37.90 -122.30 0.00 -100.00
r 781.2572 12 11 cbr 210 ------- 0 12.0 13.0 13 19 37.90 -122.30 0.00 -100.00
+ 781.2572 11 13 cbr 210 ------- 0 12.0 13.0 13 19 0.00 -100.00 42.30 -71.10
- 781.2572 11 13 cbr 210 ------- 0 12.0 13.0 13 19 0.00 -100.00 42.30 -71.10
r 781.3863 11 13 cbr 210 ------- 0 12.0 13.0 13 19 0.00 -100.00 42.30 -71.10
+ 841.1400 12 11 cbr 210 ------- 0 12.0 13.0 14 20 37.90 -122.30 0.00 -100.00
- 841.1400 12 11 cbr 210 ------- 0 12.0 13.0 14 20 37.90 -122.30 0.00 -100.00
r 841.2672 12 11 cbr 210 ------- 0 12.0 13.0 14 20 37.90 -122.30 0.00 -100.00
+ 841.2672 11 13 cbr 210 ------- 0 12.0 13.0 14 20 0.00 -100.00 42.30 -71.10
- 841.2672 11 13 cbr 210 ------- 0 12.0 13.0 14 20 0.00 -100.00 42.30 -71.10
r 841.3963 11 13 cbr 210 ------- 0 12.0 13.0 14 20 0.00 -100.00 42.30 -71.10
d 848.0000 14 -2 cbr 210 ------- 1 14.0 15.0 6 21 0.00 10.00 -999.00 -999.00
+ 901.1500 12 11 cbr 210 ------- 0 12.0 13.0 15 22 37.90 -122.30 0.00 -100.00
- 901.1500 12 11 cbr 210 ------- 0 12.0 13.0 15 22 37.90 -122.30 0.00 -100.00
r 901.2772 12 11 cbr 210 ------- 0 12.0 13.0 15 22 37.90 -122.30 0.00 -100.00
+ 901.2772 11 13 cbr 210 ------- 0 12.0 13.0 15 22 0.00 -100.00 42.30 -71.10
- 901.2772 11 13 cbr 210 ------- 0 12.0 13.0 15 22 0.00 -100.00 42.30 -71.10
r 901.4063 11 13 cbr 210 ------- 0 12.0 13.0 15 22 0.00 -100.00 42.30 -71.10
+ 938.5000 14 9 cbr 210 ------- 1 14.0 15.0 7 23 0.00 10.00 -9.39 -3.92
- 938.5000 14 9 cbr 210 ------- 1 14.0 15.0 7 23 0.00 10.00 -9.39 -3.92
r 938.5083 14 9 cbr 210 ------- 1 14.0 15.0 7 23 0.00 10.00 -9.39 -3.92
+ 938.5083 9 15 cbr 210 ------- 1 14.0 15.0 7 23 -9.39 -3.92 0.00 -10.00
- 938.5083 9 15 cbr 210 ------- 1 14.0 15.0 7 23 -9.39 -3.92 0.00 -10.00
r 938.5146 9 15 cbr 210 ------- 1 14.0 15.0 7 23 -9.39 -3.92 0.00 -10.00
+ 961.1600 12 11 cbr 210 ------- 0 12.0 13.0 16 24 37.90 -122.30 0.00 -100.00
- 961.1600 12 11 cbr 210 ------- 0 12.0 13.0 16 24 37.90 -122.30 0.00 -100.00
r 961.2872 12 11 cbr 210 ------- 0 12.0 13.0 16 24 37.90 -122.30 0.00 -100.00
+ 961.2872 11 13 cbr 210 ------- 0 12.0 13.0 16 24 0.00 -100.00 42.30 -71.10
- 961.2872 11 13 cbr 210 ------- 0 12.0 13.0 16 24 0.00 -100.00 42.30 -71.10
r 961.4163 11 13 cbr 210 ------- 0 12.0 13.0 16 24 0.00 -100.00 42.30 -71.10
+ 1021.1700 12 11 cbr 210 ------- 0 12.0 13.0 17 25 37.90 -122.30 0.00 -100.00
- 1021.1700 12 11 cbr 210 ------- 0 12.0 13.0 17 25 37.90 -122.30 0.00 -100.00
r 1021.2972 12 11 cbr 210 ------- 0 12.0 13.0 17 25 37.90 -122.30 0.00 -100.00
+ 1021.2972 11 13 cbr 210 ------- 0 12.0 13.0 17 25 0.00 -100.00 42.30 -71.10
- 1021.2972 11 13 cbr 210 ------- 0 12.0 13.0 17 25 0.00 -100.00 42.30 -71.10
r 1021.4263 11 13 cbr 210 ------- 0 12.0 13.0 17 25 0.00 -100.00 42.30 -71.10
+ 1029.0000 14 9 cbr 210 ------- 1 14.0 15.0 8 26 0.00 10.00 -3.99 -4.30
- 1029.0000 14 9 cbr 210 ------- 1 14.0 15.0 8 26 0.00 10.00 -3.99 -4.30
r 1029.0076 14 9 cbr 210 ------- 1 14.0 15.0 8 26 0.00 10.00 -3.99 -4.30
+ 1029.0076 9 15 cbr 210 ------- 1 14.0 15.0 8 26 -3.99 -4.30 0.00 -10.00
- 1029.0076 9 15 cbr 210 ------- 1 14.0 15.0 8 26 -3.99 -4.30 0.00 -10.00
r 1029.0126 9 15 cbr 210 ------- 1 14.0 15.0 8 26 -3.99 -4.30 0.00 -10.00
+ 1081.1800 12 11 cbr 210 ------- 0 12.0 13.0 18 27 37.90 -122.30 0.00 -100.00
- 1081.1800 12 11 cbr 210 ------- 0 12.0 13.0 18 27 37.90 -122.30 0.00 -100.00
r 1081.3072 12 11 cbr 210 ------- 0 12.0 13.0 18 27 37.90 -122.30 0.00 -100.00
+ 1081.3072 11 13 cbr 210 ------- 0 12.0 13.0 18 27 0.00 -100.00 42.30 -71.10
- 1081.3072 11 13 cbr 210 ------- 0 12.0 13.0 18 27 0.00 -100.00 42.30 -71.10
r 1081.4363 11 13 cbr 210 ------- 0 12.0 13.0 18 27 0.00 -100.00 42.30 -71.10
+ 1119.5000 14 9 cbr 210 ------- 1 14.0 15.0 9 28 0.00 10.00 1.42 -4.68
- 1119.5000 14 9 cbr 210 ------- 1 14.0 15.0 9 28 0.00 10.00 1.42 -4.68
r 1119.5075 14 9 cbr 210 ------- 1 14.0 15.0 9 28 0.00 10.00 1.42 -4.68
+ 1119.5075 9 15 cbr 210 ------- 1 14.0 15.0 9 28 1.42 -4.68 0.00 -10.00
- 1119.5075 9 15 cbr 210 ------- 1 14.0 15.0 9 28 1.42 -4.68 0.00 -10.00
r 1119.5121 9 15 cbr 210 ------- 1 14.0 15.0 9 28 1.42 -4.68 0.00 -10.00
+ 1141.1900 12 11 cbr 210 ------- 0 12.0 13.0 19 29 37.90 -122.30 0.00 -100.00
- 1141.1900 12 11 cbr 210 ------- 0 12.0 13.0 19 29 37.90 -122.30 0.00 -100.00
r 1141.3172 12 11 cbr 210 ------- 0 12.0 13.0 19 29 37.90 -122.30 0.00 -100.00
+ 1141.3172 11 13 cbr 210 ------- 0 12.0 13.0 19 29 0.00 -100.00 42.30 -71.10
- 1141.3172 11 13 cbr 210 ------- 0 12.0 13.0 19 29 0.00 -100.00 42.30 -71.10
r 1141.4463 11 13 cbr 210 ------- 0 12.0 13.0 19 29 0.00 -100.00 42.30 -71.10
+ 1201.2000 12 11 cbr 210 ------- 0 12.0 13.0 20 30 37.90 -122.30 0.00 -100.00
- 1201.2000 12 11 cbr 210 ------- 0 12.0 13.0 20 30 37.90 -122.30 0.00 -100.00
r 1201.3272 12 11 cbr 210 ------- 0 12.0 13.0 20 30 37.90 -122.30 0.00 -100.00
+ 1201.3272 11 13 cbr 210 ------- 0 12.0 13.0 20 30 0.00 -100.00 42.30 -71.10
- 1201.3272 11 13 cbr 210 ------- 0 12.0 13.0 20 30 0.00 -100.00 42.30 -71.10
r 1201.4563 11 13 cbr 210 ------- 0 12.0 13.0 20 30 0.00 -100.00 42.30 -71.10
+ 1210.0000 14 9 cbr 210 ------- 1 14.0 15.0 10 31 0.00 10.00 6.83 -5.06
- 1210.0000 14 9 cbr 210 ------- 1 14.0 15.0 10 31 0.00 10.00 6.83 -5.06
r 1210.0082 14 9 cbr 210 ------- 1 14.0 15.0 10 31 0.00 10.00 6.83 -5.06
+ 1210.0082 9 15 cbr 210 ------- 1 14.0 15.0 10 31 6.83 -5.06 0.00 -10.00
- 1210.0082 9 15 cbr 210 ------- 1 14.0 15.0 10 31 6.83 -5.06 0.00 -10.00
r 1210.0136 9 15 cbr 210 ------- 1 14.0 15.0 10 31 6.83 -5.06 0.00 -10.00
+ 1261.2100 12 11 cbr 210 ------- 0 12.0 13.0 21 32 37.90 -122.30 0.00 -100.00
- 1261.2100 12 11 cbr 210 ------- 0 12.0 13.0 21 32 37.90 -122.30 0.00 -100.00
r 1261.3372 12 11 cbr 210 ------- 0 12.0 13.0 21 32 37.90 -122.30 0.00 -100.00
+ 1261.3372 11 13 cbr 210 ------- 0 12.0 13.0 21 32 0.00 -100.00 42.30 -71.10
- 1261.3372 11 13 cbr 210 ------- 0 12.0 13.0 21 32 0.00 -100.00 42.30 -71.10
r 1261.4663 11 13 cbr 210 ------- 0 12.0 13.0 21 32 0.00 -100.00 42.30 -71.10
+ 1300.5000 14 9 cbr 210 ------- 1 14.0 15.0 11 33 0.00 10.00 12.23 -5.43
- 1300.5000 14 9 cbr 210 ------- 1 14.0 15.0 11 33 0.00 10.00 12.23 -5.43
r 1300.5093 14 9 cbr 210 ------- 1 14.0 15.0 11 33 0.00 10.00 12.23 -5.43
+ 1300.5093 9 15 cbr 210 ------- 1 14.0 15.0 11 33 12.23 -5.43 0.00 -10.00
- 1300.5093 9 15 cbr 210 ------- 1 14.0 15.0 11 33 12.23 -5.43 0.00 -10.00
r 1300.5163 9 15 cbr 210 ------- 1 14.0 15.0 11 33 12.23 -5.43 0.00 -10.00
+ 1321.2200 12 11 cbr 210 ------- 0 12.0 13.0 22 34 37.90 -122.30 0.00 -100.00
- 1321.2200 12 11 cbr 210 ------- 0 12.0 13.0 22 34 37.90 -122.30 0.00 -100.00
r 1321.3472 12 11 cbr 210 ------- 0 12.0 13.0 22 34 37.90 -122.30 0.00 -100.00
+ 1321.3472 11 13 cbr 210 ------- 0 12.0 13.0 22 34 0.00 -100.00 42.30 -71.10
- 1321.3472 11 13 cbr 210 ------- 0 12.0 13.0 22 34 0.00 -100.00 42.30 -71.10
r 1321.4763 11 13 cbr 210 ------- 0 12.0 13.0 22 34 0.00 -100.00 42.30 -71.10
+ 1381.2300 12 11 cbr 210 ------- 0 12.0 13.0 23 35 37.90 -122.30 0.00 -100.00
- 1381.2300 12 11 cbr 210 ------- 0 12.0 13.0 23 35 37.90 -122.30 0.00 -100.00
r 1381.3572 12 11 cbr 210 ------- 0 12.0 13.0 23 35 37.90 -122.30 0.00 -100.00
+ 1381.3572 11 13 cbr 210 ------- 0 12.0 13.0 23 35 0.00 -100.00 42.30 -71.10
- 1381.3572 11 13 cbr 210 ------- 0 12.0 13.0 23 35 0.00 -100.00 42.30 -71.10
r 1381.4863 11 13 cbr 210 ------- 0 12.0 13.0 23 35 0.00 -100.00 42.30 -71.10
d 1391.0000 14 -2 cbr 210 ------- 1 14.0 15.0 12 36 0.00 10.00 -999.00 -999.00
+ 1441.2400 12 11 cbr 210 ------- 0 12.0 13.0 24 37 37.90 -122.30 0.00 -100.00
- 1441.2400 12 11 cbr 210 ------- 0 12.0 13.0 24 37 37.90 -122.30 0.00 -100.00
r 1441.3672 12 11 cbr 210 ------- 0 12.0 13.0 24 37 37.90 -122.30 0.00 -100.00
+ 1441.3672 11 13 cbr 210 ------- 0 12.0 13.0 24 37 0.00 -100.00 42.30 -71.10
- 1441.3672 11 13 cbr 210 ------- 0 12.0 13.0 24 37 0.00 -100.00 42.30 -71.10
r 1441.4963 11 13 cbr 210 ------- 0 12.0 13.0 24 37 0.00 -100.00 42.30 -71.10
+ 1481.5000 14 8 cbr 210 ------- 1 14.0 15.0 13 38 0.00 10.00 -9.69 -6.19
- 1481.5000 14 8 cbr 210 ------- 1 14.0 15.0 13 38 0.00 10.00 -9.69 -6.19
r 1481.5090 14 8 cbr 210 ------- 1 14.0 15.0 13 38 0.00 10.00 -9.69 -6.19
+ 1481.5090 8 15 cbr 210 ------- 1 14.0 15.0 13 38 -9.69 -6.19 0.00 -10.00
- 1481.5090 8 15 cbr 210 ------- 1 14.0 15.0 13 38 -9.69 -6.19 0.00 -10.00
r 1481.5151 8 15 cbr 210 ------- 1 14.0 15.0 13 38 -9.69 -6.19 0.00 -10.00
+ 1501.2500 12 11 cbr 210 ------- 0 12.0 13.0 25 39 37.90 -122.30 0.00 -100.00
- 1501.2500 12 11 cbr 210 ------- 0 12.0 13.0 25 39 37.90 -122.30 0.00 -100.00
r 1501.3772 12 11 cbr 210 ------- 0 12.0 13.0 25 39 37.90 -122.30 0.00 -100.00
+ 1501.3772 11 13 cbr 210 ------- 0 12.0 13.0 25 39 0.00 -100.00 42.30 -71.10
- 1501.3772 11 13 cbr 210 ------- 0 12.0 13.0 25 39 0.00 -100.00 42.30 -71.10
r 1501.5063 11 13 cbr 210 ------- 0 12.0 13.0 25 39 0.00 -100.00 42.30 -71.10
+ 1561.2600 12 11 cbr 210 ------- 0 12.0 13.0 26 40 37.90 -122.30 0.00 -100.00
- 1561.2600 12 11 cbr 210 ------- 0 12.0 13.0 26 40 37.90 -122.30 0.00 -100.00
r 1561.3872 12 11 cbr 210 ------- 0 12.0 13.0 26 40 37.90 -122.30 0.00 -100.00
+ 1561.3872 11 13 cbr 210 ------- 0 12.0 13.0 26 40 0.00 -100.00 42.30 -71.10
- 1561.3872 11 13 cbr 210 ------- 0 12.0 13.0 26 40 0.00 -100.00 42.30 -71.10
r 1561.5163 11 13 cbr 210 ------- 0 12.0 13.0 26 40 0.00 -100.00 42.30 -71.10
+ 1572.0000 14 8 cbr 210 ------- 1 14.0 15.0 14 41 0.00 10.00 -4.28 -6.57
- 1572.0000 14 8 cbr 210 ------- 1 14.0 15.0 14 41 0.00 10.00 -4.28 -6.57
r 1572.0084 14 8 cbr 210 ------- 1 14.0 15.0 14 41 0.00 10.00 -4.28 -6.57
+ 1572.0084 8 15 cbr 210 ------- 1 14.0 15.0 14 41 -4.28 -6.57 0.00 -10.00
- 1572.0084 8 15 cbr 210 ------- 1 14.0 15.0 14 41 -4.28 -6.57 0.00 -10.00
r 1572.0130 8 15 cbr 210 ------- 1 14.0 15.0 14 41 -4.28 -6.57 0.00 -10.00
+ 1621.2700 12 11 cbr 210 ------- 0 12.0 13.0 27 42 37.90 -122.30 0.00 -100.00
- 1621.2700 12 11 cbr 210 ------- 0 12.0 13.0 27 42 37.90 -122.30 0.00 -100.00
r 1621.3972 12 11 cbr 210 ------- 0 12.0 13.0 27 42 37.90 -122.30 0.00 -100.00
+ 1621.3972 11 13 cbr 210 ------- 0 12.0 13.0 27 42 0.00 -100.00 42.30 -71.10
- 1621.3972 11 13 cbr 210 ------- 0 12.0 13.0 27 42 0.00 -100.00 42.30 -71.10
r 1621.5263 11 13 cbr 210 ------- 0 12.0 13.0 27 42 0.00 -100.00 42.30 -71.10
+ 1662.5000 14 8 cbr 210 ------- 1 14.0 15.0 15 43 0.00 10.00 1.12 -6.95
- 1662.5000 14 8 cbr 210 ------- 1 14.0 15.0 15 43 0.00 10.00 1.12 -6.95
r 1662.5084 14 8 cbr 210 ------- 1 14.0 15.0 15 43 0.00 10.00 1.12 -6.95
+ 1662.5084 8 15 cbr 210 ------- 1 14.0 15.0 15 43 1.12 -6.95 0.00 -10.00
- 1662.5084 8 15 cbr 210 ------- 1 14.0 15.0 15 43 1.12 -6.95 0.00 -10.00
r 1662.5125 8 15 cbr 210 ------- 1 14.0 15.0 15 43 1.12 -6.95 0.00 -10.00
+ 1681.2800 12 11 cbr 210 ------- 0 12.0 13.0 28 44 37.90 -122.30 0.00 -100.00
- 1681.2800 12 11 cbr 210 ------- 0 12.0 13.0 28 44 37.90 -122.30 0.00 -100.00
r 1681.4072 12 11 cbr 210 ------- 0 12.0 13.0 28 44 37.90 -122.30 0.00 -100.00
+ 1681.4072 11 13 cbr 210 ------- 0 12.0 13.0 28 44 0.00 -100.00 42.30 -71.10
- 1681.4072 11 13 cbr 210 ------- 0 12.0 13.0 28 44 0.00 -100.00 42.30 -71.10
r 1681.5363 11 13 cbr 210 ------- 0 12.0 13.0 28 44 0.00 -100.00 42.30 -71.10
+ 1741.2900 12 11 cbr 210 ------- 0 12.0 13.0 29 45 37.90 -122.30 0.00 -100.00
- 1741.2900 12 11 cbr 210 ------- 0 12.0 13.0 29 45 37.90 -122.30 0.00 -100.00
r 1741.4172 12 11 cbr 210 ------- 0 12.0 13.0 29 45 37.90 -122.30 0.00 -100.00
+ 1741.4172 11 13 cbr 210 ------- 0 12.0 13.0 29 45 0.00 -100.00 42.30 -71.10
- 1741.4172 11 13 cbr 210 ------- 0 12.0 13.0 29 45 0.00 -100.00 42.30 -71.10
r 1741.5463 11 13 cbr 210 ------- 0 12.0 13.0 29 45 0.00 -100.00 42.30 -71.10
+ 1753.0000 14 8 cbr 210 ------- 1 14.0 15.0 16 46 0.00 10.00 6.53 -7.32
- 1753.0000 14 8 cbr 210 ------- 1 14.0 15.0 16 46 0.00 10.00 6.53 -7.32
r 1753.0089 14 8 cbr 210 ------- 1 14.0 15.0 16 46 0.00 10.00 6.53 -7.32
+ 1753.0089 8 15 cbr 210 ------- 1 14.0 15.0 16 46 6.53 -7.32 0.00 -10.00
- 1753.0089 8 15 cbr 210 ------- 1 14.0 15.0 16 46 6.53 -7.32 0.00 -10.00
r 1753.0139 8 15 cbr 210 ------- 1 14.0 15.0 16 46 6.53 -7.32 0.00 -10.00
+ 1801.3000 12 11 cbr 210 ------- 0 12.0 13.0 30 47 37.90 -122.30 0.00 -100.00
- 1801.3000 12 11 cbr 210 ------- 0 12.0 13.0 30 47 37.90 -122.30 0.00 -100.00
r 1801.4272 12 11 cbr 210 ------- 0 12.0 13.0 30 47 37.90 -122.30 0.00 -100.00
+ 1801.4272 11 13 cbr 210 ------- 0 12.0 13.0 30 47 0.00 -100.00 42.30 -71.10
- 1801.4272 11 13 cbr 210 ------- 0 12.0 13.0 30 47 0.00 -100.00 42.30 -71.10
r 1801.5563 11 13 cbr 210 ------- 0 12.0 13.0 30 47 0.00 -100.00 42.30 -71.10
d 1843.5000 14 -2 cbr 210 ------- 1 14.0 15.0 17 48 0.00 10.00 -999.00 -999.00
+ 1861.3100 12 11 cbr 210 ------- 0 12.0 13.0 31 49 37.90 -122.30 0.00 -100.00
- 1861.3100 12 11 cbr 210 ------- 0 12.0 13.0 31 49 37.90 -122.30 0.00 -100.00
r 1861.4372 12 11 cbr 210 ------- 0 12.0 13.0 31 49 37.90 -122.30 0.00 -100.00
+ 1861.4372 11 13 cbr 210 ------- 0 12.0 13.0 31 49 0.00 -100.00 42.30 -71.10
- 1861.4372 11 13 cbr 210 ------- 0 12.0 13.0 31 49 0.00 -100.00 42.30 -71.10
r 1861.5663 11 13 cbr 210 ------- 0 12.0 13.0 31 49 0.00 -100.00 42.30 -71.10
+ 1921.3200 12 11 cbr 210 ------- 0 12.0 13.0 32 50 37.90 -122.30 0.00 -100.00
- 1921.3200 12 11 cbr 210 ------- 0 12.0 13.0 32 50 37.90 -122.30 0.00 -100.00
r 1921.4472 12 11 cbr 210 ------- 0 12.0 13.0 32 50 37.90 -122.30 0.00 -100.00
+ 1921.4472 11 13 cbr 210 ------- 0 12.0 13.0 32 50 0.00 -100.00 42.30 -71.10
- 1921.4472 11 13 cbr 210 ------- 0 12.0 13.0 32 50 0.00 -100.00 42.30 -71.10
r 1921.5763 11 13 cbr 210 ------- 0 12.0 13.0 32 50 0.00 -100.00 42.30 -71.10
d 1934.0000 14 -2 cbr 210 ------- 1 14.0 15.0 18 51 0.00 10.00 -999.00 -999.00
+ 1981.3300 12 11 cbr 210 ------- 0 12.0 13.0 33 52 37.90 -122.30 0.00 -100.00
- 1981.3300 12 11 cbr 210 ------- 0 12.0 13.0 33 52 37.90 -122.30 0.00 -100.00
r 1981.4572 12 11 cbr 210 ------- 0 12.0 13.0 33 52 37.90 -122.30 0.00 -100.00
+ 1981.4572 11 13 cbr 210 ------- 0 12.0 13.0 33 52 0.00 -100.00 42.30 -71.10
- 1981.4572 11 13 cbr 210 ------- 0 12.0 13.0 33 52 0.00 -100.00 42.30 -71.10
r 1981.5863 11 13 cbr 210 ------- 0 12.0 13.0 33 52 0.00 -100.00 42.30 -71.10
d 2024.5000 14 -2 cbr 210 ------- 1 14.0 15.0 19 53 0.00 10.00 -999.00 -999.00
+ 2041.3400 12 11 cbr 210 ------- 0 12.0 13.0 34 54 37.90 -122.30 0.00 -100.00
- 2041.3400 12 11 cbr 210 ------- 0 12.0 13.0 34 54 37.90 -122.30 0.00 -100.00
r 2041.4672 12 11 cbr 210 ------- 0 12.0 13.0 34 54 37.90 -122.30 0.00 -100.00
+ 2041.4672 11 13 cbr 210 ------- 0 12.0 13.0 34 54 0.00 -100.00 42.30 -71.10
- 2041.4672 11 13 cbr 210 ------- 0 12.0 13.0 34 54 0.00 -100.00 42.30 -71.10
r 2041.5963 11 13 cbr 210 ------- 0 12.0 13.0 34 54 0.00 -100.00 42.30 -71.10
+ 2101.3500 12 11 cbr 210 ------- 0 12.0 13.0 35 55 37.90 -122.30 0.00 -100.00
- 2101.3500 12 11 cbr 210 ------- 0 12.0 13.0 35 55 37.90 -122.30 0.00 -100.00
r 2101.4772 12 11 cbr 210 ------- 0 12.0 13.0 35 55 37.90 -122.30 0.00 -100.00
+ 2101.4772 11 13 cbr 210 ------- 0 12.0 13.0 35 55 0.00 -100.00 42.30 -71.10
- 2101.4772 11 13 cbr 210 ------- 0 12.0 13.0 35 55 0.00 -100.00 42.30 -71.10
r 2101.6063 11 13 cbr 210 ------- 0 12.0 13.0 35 55 0.00 -100.00 42.30 -71.10
+ 2115.0000 14 7 cbr 210 ------- 1 14.0 15.0 20 56 0.00 10.00 -4.58 -8.84
- 2115.0000 14 7 cbr 210 ------- 1 14.0 15.0 20 56 0.00 10.00 -4.58 -8.84
r 2115.0092 14 7 cbr 210 ------- 1 14.0 15.0 20 56 0.00 10.00 -4.58 -8.84
+ 2115.0092 7 15 cbr 210 ------- 1 14.0 15.0 20 56 -4.58 -8.84 0.00 -10.00
- 2115.0092 7 15 cbr 210 ------- 1 14.0 15.0 20 56 -4.58 -8.84 0.00 -10.00
r 2115.0136 7 15 cbr 210 ------- 1 14.0 15.0 20 56 -4.58 -8.84 0.00 -10.00
+ 2161.3600 12 11 cbr 210 ------- 0 12.0 13.0 36 57 37.90 -122.30 0.00 -100.00
- 2161.3600 12 11 cbr 210 ------- 0 12.0 13.0 36 57 37.90 -122.30 0.00 -100.00
r 2161.4872 12 11 cbr 210 ------- 0 12.0 13.0 36 57 37.90 -122.30 0.00 -100.00
+ 2161.4872 11 13 cbr 210 ------- 0 12.0 13.0 36 57 0.00 -100.00 42.30 -71.10
- 2161.4872 11 13 cbr 210 ------- 0 12.0 13.0 36 57 0.00 -100.00 42.30 -71.10
r 2161.6163 11 13 cbr 210 ------- 0 12.0 13.0 36 57 0.00 -100.00 42.30 -71.10
+ 2205.5000 14 7 cbr 210 ------- 1 14.0 15.0 21 58 0.00 10.00 0.83 -9.21
- 2205.5000 14 7 cbr 210 ------- 1 14.0 15.0 21 58 0.00 10.00 0.83 -9.21
r 2205.5092 14 7 cbr 210 ------- 1 14.0 15.0 21 58 0.00 10.00 0.83 -9.21
+ 2205.5092 7 15 cbr 210 ------- 1 14.0 15.0 21 58 0.83 -9.21 0.00 -10.00
- 2205.5092 7 15 cbr 210 ------- 1 14.0 15.0 21 58 0.83 -9.21 0.00 -10.00
r 2205.5130 7 15 cbr 210 ------- 1 14.0 15.0 21 58 0.83 -9.21 0.00 -10.00
+ 2221.3700 12 11 cbr 210 ------- 0 12.0 13.0 37 59 37.90 -122.30 0.00 -100.00
- 2221.3700 12 11 cbr 210 ------- 0 12.0 13.0 37 59 37.90 -122.30 0.00 -100.00
r 2221.4972 12 11 cbr 210 ------- 0 12.0 13.0 37 59 37.90 -122.30 0.00 -100.00
+ 2221.4972 11 13 cbr 210 ------- 0 12.0 13.0 37 59 0.00 -100.00 42.30 -71.10
- 2221.4972 11 13 cbr 210 ------- 0 12.0 13.0 37 59 0.00 -100.00 42.30 -71.10
r 2221.6263 11 13 cbr 210 ------- 0 12.0 13.0 37 59 0.00 -100.00 42.30 -71.10
+ 2281.3800 12 11 cbr 210 ------- 0 12.0 13.0 38 60 37.90 -122.30 0.00 -100.00
- 2281.3800 12 11 cbr 210 ------- 0 12.0 13.0 38 60 37.90 -122.30 0.00 -100.00
r 2281.5072 12 11 cbr 210 ------- 0 12.0 13.0 38 60 37.90 -122.30 0.00 -100.00
+ 2281.5072 11 13 cbr 210 ------- 0 12.0 13.0 38 60 0.00 -100.00 42.30 -71.10
- 2281.5072 11 13 cbr 210 ------- 0 12.0 13.0 38 60 0.00 -100.00 42.30 -71.10
r 2281.6363 11 13 cbr 210 ------- 0 12.0 13.0 38 60 0.00 -100.00 42.30 -71.10
d 2296.0000 14 -2 cbr 210 ------- 1 14.0 15.0 22 61 0.00 10.00 -999.00 -999.00
+ 2341.3900 12 11 cbr 210 ------- 0 12.0 13.0 39 62 37.90 -122.30 0.00 -100.00
- 2341.3900 12 11 cbr 210 ------- 0 12.0 13.0 39 62 37.90 -122.30 0.00 -100.00
r 2341.5172 12 11 cbr 210 ------- 0 12.0 13.0 39 62 37.90 -122.30 0.00 -100.00
+ 2341.5172 11 13 cbr 210 ------- 0 12.0 13.0 39 62 0.00 -100.00 42.30 -71.10
- 2341.5172 11 13 cbr 210 ------- 0 12.0 13.0 39 62 0.00 -100.00 42.30 -71.10
r 2341.6463 11 13 cbr 210 ------- 0 12.0 13.0 39 62 0.00 -100.00 42.30 -71.10
d 2386.5000 14 -2 cbr 210 ------- 1 14.0 15.0 23 63 0.00 10.00 -999.00 -999.00
+ 2401.4000 12 11 cbr 210 ------- 0 12.0 13.0 40 64 37.90 -122.30 0.00 -100.00
- 2401.4000 12 11 cbr 210 ------- 0 12.0 13.0 40 64 37.90 -122.30 0.00 -100.00
r 2401.5272 12 11 cbr 210 ------- 0 12.0 13.0 40 64 37.90 -122.30 0.00 -100.00
+ 2401.5272 11 13 cbr 210 ------- 0 12.0 13.0 40 64 0.00 -100.00 42.30 -71.10
- 2401.5272 11 13 cbr 210 ------- 0 12.0 13.0 40 64 0.00 -100.00 42.30 -71.10
r 2401.6563 11 13 cbr 210 ------- 0 12.0 13.0 40 64 0.00 -100.00 42.30 -71.10
+ 2461.4100 12 11 cbr 210 ------- 0 12.0 13.0 41 65 37.90 -122.30 0.00 -100.00
- 2461.4100 12 11 cbr 210 ------- 0 12.0 13.0 41 65 37.90 -122.30 0.00 -100.00
r 2461.5372 12 11 cbr 210 ------- 0 12.0 13.0 41 65 37.90 -122.30 0.00 -100.00
+ 2461.5372 11 13 cbr 210 ------- 0 12.0 13.0 41 65 0.00 -100.00 42.30 -71.10
- 2461.5372 11 13 cbr 210 ------- 0 12.0 13.0 41 65 0.00 -100.00 42.30 -71.10
r 2461.6663 11 13 cbr 210 ------- 0 12.0 13.0 41 65 0.00 -100.00 42.30 -71.10
d 2477.0000 14 -2 cbr 210 ------- 1 14.0 15.0 24 66 0.00 10.00 -999.00 -999.00
+ 2521.4200 12 11 cbr 210 ------- 0 12.0 13.0 42 67 37.90 -122.30 0.00 -100.00
- 2521.4200 12 11 cbr 210 ------- 0 12.0 13.0 42 67 37.90 -122.30 0.00 -100.00
r 2521.5472 12 11 cbr 210 ------- 0 12.0 13.0 42 67 37.90 -122.30 0.00 -100.00
+ 2521.5472 11 13 cbr 210 ------- 0 12.0 13.0 42 67 0.00 -100.00 42.30 -71.10
- 2521.5472 11 13 cbr 210 ------- 0 12.0 13.0 42 67 0.00 -100.00 42.30 -71.10
r 2521.6763 11 13 cbr 210 ------- 0 12.0 13.0 42 67 0.00 -100.00 42.30 -71.10
d 2567.5000 14 -2 cbr 210 ------- 1 14.0 15.0 25 68 0.00 10.00 -999.00 -999.00
+ 2581.4300 12 11 cbr 210 ------- 0 12.0 13.0 43 69 37.90 -122.30 0.00 -100.00
- 2581.4300 12 11 cbr 210 ------- 0 12.0 13.0 43 69 37.90 -122.30 0.00 -100.00
r 2581.5572 12 11 cbr 210 ------- 0 12.0 13.0 43 69 37.90 -122.30 0.00 -100.00
+ 2581.5572 11 13 cbr 210 ------- 0 12.0 13.0 43 69 0.00 -100.00 42.30 -71.10
- 2581.5572 11 13 cbr 210 ------- 0 12.0 13.0 43 69 0.00 -100.00 42.30 -71.10
r 2581.6863 11 13 cbr 210 ------- 0 12.0 13.0 43 69 0.00 -100.00 42.30 -71.10
+ 2641.4400 12 11 cbr 210 ------- 0 12.0 13.0 44 70 37.90 -122.30 0.00 -100.00
- 2641.4400 12 11 cbr 210 ------- 0 12.0 13.0 44 70 37.90 -122.30 0.00 -100.00
r 2641.5672 12 11 cbr 210 ------- 0 12.0 13.0 44 70 37.90 -122.30 0.00 -100.00
+ 2641.5672 11 13 cbr 210 ------- 0 12.0 13.0 44 70 0.00 -100.00 42.30 -71.10
- 2641.5672 11 13 cbr 210 ------- 0 12.0 13.0 44 70 0.00 -100.00 42.30 -71.10
r 2641.6963 11 13 cbr 210 ------- 0 12.0 13.0 44 70 0.00 -100.00 42.30 -71.10
d 2658.0000 14 -2 cbr 210 ------- 1 14.0 15.0 26 71 0.00 10.00 -999.00 -999.00
+ 2701.4500 12 11 cbr 210 ------- 0 12.0 13.0 45 72 37.90 -122.30 0.00 -100.00
- 2701.4500 12 11 cbr 210 ------- 0 12.0 13.0 45 72 37.90 -122.30 0.00 -100.00
r 2701.5772 12 11 cbr 210 ------- 0 12.0 13.0 45 72 37.90 -122.30 0.00 -100.00
+ 2701.5772 11 13 cbr 210 ------- 0 12.0 13.0 45 72 0.00 -100.00 42.30 -71.10
- 2701.5772 11 13 cbr 210 ------- 0 12.0 13.0 45 72 0.00 -100.00 42.30 -71.10
r 2701.7063 11 13 cbr 210 ------- 0 12.0 13.0 45 72 0.00 -100.00 42.30 -71.10