+ 1.0000 1 2 cbr 210 ------- 0 1.0 2.0 0 0 40.90 -73.90 37.80 -122.40
- 1.0000 1 2 cbr 210 ------- 0 1.0 2.0 0 0 40.90 -73.90 37.80 -122.40
e 1.2541 1 2 cbr 210 ------- 0 1.0 2.0 0 0 40.90 -73.90 37.80 -122.40
+ 7.0000 1 2 tcp 1000 ------- 0 1.1 2.1 0 1 40.90 -73.90 37.80 -122.40
- 7.0000 1 2 tcp 1000 ------- 0 1.1 2.1 0 1 40.90 -73.90 37.80 -122.40
+ 7.0000 1 2 cbr 210 ------- 0 1.0 2.0 1 2 40.90 -73.90 37.80 -122.40
- 7.0041 1 2 cbr 210 ------- 0 1.0 2.0 1 2 40.90 -73.90 37.80 -122.40
r 7.2572 1 2 tcp 1000 ------- 0 1.1 2.1 0 1 40.90 -73.90 37.80 -122.40
+ 7.2572 2 1 ack 40 ------- 0 2.1 1.1 0 3 37.80 -122.40 40.90 -73.90
- 7.2572 2 1 ack 40 ------- 0 2.1 1.1 0 3 37.80 -122.40 40.90 -73.90
r 7.2581 1 2 cbr 210 ------- 0 1.0 2.0 1 2 40.90 -73.90 37.80 -122.40
r 7.5106 2 1 ack 40 ------- 0 2.1 1.1 0 3 37.80 -122.40 40.90 -73.90
+ 7.5106 1 2 tcp 1000 ------- 0 1.1 2.1 1 4 40.90 -73.90 37.80 -122.40
- 7.5106 1 2 tcp 1000 ------- 0 1.1 2.1 1 4 40.90 -73.90 37.80 -122.40
+ 7.5106 1 2 tcp 1000 ------- 0 1.1 2.1 2 5 40.90 -73.90 37.80 -122.40
- 7.5147 1 2 tcp 1000 ------- 0 1.1 2.1 2 5 40.90 -73.90 37.80 -122.40
r 7.7679 1 2 tcp 1000 ------- 0 1.1 2.1 1 4 40.90 -73.90 37.80 -122.40
+ 7.7679 2 1 ack 40 ------- 0 2.1 1.1 1 6 37.80 -122.40 40.90 -73.90
- 7.7679 2 1 ack 40 ------- 0 2.1 1.1 1 6 37.80 -122.40 40.90 -73.90
r 7.7719 1 2 tcp 1000 ------- 0 1.1 2.1 2 5 40.90 -73.90 37.80 -122.40
+ 7.7719 2 1 ack 40 ------- 0 2.1 1.1 2 7 37.80 -122.40 40.90 -73.90
- 7.7719 2 1 ack 40 ------- 0 2.1 1.1 2 7 37.80 -122.40 40.90 -73.90
r 8.0213 2 1 ack 40 ------- 0 2.1 1.1 1 6 37.80 -122.40 40.90 -73.90
+ 8.0213 1 2 tcp 1000 ------- 0 1.1 2.1 3 8 40.90 -73.90 37.80 -122.40
- 8.0213 1 2 tcp 1000 ------- 0 1.1 2.1 3 8 40.90 -73.90 37.80 -122.40
+ 8.0213 1 2 tcp 1000 ------- 0 1.1 2.1 4 9 40.90 -73.90 37.80 -122.40
- 8.0253 1 2 tcp 1000 ------- 0 1.1 2.1 4 9 40.90 -73.90 37.80 -122.40
r 8.0253 2 1 ack 40 ------- 0 2.1 1.1 2 7 37.80 -122.40 40.90 -73.90
+ 8.0253 1 2 tcp 1000 ------- 0 1.1 2.1 5 10 40.90 -73.90 37.80 -122.40
+ 8.0253 1 2 tcp 1000 ------- 0 1.1 2.1 6 11 40.90 -73.90 37.80 -122.40
- 8.0294 1 2 tcp 1000 ------- 0 1.1 2.1 5 10 40.90 -73.90 37.80 -122.40
- 8.0335 1 2 tcp 1000 ------- 0 1.1 2.1 6 11 40.90 -73.90 37.80 -122.40
r 8.2785 1 2 tcp 1000 ------- 0 1.1 2.1 3 8 40.90 -73.90 37.80 -122.40
+ 8.2785 2 1 ack 40 ------- 0 2.1 1.1 3 12 37.80 -122.40 40.90 -73.90
- 8.2785 2 1 ack 40 ------- 0 2.1 1.1 3 12 37.80 -122.40 40.90 -73.90
r 8.2826 1 2 tcp 1000 ------- 0 1.1 2.1 4 9 40.90 -73.90 37.80 -122.40
+ 8.2826 2 1 ack 40 ------- 0 2.1 1.1 4 13 37.80 -122.40 40.90 -73.90
- 8.2826 2 1 ack 40 ------- 0 2.1 1.1 4 13 37.80 -122.40 40.90 -73.90
r 8.2866 1 2 tcp 1000 ------- 0 1.1 2.1 5 10 40.90 -73.90 37.80 -122.40
+ 8.2866 2 1 ack 40 ------- 0 2.1 1.1 5 14 37.80 -122.40 40.90 -73.90
- 8.2866 2 1 ack 40 ------- 0 2.1 1.1 5 14 37.80 -122.40 40.90 -73.90
r 8.2907 1 2 tcp 1000 ------- 0 1.1 2.1 6 11 40.90 -73.90 37.80 -122.40
+ 8.2907 2 1 ack 40 ------- 0 2.1 1.1 6 15 37.80 -122.40 40.90 -73.90
- 8.2907 2 1 ack 40 ------- 0 2.1 1.1 6 15 37.80 -122.40 40.90 -73.90
r 8.5319 2 1 ack 40 ------- 0 2.1 1.1 3 12 37.80 -122.40 40.90 -73.90
+ 8.5319 1 2 tcp 1000 ------- 0 1.1 2.1 7 16 40.90 -73.90 37.80 -122.40
- 8.5319 1 2 tcp 1000 ------- 0 1.1 2.1 7 16 40.90 -73.90 37.80 -122.40
+ 8.5319 1 2 tcp 1000 ------- 0 1.1 2.1 8 17 40.90 -73.90 37.80 -122.40
- 8.5360 1 2 tcp 1000 ------- 0 1.1 2.1 8 17 40.90 -73.90 37.80 -122.40
r 8.5360 2 1 ack 40 ------- 0 2.1 1.1 4 13 37.80 -122.40 40.90 -73.90
+ 8.5360 1 2 tcp 1000 ------- 0 1.1 2.1 9 18 40.90 -73.90 37.80 -122.40
+ 8.5360 1 2 tcp 1000 ------- 0 1.1 2.1 10 19 40.90 -73.90 37.80 -122.40
- 8.5400 1 2 tcp 1000 ------- 0 1.1 2.1 9 18 40.90 -73.90 37.80 -122.40
r 8.5400 2 1 ack 40 ------- 0 2.1 1.1 5 14 37.80 -122.40 40.90 -73.90
+ 8.5400 1 2 tcp 1000 ------- 0 1.1 2.1 11 20 40.90 -73.90 37.80 -122.40
+ 8.5400 1 2 tcp 1000 ------- 0 1.1 2.1 12 21 40.90 -73.90 37.80 -122.40
- 8.5441 1 2 tcp 1000 ------- 0 1.1 2.1 10 19 40.90 -73.90 37.80 -122.40
r 8.5441 2 1 ack 40 ------- 0 2.1 1.1 6 15 37.80 -122.40 40.90 -73.90
+ 8.5441 1 2 tcp 1000 ------- 0 1.1 2.1 13 22 40.90 -73.90 37.80 -122.40
+ 8.5441 1 2 tcp 1000 ------- 0 1.1 2.1 14 23 40.90 -73.90 37.80 -122.40
- 8.5482 1 2 tcp 1000 ------- 0 1.1 2.1 11 20 40.90 -73.90 37.80 -122.40
- 8.5522 1 2 tcp 1000 ------- 0 1.1 2.1 12 21 40.90 -73.90 37.80 -122.40
- 8.5563 1 2 tcp 1000 ------- 0 1.1 2.1 13 22 40.90 -73.90 37.80 -122.40
- 8.5604 1 2 tcp 1000 ------- 0 1.1 2.1 14 23 40.90 -73.90 37.80 -122.40
r 8.7891 1 2 tcp 1000 ------- 0 1.1 2.1 7 16 40.90 -73.90 37.80 -122.40
+ 8.7891 2 1 ack 40 ------- 0 2.1 1.1 7 24 37.80 -122.40 40.90 -73.90
- 8.7891 2 1 ack 40 ------- 0 2.1 1.1 7 24 37.80 -122.40 40.90 -73.90
r 8.7932 1 2 tcp 1000 ------- 0 1.1 2.1 8 17 40.90 -73.90 37.80 -122.40
+ 8.7932 2 1 ack 40 ------- 0 2.1 1.1 8 25 37.80 -122.40 40.90 -73.90
- 8.7932 2 1 ack 40 ------- 0 2.1 1.1 8 25 37.80 -122.40 40.90 -73.90
r 8.7973 1 2 tcp 1000 ------- 0 1.1 2.1 9 18 40.90 -73.90 37.80 -122.40
+ 8.7973 2 1 ack 40 ------- 0 2.1 1.1 9 26 37.80 -122.40 40.90 -73.90
- 8.7973 2 1 ack 40 ------- 0 2.1 1.1 9 26 37.80 -122.40 40.90 -73.90
r 8.8013 1 2 tcp 1000 ------- 0 1.1 2.1 10 19 40.90 -73.90 37.80 -122.40
+ 8.8013 2 1 ack 40 ------- 0 2.1 1.1 10 27 37.80 -122.40 40.90 -73.90
- 8.8013 2 1 ack 40 ------- 0 2.1 1.1 10 27 37.80 -122.40 40.90 -73.90
r 8.8054 1 2 tcp 1000 ------- 0 1.1 2.1 11 20 40.90 -73.90 37.80 -122.40
+ 8.8054 2 1 ack 40 ------- 0 2.1 1.1 11 28 37.80 -122.40 40.90 -73.90
- 8.8054 2 1 ack 40 ------- 0 2.1 1.1 11 28 37.80 -122.40 40.90 -73.90
r 8.8095 1 2 tcp 1000 ------- 0 1.1 2.1 12 21 40.90 -73.90 37.80 -122.40
+ 8.8095 2 1 ack 40 ------- 0 2.1 1.1 12 29 37.80 -122.40 40.90 -73.90
- 8.8095 2 1 ack 40 ------- 0 2.1 1.1 12 29 37.80 -122.40 40.90 -73.90
r 8.8135 1 2 tcp 1000 ------- 0 1.1 2.1 13 22 40.90 -73.90 37.80 -122.40
+ 8.8135 2 1 ack 40 ------- 0 2.1 1.1 13 30 37.80 -122.40 40.90 -73.90
- 8.8135 2 1 ack 40 ------- 0 2.1 1.1 13 30 37.80 -122.40 40.90 -73.90
r 8.8176 1 2 tcp 1000 ------- 0 1.1 2.1 14 23 40.90 -73.90 37.80 -122.40
+ 8.8176 2 1 ack 40 ------- 0 2.1 1.1 14 31 37.80 -122.40 40.90 -73.90
- 8.8176 2 1 ack 40 ------- 0 2.1 1.1 14 31 37.80 -122.40 40.90 -73.90
r 9.0425 2 1 ack 40 ------- 0 2.1 1.1 7 24 37.80 -122.40 40.90 -73.90
+ 9.0425 1 2 tcp 1000 ------- 0 1.1 2.1 15 32 40.90 -73.90 37.80 -122.40
- 9.0425 1 2 tcp 1000 ------- 0 1.1 2.1 15 32 40.90 -73.90 37.80 -122.40
+ 9.0425 1 2 tcp 1000 ------- 0 1.1 2.1 16 33 40.90 -73.90 37.80 -122.40
- 9.0466 1 2 tcp 1000 ------- 0 1.1 2.1 16 33 40.90 -73.90 37.80 -122.40
r 9.0466 2 1 ack 40 ------- 0 2.1 1.1 8 25 37.80 -122.40 40.90 -73.90
+ 9.0466 1 2 tcp 1000 ------- 0 1.1 2.1 17 34 40.90 -73.90 37.80 -122.40
+ 9.0466 1 2 tcp 1000 ------- 0 1.1 2.1 18 35 40.90 -73.90 37.80 -122.40
- 9.0507 1 2 tcp 1000 ------- 0 1.1 2.1 17 34 40.90 -73.90 37.80 -122.40
r 9.0507 2 1 ack 40 ------- 0 2.1 1.1 9 26 37.80 -122.40 40.90 -73.90
+ 9.0507 1 2 tcp 1000 ------- 0 1.1 2.1 19 36 40.90 -73.90 37.80 -122.40
+ 9.0507 1 2 tcp 1000 ------- 0 1.1 2.1 20 37 40.90 -73.90 37.80 -122.40
- 9.0547 1 2 tcp 1000 ------- 0 1.1 2.1 18 35 40.90 -73.90 37.80 -122.40
r 9.0547 2 1 ack 40 ------- 0 2.1 1.1 10 27 37.80 -122.40 40.90 -73.90
+ 9.0547 1 2 tcp 1000 ------- 0 1.1 2.1 21 38 40.90 -73.90 37.80 -122.40
+ 9.0547 1 2 tcp 1000 ------- 0 1.1 2.1 22 39 40.90 -73.90 37.80 -122.40
- 9.0588 1 2 tcp 1000 ------- 0 1.1 2.1 19 36 40.90 -73.90 37.80 -122.40
r 9.0588 2 1 ack 40 ------- 0 2.1 1.1 11 28 37.80 -122.40 40.90 -73.90
+ 9.0588 1 2 tcp 1000 ------- 0 1.1 2.1 23 40 40.90 -73.90 37.80 -122.40
+ 9.0588 1 2 tcp 1000 ------- 0 1.1 2.1 24 41 40.90 -73.90 37.80 -122.40
- 9.0629 1 2 tcp 1000 ------- 0 1.1 2.1 20 37 40.90 -73.90 37.80 -122.40
r 9.0629 2 1 ack 40 ------- 0 2.1 1.1 12 29 37.80 -122.40 40.90 -73.90
+ 9.0629 1 2 tcp 1000 ------- 0 1.1 2.1 25 42 40.90 -73.90 37.80 -122.40
+ 9.0629 1 2 tcp 1000 ------- 0 1.1 2.1 26 43 40.90 -73.90 37.80 -122.40
- 9.0669 1 2 tcp 1000 ------- 0 1.1 2.1 21 38 40.90 -73.90 37.80 -122.40
r 9.0669 2 1 ack 40 ------- 0 2.1 1.1 13 30 37.80 -122.40 40.90 -73.90
+ 9.0669 1 2 tcp 1000 ------- 0 1.1 2.1 27 44 40.90 -73.90 37.80 -122.40
+ 9.0669 1 2 tcp 1000 ------- 0 1.1 2.1 28 45 40.90 -73.90 37.80 -122.40
- 9.0710 1 2 tcp 1000 ------- 0 1.1 2.1 22 39 40.90 -73.90 37.80 -122.40
r 9.0710 2 1 ack 40 ------- 0 2.1 1.1 14 31 37.80 -122.40 40.90 -73.90
+ 9.0710 1 2 tcp 1000 ------- 0 1.1 2.1 29 46 40.90 -73.90 37.80 -122.40
+ 9.0710 1 2 tcp 1000 ------- 0 1.1 2.1 30 47 40.90 -73.90 37.80 -122.40
- 9.0751 1 2 tcp 1000 ------- 0 1.1 2.1 23 40 40.90 -73.90 37.80 -122.40
- 9.0791 1 2 tcp 1000 ------- 0 1.1 2.1 24 41 40.90 -73.90 37.80 -122.40
- 9.0832 1 2 tcp 1000 ------- 0 1.1 2.1 25 42 40.90 -73.90 37.80 -122.40
- 9.0872 1 2 tcp 1000 ------- 0 1.1 2.1 26 43 40.90 -73.90 37.80 -122.40
- 9.0913 1 2 tcp 1000 ------- 0 1.1 2.1 27 44 40.90 -73.90 37.80 -122.40
- 9.0954 1 2 tcp 1000 ------- 0 1.1 2.1 28 45 40.90 -73.90 37.80 -122.40
- 9.0994 1 2 tcp 1000 ------- 0 1.1 2.1 29 46 40.90 -73.90 37.80 -122.40
- 9.1035 1 2 tcp 1000 ------- 0 1.1 2.1 30 47 40.90 -73.90 37.80 -122.40
r 9.2998 1 2 tcp 1000 ------- 0 1.1 2.1 15 32 40.90 -73.90 37.80 -122.40
+ 9.2998 2 1 ack 40 ------- 0 2.1 1.1 15 48 37.80 -122.40 40.90 -73.90
- 9.2998 2 1 ack 40 ------- 0 2.1 1.1 15 48 37.80 -122.40 40.90 -73.90
r 9.3038 1 2 tcp 1000 ------- 0 1.1 2.1 16 33 40.90 -73.90 37.80 -122.40
+ 9.3038 2 1 ack 40 ------- 0 2.1 1.1 16 49 37.80 -122.40 40.90 -73.90
- 9.3038 2 1 ack 40 ------- 0 2.1 1.1 16 49 37.80 -122.40 40.90 -73.90
r 9.3079 1 2 tcp 1000 ------- 0 1.1 2.1 17 34 40.90 -73.90 37.80 -122.40
+ 9.3079 2 1 ack 40 ------- 0 2.1 1.1 17 50 37.80 -122.40 40.90 -73.90
- 9.3079 2 1 ack 40 ------- 0 2.1 1.1 17 50 37.80 -122.40 40.90 -73.90
r 9.3120 1 2 tcp 1000 ------- 0 1.1 2.1 18 35 40.90 -73.90 37.80 -122.40
+ 9.3120 2 1 ack 40 ------- 0 2.1 1.1 18 51 37.80 -122.40 40.90 -73.90
- 9.3120 2 1 ack 40 ------- 0 2.1 1.1 18 51 37.80 -122.40 40.90 -73.90
r 9.3160 1 2 tcp 1000 ------- 0 1.1 2.1 19 36 40.90 -73.90 37.80 -122.40
+ 9.3160 2 1 ack 40 ------- 0 2.1 1.1 19 52 37.80 -122.40 40.90 -73.90
- 9.3160 2 1 ack 40 ------- 0 2.1 1.1 19 52 37.80 -122.40 40.90 -73.90
r 9.3201 1 2 tcp 1000 ------- 0 1.1 2.1 20 37 40.90 -73.90 37.80 -122.40
+ 9.3201 2 1 ack 40 ------- 0 2.1 1.1 20 53 37.80 -122.40 40.90 -73.90
- 9.3201 2 1 ack 40 ------- 0 2.1 1.1 20 53 37.80 -122.40 40.90 -73.90
r 9.3242 1 2 tcp 1000 ------- 0 1.1 2.1 21 38 40.90 -73.90 37.80 -122.40
+ 9.3242 2 1 ack 40 ------- 0 2.1 1.1 21 54 37.80 -122.40 40.90 -73.90
- 9.3242 2 1 ack 40 ------- 0 2.1 1.1 21 54 37.80 -122.40 40.90 -73.90
r 9.3282 1 2 tcp 1000 ------- 0 1.1 2.1 22 39 40.90 -73.90 37.80 -122.40
+ 9.3282 2 1 ack 40 ------- 0 2.1 1.1 22 55 37.80 -122.40 40.90 -73.90
- 9.3282 2 1 ack 40 ------- 0 2.1 1.1 22 55 37.80 -122.40 40.90 -73.90
r 9.3323 1 2 tcp 1000 ------- 0 1.1 2.1 23 40 40.90 -73.90 37.80 -122.40
+ 9.3323 2 1 ack 40 ------- 0 2.1 1.1 23 56 37.80 -122.40 40.90 -73.90
- 9.3323 2 1 ack 40 ------- 0 2.1 1.1 23 56 37.80 -122.40 40.90 -73.90
r 9.3364 1 2 tcp 1000 ------- 0 1.1 2.1 24 41 40.90 -73.90 37.80 -122.40
+ 9.3364 2 1 ack 40 ------- 0 2.1 1.1 24 57 37.80 -122.40 40.90 -73.90
- 9.3364 2 1 ack 40 ------- 0 2.1 1.1 24 57 37.80 -122.40 40.90 -73.90
r 9.3404 1 2 tcp 1000 ------- 0 1.1 2.1 25 42 40.90 -73.90 37.80 -122.40
+ 9.3404 2 1 ack 40 ------- 0 2.1 1.1 25 58 37.80 -122.40 40.90 -73.90
- 9.3404 2 1 ack 40 ------- 0 2.1 1.1 25 58 37.80 -122.40 40.90 -73.90
r 9.3445 1 2 tcp 1000 ------- 0 1.1 2.1 26 43 40.90 -73.90 37.80 -122.40
+ 9.3445 2 1 ack 40 ------- 0 2.1 1.1 26 59 37.80 -122.40 40.90 -73.90
- 9.3445 2 1 ack 40 ------- 0 2.1 1.1 26 59 37.80 -122.40 40.90 -73.90
r 9.3485 1 2 tcp 1000 ------- 0 1.1 2.1 27 44 40.90 -73.90 37.80 -122.40
+ 9.3485 2 1 ack 40 ------- 0 2.1 1.1 27 60 37.80 -122.40 40.90 -73.90
- 9.3485 2 1 ack 40 ------- 0 2.1 1.1 27 60 37.80 -122.40 40.90 -73.90
r 9.3526 1 2 tcp 1000 ------- 0 1.1 2.1 28 45 40.90 -73.90 37.80 -122.40
+ 9.3526 2 1 ack 40 ------- 0 2.1 1.1 28 61 37.80 -122.40 40.90 -73.90
- 9.3526 2 1 ack 40 ------- 0 2.1 1.1 28 61 37.80 -122.40 40.90 -73.90
r 9.3567 1 2 tcp 1000 ------- 0 1.1 2.1 29 46 40.90 -73.90 37.80 -122.40
+ 9.3567 2 1 ack 40 ------- 0 2.1 1.1 29 62 37.80 -122.40 40.90 -73.90
- 9.3567 2 1 ack 40 ------- 0 2.1 1.1 29 62 37.80 -122.40 40.90 -73.90
r 9.3607 1 2 tcp 1000 ------- 0 1.1 2.1 30 47 40.90 -73.90 37.80 -122.40
+ 9.3607 2 1 ack 40 ------- 0 2.1 1.1 30 63 37.80 -122.40 40.90 -73.90
- 9.3607 2 1 ack 40 ------- 0 2.1 1.1 30 63 37.80 -122.40 40.90 -73.90
r 9.5532 2 1 ack 40 ------- 0 2.1 1.1 15 48 37.80 -122.40 40.90 -73.90
+ 9.5532 1 2 tcp 1000 ------- 0 1.1 2.1 31 64 40.90 -73.90 37.80 -122.40
- 9.5532 1 2 tcp 1000 ------- 0 1.1 2.1 31 64 40.90 -73.90 37.80 -122.40
+ 9.5532 1 2 tcp 1000 ------- 0 1.1 2.1 32 65 40.90 -73.90 37.80 -122.40
- 9.5572 1 2 tcp 1000 ------- 0 1.1 2.1 32 65 40.90 -73.90 37.80 -122.40
r 9.5572 2 1 ack 40 ------- 0 2.1 1.1 16 49 37.80 -122.40 40.90 -73.90
+ 9.5572 1 2 tcp 1000 ------- 0 1.1 2.1 33 66 40.90 -73.90 37.80 -122.40
+ 9.5572 1 2 tcp 1000 ------- 0 1.1 2.1 34 67 40.90 -73.90 37.80 -122.40
- 9.5613 1 2 tcp 1000 ------- 0 1.1 2.1 33 66 40.90 -73.90 37.80 -122.40
r 9.5613 2 1 ack 40 ------- 0 2.1 1.1 17 50 37.80 -122.40 40.90 -73.90
+ 9.5613 1 2 tcp 1000 ------- 0 1.1 2.1 35 68 40.90 -73.90 37.80 -122.40
+ 9.5613 1 2 tcp 1000 ------- 0 1.1 2.1 36 69 40.90 -73.90 37.80 -122.40
- 9.5654 1 2 tcp 1000 ------- 0 1.1 2.1 34 67 40.90 -73.90 37.80 -122.40
r 9.5654 2 1 ack 40 ------- 0 2.1 1.1 18 51 37.80 -122.40 40.90 -73.90
+ 9.5654 1 2 tcp 1000 ------- 0 1.1 2.1 37 70 40.90 -73.90 37.80 -122.40
+ 9.5654 1 2 tcp 1000 ------- 0 1.1 2.1 38 71 40.90 -73.90 37.80 -122.40
- 9.5694 1 2 tcp 1000 ------- 0 1.1 2.1 35 68 40.90 -73.90 37.80 -122.40
r 9.5694 2 1 ack 40 ------- 0 2.1 1.1 19 52 37.80 -122.40 40.90 -73.90
+ 9.5694 1 2 tcp 1000 ------- 0 1.1 2.1 39 72 40.90 -73.90 37.80 -122.40
- 9.5735 1 2 tcp 1000 ------- 0 1.1 2.1 36 69 40.90 -73.90 37.80 -122.40
r 9.5735 2 1 ack 40 ------- 0 2.1 1.1 20 53 37.80 -122.40 40.90 -73.90
+ 9.5735 1 2 tcp 1000 ------- 0 1.1 2.1 40 73 40.90 -73.90 37.80 -122.40
- 9.5776 1 2 tcp 1000 ------- 0 1.1 2.1 37 70 40.90 -73.90 37.80 -122.40
r 9.5776 2 1 ack 40 ------- 0 2.1 1.1 21 54 37.80 -122.40 40.90 -73.90
+ 9.5776 1 2 tcp 1000 ------- 0 1.1 2.1 41 74 40.90 -73.90 37.80 -122.40
- 9.5816 1 2 tcp 1000 ------- 0 1.1 2.1 38 71 40.90 -73.90 37.80 -122.40
r 9.5816 2 1 ack 40 ------- 0 2.1 1.1 22 55 37.80 -122.40 40.90 -73.90
+ 9.5816 1 2 tcp 1000 ------- 0 1.1 2.1 42 75 40.90 -73.90 37.80 -122.40
- 9.5857 1 2 tcp 1000 ------- 0 1.1 2.1 39 72 40.90 -73.90 37.80 -122.40
r 9.5857 2 1 ack 40 ------- 0 2.1 1.1 23 56 37.80 -122.40 40.90 -73.90
+ 9.5857 1 2 tcp 1000 ------- 0 1.1 2.1 43 76 40.90 -73.90 37.80 -122.40
- 9.5898 1 2 tcp 1000 ------- 0 1.1 2.1 40 73 40.90 -73.90 37.80 -122.40
r 9.5898 2 1 ack 40 ------- 0 2.1 1.1 24 57 37.80 -122.40 40.90 -73.90
+ 9.5898 1 2 tcp 1000 ------- 0 1.1 2.1 44 77 40.90 -73.90 37.80 -122.40
- 9.5938 1 2 tcp 1000 ------- 0 1.1 2.1 41 74 40.90 -73.90 37.80 -122.40
r 9.5938 2 1 ack 40 ------- 0 2.1 1.1 25 58 37.80 -122.40 40.90 -73.90
+ 9.5938 1 2 tcp 1000 ------- 0 1.1 2.1 45 78 40.90 -73.90 37.80 -122.40
- 9.5979 1 2 tcp 1000 ------- 0 1.1 2.1 42 75 40.90 -73.90 37.80 -122.40
r 9.5979 2 1 ack 40 ------- 0 2.1 1.1 26 59 37.80 -122.40 40.90 -73.90
+ 9.5979 1 2 tcp 1000 ------- 0 1.1 2.1 46 79 40.90 -73.90 37.80 -122.40
- 9.6019 1 2 tcp 1000 ------- 0 1.1 2.1 43 76 40.90 -73.90 37.80 -122.40
r 9.6019 2 1 ack 40 ------- 0 2.1 1.1 27 60 37.80 -122.40 40.90 -73.90
+ 9.6019 1 2 tcp 1000 ------- 0 1.1 2.1 47 80 40.90 -73.90 37.80 -122.40
- 9.6060 1 2 tcp 1000 ------- 0 1.1 2.1 44 77 40.90 -73.90 37.80 -122.40
r 9.6060 2 1 ack 40 ------- 0 2.1 1.1 28 61 37.80 -122.40 40.90 -73.90
+ 9.6060 1 2 tcp 1000 ------- 0 1.1 2.1 48 81 40.90 -73.90 37.80 -122.40
- 9.6101 1 2 tcp 1000 ------- 0 1.1 2.1 45 78 40.90 -73.90 37.80 -122.40
r 9.6101 2 1 ack 40 ------- 0 2.1 1.1 29 62 37.80 -122.40 40.90 -73.90
+ 9.6101 1 2 tcp 1000 ------- 0 1.1 2.1 49 82 40.90 -73.90 37.80 -122.40
- 9.6141 1 2 tcp 1000 ------- 0 1.1 2.1 46 79 40.90 -73.90 37.80 -122.40
r 9.6141 2 1 ack 40 ------- 0 2.1 1.1 30 63 37.80 -122.40 40.90 -73.90
+ 9.6141 1 2 tcp 1000 ------- 0 1.1 2.1 50 83 40.90 -73.90 37.80 -122.40
- 9.6182 1 2 tcp 1000 ------- 0 1.1 2.1 47 80 40.90 -73.90 37.80 -122.40
- 9.6223 1 2 tcp 1000 ------- 0 1.1 2.1 48 81 40.90 -73.90 37.80 -122.40
- 9.6263 1 2 tcp 1000 ------- 0 1.1 2.1 49 82 40.90 -73.90 37.80 -122.40
- 9.6304 1 2 tcp 1000 ------- 0 1.1 2.1 50 83 40.90 -73.90 37.80 -122.40
r 9.8104 1 2 tcp 1000 ------- 0 1.1 2.1 31 64 40.90 -73.90 37.80 -122.40
+ 9.8104 2 1 ack 40 ------- 0 2.1 1.1 31 84 37.80 -122.40 40.90 -73.90
- 9.8104 2 1 ack 40 ------- 0 2.1 1.1 31 84 37.80 -122.40 40.90 -73.90
r 9.8145 1 2 tcp 1000 ------- 0 1.1 2.1 32 65 40.90 -73.90 37.80 -122.40
+ 9.8145 2 1 ack 40 ------- 0 2.1 1.1 32 85 37.80 -122.40 40.90 -73.90
- 9.8145 2 1 ack 40 ------- 0 2.1 1.1 32 85 37.80 -122.40 40.90 -73.90
r 9.8185 1 2 tcp 1000 ------- 0 1.1 2.1 33 66 40.90 -73.90 37.80 -122.40
+ 9.8185 2 1 ack 40 ------- 0 2.1 1.1 33 86 37.80 -122.40 40.90 -73.90
- 9.8185 2 1 ack 40 ------- 0 2.1 1.1 33 86 37.80 -122.40 40.90 -73.90
r 9.8226 1 2 tcp 1000 ------- 0 1.1 2.1 34 67 40.90 -73.90 37.80 -122.40
+ 9.8226 2 1 ack 40 ------- 0 2.1 1.1 34 87 37.80 -122.40 40.90 -73.90
- 9.8226 2 1 ack 40 ------- 0 2.1 1.1 34 87 37.80 -122.40 40.90 -73.90
r 9.8267 1 2 tcp 1000 ------- 0 1.1 2.1 35 68 40.90 -73.90 37.80 -122.40
+ 9.8267 2 1 ack 40 ------- 0 2.1 1.1 35 88 37.80 -122.40 40.90 -73.90
- 9.8267 2 1 ack 40 ------- 0 2.1 1.1 35 88 37.80 -122.40 40.90 -73.90
r 9.8307 1 2 tcp 1000 ------- 0 1.1 2.1 36 69 40.90 -73.90 37.80 -122.40
+ 9.8307 2 1 ack 40 ------- 0 2.1 1.1 36 89 37.80 -122.40 40.90 -73.90
- 9.8307 2 1 ack 40 ------- 0 2.1 1.1 36 89 37.80 -122.40 40.90 -73.90
r 9.8348 1 2 tcp 1000 ------- 0 1.1 2.1 37 70 40.90 -73.90 37.80 -122.40
+ 9.8348 2 1 ack 40 ------- 0 2.1 1.1 37 90 37.80 -122.40 40.90 -73.90
- 9.8348 2 1 ack 40 ------- 0 2.1 1.1 37 90 37.80 -122.40 40.90 -73.90
r 9.8389 1 2 tcp 1000 ------- 0 1.1 2.1 38 71 40.90 -73.90 37.80 -122.40
+ 9.8389 2 1 ack 40 ------- 0 2.1 1.1 38 91 37.80 -122.40 40.90 -73.90
- 9.8389 2 1 ack 40 ------- 0 2.1 1.1 38 91 37.80 -122.40 40.90 -73.90
r 9.8429 1 2 tcp 1000 ------- 0 1.1 2.1 39 72 40.90 -73.90 37.80 -122.40
+ 9.8429 2 1 ack 40 ------- 0 2.1 1.1 39 92 37.80 -122.40 40.90 -73.90
- 9.8429 2 1 ack 40 ------- 0 2.1 1.1 39 92 37.80 -122.40 40.90 -73.90
e 9.8470 1 2 tcp 1000 ------- 0 1.1 2.1 40 73 40.90 -73.90 37.80 -122.40
r 9.8511 1 2 tcp 1000 ------- 0 1.1 2.1 41 74 40.90 -73.90 37.80 -122.40
+ 9.8511 2 1 ack 40 ------- 0 2.1 1.1 39 93 37.80 -122.40 40.90 -73.90
- 9.8511 2 1 ack 40 ------- 0 2.1 1.1 39 93 37.80 -122.40 40.90 -73.90
r 9.8551 1 2 tcp 1000 ------- 0 1.1 2.1 42 75 40.90 -73.90 37.80 -122.40
+ 9.8551 2 1 ack 40 ------- 0 2.1 1.1 39 94 37.80 -122.40 40.90 -73.90
- 9.8551 2 1 ack 40 ------- 0 2.1 1.1 39 94 37.80 -122.40 40.90 -73.90
r 9.8592 1 2 tcp 1000 ------- 0 1.1 2.1 43 76 40.90 -73.90 37.80 -122.40
+ 9.8592 2 1 ack 40 ------- 0 2.1 1.1 39 95 37.80 -122.40 40.90 -73.90
- 9.8592 2 1 ack 40 ------- 0 2.1 1.1 39 95 37.80 -122.40 40.90 -73.90
r 9.8632 1 2 tcp 1000 ------- 0 1.1 2.1 44 77 40.90 -73.90 37.80 -122.40
+ 9.8632 2 1 ack 40 ------- 0 2.1 1.1 39 96 37.80 -122.40 40.90 -73.90
- 9.8632 2 1 ack 40 ------- 0 2.1 1.1 39 96 37.80 -122.40 40.90 -73.90
r 9.8673 1 2 tcp 1000 ------- 0 1.1 2.1 45 78 40.90 -73.90 37.80 -122.40
+ 9.8673 2 1 ack 40 ------- 0 2.1 1.1 39 97 37.80 -122.40 40.90 -73.90
- 9.8673 2 1 ack 40 ------- 0 2.1 1.1 39 97 37.80 -122.40 40.90 -73.90
r 9.8714 1 2 tcp 1000 ------- 0 1.1 2.1 46 79 40.90 -73.90 37.80 -122.40
+ 9.8714 2 1 ack 40 ------- 0 2.1 1.1 39 98 37.80 -122.40 40.90 -73.90
- 9.8714 2 1 ack 40 ------- 0 2.1 1.1 39 98 37.80 -122.40 40.90 -73.90
r 9.8754 1 2 tcp 1000 ------- 0 1.1 2.1 47 80 40.90 -73.90 37.80 -122.40
+ 9.8754 2 1 ack 40 ------- 0 2.1 1.1 39 99 37.80 -122.40 40.90 -73.90
- 9.8754 2 1 ack 40 ------- 0 2.1 1.1 39 99 37.80 -122.40 40.90 -73.90
r 9.8795 1 2 tcp 1000 ------- 0 1.1 2.1 48 81 40.90 -73.90 37.80 -122.40
+ 9.8795 2 1 ack 40 ------- 0 2.1 1.1 39 100 37.80 -122.40 40.90 -73.90
- 9.8795 2 1 ack 40 ------- 0 2.1 1.1 39 100 37.80 -122.40 40.90 -73.90
r 9.8836 1 2 tcp 1000 ------- 0 1.1 2.1 49 82 40.90 -73.90 37.80 -122.40
+ 9.8836 2 1 ack 40 ------- 0 2.1 1.1 39 101 37.80 -122.40 40.90 -73.90
- 9.8836 2 1 ack 40 ------- 0 2.1 1.1 39 101 37.80 -122.40 40.90 -73.90
r 9.8876 1 2 tcp 1000 ------- 0 1.1 2.1 50 83 40.90 -73.90 37.80 -122.40
+ 9.8876 2 1 ack 40 ------- 0 2.1 1.1 39 102 37.80 -122.40 40.90 -73.90
- 9.8876 2 1 ack 40 ------- 0 2.1 1.1 39 102 37.80 -122.40 40.90 -73.90
r 10.0638 2 1 ack 40 ------- 0 2.1 1.1 31 84 37.80 -122.40 40.90 -73.90
+ 10.0638 1 2 tcp 1000 ------- 0 1.1 2.1 51 103 40.90 -73.90 37.80 -122.40
- 10.0638 1 2 tcp 1000 ------- 0 1.1 2.1 51 103 40.90 -73.90 37.80 -122.40
r 10.0679 2 1 ack 40 ------- 0 2.1 1.1 32 85 37.80 -122.40 40.90 -73.90
+ 10.0679 1 2 tcp 1000 ------- 0 1.1 2.1 52 104 40.90 -73.90 37.80 -122.40
- 10.0679 1 2 tcp 1000 ------- 0 1.1 2.1 52 104 40.90 -73.90 37.80 -122.40
r 10.0719 2 1 ack 40 ------- 0 2.1 1.1 33 86 37.80 -122.40 40.90 -73.90
+ 10.0719 1 2 tcp 1000 ------- 0 1.1 2.1 53 105 40.90 -73.90 37.80 -122.40
- 10.0719 1 2 tcp 1000 ------- 0 1.1 2.1 53 105 40.90 -73.90 37.80 -122.40
r 10.0760 2 1 ack 40 ------- 0 2.1 1.1 34 87 37.80 -122.40 40.90 -73.90
+ 10.0760 1 2 tcp 1000 ------- 0 1.1 2.1 54 106 40.90 -73.90 37.80 -122.40
- 10.0760 1 2 tcp 1000 ------- 0 1.1 2.1 54 106 40.90 -73.90 37.80 -122.40
r 10.0801 2 1 ack 40 ------- 0 2.1 1.1 35 88 37.80 -122.40 40.90 -73.90
+ 10.0801 1 2 tcp 1000 ------- 0 1.1 2.1 55 107 40.90 -73.90 37.80 -122.40
- 10.0801 1 2 tcp 1000 ------- 0 1.1 2.1 55 107 40.90 -73.90 37.80 -122.40
r 10.0841 2 1 ack 40 ------- 0 2.1 1.1 36 89 37.80 -122.40 40.90 -73.90
+ 10.0841 1 2 tcp 1000 ------- 0 1.1 2.1 56 108 40.90 -73.90 37.80 -122.40
- 10.0841 1 2 tcp 1000 ------- 0 1.1 2.1 56 108 40.90 -73.90 37.80 -122.40
r 10.0882 2 1 ack 40 ------- 0 2.1 1.1 37 90 37.80 -122.40 40.90 -73.90
+ 10.0882 1 2 tcp 1000 ------- 0 1.1 2.1 57 109 40.90 -73.90 37.80 -122.40
- 10.0882 1 2 tcp 1000 ------- 0 1.1 2.1 57 109 40.90 -73.90 37.80 -122.40
r 10.0923 2 1 ack 40 ------- 0 2.1 1.1 38 91 37.80 -122.40 40.90 -73.90
+ 10.0923 1 2 tcp 1000 ------- 0 1.1 2.1 58 110 40.90 -73.90 37.80 -122.40
- 10.0923 1 2 tcp 1000 ------- 0 1.1 2.1 58 110 40.90 -73.90 37.80 -122.40
r 10.0963 2 1 ack 40 ------- 0 2.1 1.1 39 92 37.80 -122.40 40.90 -73.90
+ 10.0963 1 2 tcp 1000 ------- 0 1.1 2.1 59 111 40.90 -73.90 37.80 -122.40
- 10.0963 1 2 tcp 1000 ------- 0 1.1 2.1 59 111 40.90 -73.90 37.80 -122.40
r 10.1045 2 1 ack 40 ------- 0 2.1 1.1 39 93 37.80 -122.40 40.90 -73.90
r 10.1085 2 1 ack 40 ------- 0 2.1 1.1 39 94 37.80 -122.40 40.90 -73.90
r 10.1126 2 1 ack 40 ------- 0 2.1 1.1 39 95 37.80 -122.40 40.90 -73.90
+ 10.1126 1 2 tcp 1000 ---A--- 0 1.1 2.1 40 112 40.90 -73.90 37.80 -122.40
- 10.1126 1 2 tcp 1000 ---A--- 0 1.1 2.1 40 112 40.90 -73.90 37.80 -122.40
r 10.1166 2 1 ack 40 ------- 0 2.1 1.1 39 96 37.80 -122.40 40.90 -73.90
r 10.1207 2 1 ack 40 ------- 0 2.1 1.1 39 97 37.80 -122.40 40.90 -73.90
r 10.1248 2 1 ack 40 ------- 0 2.1 1.1 39 98 37.80 -122.40 40.90 -73.90
r 10.1288 2 1 ack 40 ------- 0 2.1 1.1 39 99 37.80 -122.40 40.90 -73.90
r 10.1329 2 1 ack 40 ------- 0 2.1 1.1 39 100 37.80 -122.40 40.90 -73.90
r 10.1370 2 1 ack 40 ------- 0 2.1 1.1 39 101 37.80 -122.40 40.90 -73.90
r 10.1410 2 1 ack 40 ------- 0 2.1 1.1 39 102 37.80 -122.40 40.90 -73.90
r 10.3211 1 2 tcp 1000 ------- 0 1.1 2.1 51 103 40.90 -73.90 37.80 -122.40
+ 10.3211 2 1 ack 40 ------- 0 2.1 1.1 39 113 37.80 -122.40 40.90 -73.90
- 10.3211 2 1 ack 40 ------- 0 2.1 1.1 39 113 37.80 -122.40 40.90 -73.90
r 10.3251 1 2 tcp 1000 ------- 0 1.1 2.1 52 104 40.90 -73.90 37.80 -122.40
+ 10.3251 2 1 ack 40 ------- 0 2.1 1.1 39 114 37.80 -122.40 40.90 -73.90
- 10.3251 2 1 ack 40 ------- 0 2.1 1.1 39 114 37.80 -122.40 40.90 -73.90
r 10.3292 1 2 tcp 1000 ------- 0 1.1 2.1 53 105 40.90 -73.90 37.80 -122.40
+ 10.3292 2 1 ack 40 ------- 0 2.1 1.1 39 115 37.80 -122.40 40.90 -73.90
- 10.3292 2 1 ack 40 ------- 0 2.1 1.1 39 115 37.80 -122.40 40.90 -73.90
r 10.3332 1 2 tcp 1000 ------- 0 1.1 2.1 54 106 40.90 -73.90 37.80 -122.40
+ 10.3332 2 1 ack 40 ------- 0 2.1 1.1 39 116 37.80 -122.40 40.90 -73.90
- 10.3332 2 1 ack 40 ------- 0 2.1 1.1 39 116 37.80 -122.40 40.90 -73.90
r 10.3373 1 2 tcp 1000 ------- 0 1.1 2.1 55 107 40.90 -73.90 37.80 -122.40
+ 10.3373 2 1 ack 40 ------- 0 2.1 1.1 39 117 37.80 -122.40 40.90 -73.90
- 10.3373 2 1 ack 40 ------- 0 2.1 1.1 39 117 37.80 -122.40 40.90 -73.90
r 10.3414 1 2 tcp 1000 ------- 0 1.1 2.1 56 108 40.90 -73.90 37.80 -122.40
+ 10.3414 2 1 ack 40 ------- 0 2.1 1.1 39 118 37.80 -122.40 40.90 -73.90
- 10.3414 2 1 ack 40 ------- 0 2.1 1.1 39 118 37.80 -122.40 40.90 -73.90
r 10.3454 1 2 tcp 1000 ------- 0 1.1 2.1 57 109 40.90 -73.90 37.80 -122.40
+ 10.3454 2 1 ack 40 ------- 0 2.1 1.1 39 119 37.80 -122.40 40.90 -73.90
- 10.3454 2 1 ack 40 ------- 0 2.1 1.1 39 119 37.80 -122.40 40.90 -73.90
r 10.3495 1 2 tcp 1000 ------- 0 1.1 2.1 58 110 40.90 -73.90 37.80 -122.40
+ 10.3495 2 1 ack 40 ------- 0 2.1 1.1 39 120 37.80 -122.40 40.90 -73.90
- 10.3495 2 1 ack 40 ------- 0 2.1 1.1 39 120 37.80 -122.40 40.90 -73.90
r 10.3536 1 2 tcp 1000 ------- 0 1.1 2.1 59 111 40.90 -73.90 37.80 -122.40
+ 10.3536 2 1 ack 40 ------- 0 2.1 1.1 39 121 37.80 -122.40 40.90 -73.90
- 10.3536 2 1 ack 40 ------- 0 2.1 1.1 39 121 37.80 -122.40 40.90 -73.90
r 10.3698 1 2 tcp 1000 ---A--- 0 1.1 2.1 40 112 40.90 -73.90 37.80 -122.40
+ 10.3698 2 1 ack 40 ------- 0 2.1 1.1 59 122 37.80 -122.40 40.90 -73.90
- 10.3698 2 1 ack 40 ------- 0 2.1 1.1 59 122 37.80 -122.40 40.90 -73.90
r 10.5744 2 1 ack 40 ------- 0 2.1 1.1 39 113 37.80 -122.40 40.90 -73.90
r 10.5785 2 1 ack 40 ------- 0 2.1 1.1 39 114 37.80 -122.40 40.90 -73.90
r 10.5826 2 1 ack 40 ------- 0 2.1 1.1 39 115 37.80 -122.40 40.90 -73.90
r 10.5866 2 1 ack 40 ------- 0 2.1 1.1 39 116 37.80 -122.40 40.90 -73.90
r 10.5907 2 1 ack 40 ------- 0 2.1 1.1 39 117 37.80 -122.40 40.90 -73.90
r 10.5948 2 1 ack 40 ------- 0 2.1 1.1 39 118 37.80 -122.40 40.90 -73.90
r 10.5988 2 1 ack 40 ------- 0 2.1 1.1 39 119 37.80 -122.40 40.90 -73.90
r 10.6029 2 1 ack 40 ------- 0 2.1 1.1 39 120 37.80 -122.40 40.90 -73.90
r 10.6070 2 1 ack 40 ------- 0 2.1 1.1 39 121 37.80 -122.40 40.90 -73.90
r 10.6232 2 1 ack 40 ------- 0 2.1 1.1 59 122 37.80 -122.40 40.90 -73.90
+ 10.6232 1 2 tcp 1000 ------- 0 1.1 2.1 60 123 40.90 -73.90 37.80 -122.40
- 10.6232 1 2 tcp 1000 ------- 0 1.1 2.1 60 123 40.90 -73.90 37.80 -122.40
+ 10.6232 1 2 tcp 1000 ------- 0 1.1 2.1 61 124 40.90 -73.90 37.80 -122.40
- 10.6273 1 2 tcp 1000 ------- 0 1.1 2.1 61 124 40.90 -73.90 37.80 -122.40
r 10.8805 1 2 tcp 1000 ------- 0 1.1 2.1 60 123 40.90 -73.90 37.80 -122.40
+ 10.8805 2 1 ack 40 ------- 0 2.1 1.1 60 125 37.80 -122.40 40.90 -73.90
- 10.8805 2 1 ack 40 ------- 0 2.1 1.1 60 125 37.80 -122.40 40.90 -73.90
r 10.8845 1 2 tcp 1000 ------- 0 1.1 2.1 61 124 40.90 -73.90 37.80 -122.40
+ 10.8845 2 1 ack 40 ------- 0 2.1 1.1 61 126 37.80 -122.40 40.90 -73.90
- 10.8845 2 1 ack 40 ------- 0 2.1 1.1 61 126 37.80 -122.40 40.90 -73.90
r 11.1339 2 1 ack 40 ------- 0 2.1 1.1 60 125 37.80 -122.40 40.90 -73.90
+ 11.1339 1 2 tcp 1000 ------- 0 1.1 2.1 62 127 40.90 -73.90 37.80 -122.40
- 11.1339 1 2 tcp 1000 ------- 0 1.1 2.1 62 127 40.90 -73.90 37.80 -122.40
+ 11.1339 1 2 tcp 1000 ------- 0 1.1 2.1 63 128 40.90 -73.90 37.80 -122.40
- 11.1379 1 2 tcp 1000 ------- 0 1.1 2.1 63 128 40.90 -73.90 37.80 -122.40
r 11.1379 2 1 ack 40 ------- 0 2.1 1.1 61 126 37.80 -122.40 40.90 -73.90
+ 11.1379 1 2 tcp 1000 ------- 0 1.1 2.1 64 129 40.90 -73.90 37.80 -122.40
+ 11.1379 1 2 tcp 1000 ------- 0 1.1 2.1 65 130 40.90 -73.90 37.80 -122.40
- 11.1420 1 2 tcp 1000 ------- 0 1.1 2.1 64 129 40.90 -73.90 37.80 -122.40
- 11.1460 1 2 tcp 1000 ------- 0 1.1 2.1 65 130 40.90 -73.90 37.80 -122.40
r 11.3911 1 2 tcp 1000 ------- 0 1.1 2.1 62 127 40.90 -73.90 37.80 -122.40
+ 11.3911 2 1 ack 40 ------- 0 2.1 1.1 62 131 37.80 -122.40 40.90 -73.90
- 11.3911 2 1 ack 40 ------- 0 2.1 1.1 62 131 37.80 -122.40 40.90 -73.90
r 11.3952 1 2 tcp 1000 ------- 0 1.1 2.1 63 128 40.90 -73.90 37.80 -122.40
+ 11.3952 2 1 ack 40 ------- 0 2.1 1.1 63 132 37.80 -122.40 40.90 -73.90
- 11.3952 2 1 ack 40 ------- 0 2.1 1.1 63 132 37.80 -122.40 40.90 -73.90
r 11.3992 1 2 tcp 1000 ------- 0 1.1 2.1 64 129 40.90 -73.90 37.80 -122.40
+ 11.3992 2 1 ack 40 ------- 0 2.1 1.1 64 133 37.80 -122.40 40.90 -73.90
- 11.3992 2 1 ack 40 ------- 0 2.1 1.1 64 133 37.80 -122.40 40.90 -73.90
r 11.4033 1 2 tcp 1000 ------- 0 1.1 2.1 65 130 40.90 -73.90 37.80 -122.40
+ 11.4033 2 1 ack 40 ------- 0 2.1 1.1 65 134 37.80 -122.40 40.90 -73.90
- 11.4033 2 1 ack 40 ------- 0 2.1 1.1 65 134 37.80 -122.40 40.90 -73.90
r 11.6445 2 1 ack 40 ------- 0 2.1 1.1 62 131 37.80 -122.40 40.90 -73.90
+ 11.6445 1 2 tcp 1000 ------- 0 1.1 2.1 66 135 40.90 -73.90 37.80 -122.40
- 11.6445 1 2 tcp 1000 ------- 0 1.1 2.1 66 135 40.90 -73.90 37.80 -122.40
+ 11.6445 1 2 tcp 1000 ------- 0 1.1 2.1 67 136 40.90 -73.90 37.80 -122.40
- 11.6486 1 2 tcp 1000 ------- 0 1.1 2.1 67 136 40.90 -73.90 37.80 -122.40
r 11.6486 2 1 ack 40 ------- 0 2.1 1.1 63 132 37.80 -122.40 40.90 -73.90
+ 11.6486 1 2 tcp 1000 ------- 0 1.1 2.1 68 137 40.90 -73.90 37.80 -122.40
+ 11.6486 1 2 tcp 1000 ------- 0 1.1 2.1 69 138 40.90 -73.90 37.80 -122.40
- 11.6526 1 2 tcp 1000 ------- 0 1.1 2.1 68 137 40.90 -73.90 37.80 -122.40
r 11.6526 2 1 ack 40 ------- 0 2.1 1.1 64 133 37.80 -122.40 40.90 -73.90
+ 11.6526 1 2 tcp 1000 ------- 0 1.1 2.1 70 139 40.90 -73.90 37.80 -122.40
+ 11.6526 1 2 tcp 1000 ------- 0 1.1 2.1 71 140 40.90 -73.90 37.80 -122.40
- 11.6567 1 2 tcp 1000 ------- 0 1.1 2.1 69 138 40.90 -73.90 37.80 -122.40