+ 4 0 2 ack 40 ------- 328 0.327 4.327 434 14867 438001 0x18 40 0
- 4 0 2 ack 40 ------- 328 0.327 4.327 434 14867 438001 0x18 40 0
+ 4 5 3 ack 40 ------- 328 5.327 1.327 434 14868 438001 0x18 40 0
- 4 5 3 ack 40 ------- 328 5.327 1.327 434 14868 438001 0x18 40 0
+ 4 5 3 ack 40 ------- 217 5.216 1.216 386 14869 52561 0x18 40 0
+ 4 0 2 ack 40 ------- 217 0.216 4.216 386 14870 52561 0x18 40 0
+ 4 0 2 ack 40 ------- 272 0.271 4.271 515 14871 38365 0x18 40 0
+ 4 5 3 ack 40 ------- 272 5.271 1.271 515 14872 38365 0x18 40 0
+ 4 0 2 ack 40 ------- 56 0.55 4.55 6692 14873 556 0x18 40 0
+ 4 5 3 ack 40 ------- 56 5.55 1.55 6692 14874 556 0x18 40 0
+ 4 0 2 ack 40 ------- 65 0.64 4.64 379 14875 619041 0x18 40 0
+ 4 5 3 ack 40 ------- 65 5.64 1.64 379 14876 619041 0x18 40 0
+ 4 0 2 ack 40 ------- 232 0.231 4.231 63 14877 102 0x18 40 0
+ 4 5 3 ack 40 ------- 232 5.231 1.231 63 14878 102 0x18 40 0
+ 4 0 2 ack 40 ------- 183 0.182 4.182 213 14879 232949 0x18 40 0
+ 4 5 3 ack 40 ------- 183 5.182 1.182 213 14880 232949 0x18 40 0
- 4.000003 0 2 ack 40 ------- 217 0.216 4.216 386 14870 52561 0x18 40 0
- 4.000003 5 3 ack 40 ------- 217 5.216 1.216 386 14869 52561 0x18 40 0
- 4.000006 0 2 ack 40 ------- 272 0.271 4.271 515 14871 38365 0x18 40 0
- 4.000006 5 3 ack 40 ------- 272 5.271 1.271 515 14872 38365 0x18 40 0
- 4.00001 0 2 ack 40 ------- 56 0.55 4.55 6692 14873 556 0x18 40 0
- 4.00001 5 3 ack 40 ------- 56 5.55 1.55 6692 14874 556 0x18 40 0
- 4.000013 0 2 ack 40 ------- 65 0.64 4.64 379 14875 619041 0x18 40 0
- 4.000013 5 3 ack 40 ------- 65 5.64 1.64 379 14876 619041 0x18 40 0
- 4.000016 0 2 ack 40 ------- 232 0.231 4.231 63 14877 102 0x18 40 0
- 4.000016 5 3 ack 40 ------- 232 5.231 1.231 63 14878 102 0x18 40 0
- 4.000019 0 2 ack 40 ------- 183 0.182 4.182 213 14879 232949 0x18 40 0
- 4.000019 5 3 ack 40 ------- 183 5.182 1.182 213 14880 232949 0x18 40 0
- 4.000064 4 3 ack 1500 ------- 328 4.327 0.327 465741 14864 434 0x10 40 0
- 4.000068 1 2 ack 1500 ------- 328 1.327 5.327 465741 14866 434 0x10 40 0
r 4.000097 4 3 ack 110 ------- 86 4.85 0.85 5671 14846 1393 0x18 40 0
+ 4.000097 3 2 ack 110 ------- 86 4.85 0.85 5671 14846 1393 0x18 40 0
- 4.000097 3 2 ack 110 ------- 86 4.85 0.85 5671 14846 1393 0x18 40 0
r 4.000195 3 4 ack 40 ------- 328 0.327 4.327 434 14681 433621 0x18 40 0
+ 4.000195 4 3 ack 1500 ------- 328 4.327 0.327 467201 14881 434 0x10 40 0
- 4.000195 4 3 ack 1500 ------- 328 4.327 0.327 467201 14881 434 0x10 40 0
+ 4.000195 4 3 ack 1500 ------- 328 4.327 0.327 468661 14882 434 0x10 40 0
r 4.000221 1 2 ack 1500 ------- 328 1.327 5.327 458441 14847 434 0x10 40 0
+ 4.000221 2 3 ack 1500 ------- 328 1.327 5.327 458441 14847 434 0x10 40 0
- 4.000221 2 3 ack 1500 ------- 328 1.327 5.327 458441 14847 434 0x10 40 0
r 4.000224 4 3 ack 1500 ------- 328 4.327 0.327 458441 14849 434 0x10 40 0
+ 4.000224 3 2 ack 1500 ------- 328 4.327 0.327 458441 14849 434 0x10 40 0
- 4.000224 3 2 ack 1500 ------- 328 4.327 0.327 458441 14849 434 0x10 40 0
- 4.000315 4 3 ack 1500 ------- 328 4.327 0.327 468661 14882 434 0x10 40 0
r 4.000341 1 2 ack 1500 ------- 328 1.327 5.327 459901 14848 434 0x10 40 0
+ 4.000341 2 3 ack 1500 ------- 328 1.327 5.327 459901 14848 434 0x10 40 0
- 4.000341 2 3 ack 1500 ------- 328 1.327 5.327 459901 14848 434 0x10 40 0
r 4.000344 4 3 ack 1500 ------- 328 4.327 0.327 459901 14850 434 0x10 40 0
+ 4.000344 3 2 ack 1500 ------- 328 4.327 0.327 459901 14850 434 0x10 40 0
- 4.000344 3 2 ack 1500 ------- 328 4.327 0.327 459901 14850 434 0x10 40 0
r 4.000358 0 2 ack 40 ------- 28 0.27 4.27 610 14859 235061 0x18 40 0
r 4.000361 5 3 ack 40 ------- 28 5.27 1.27 610 14860 235061 0x18 40 0
r 4.000441 2 3 ack 40 ------- 204 0.203 4.203 331 14423 45261 0x18 40 0
+ 4.000441 3 4 ack 40 ------- 204 0.203 4.203 331 14423 45261 0x18 40 0
- 4.000441 3 4 ack 40 ------- 204 0.203 4.203 331 14423 45261 0x18 40 0
r 4.000441 3 2 ack 40 ------- 204 5.203 1.203 331 14424 45261 0x18 40 0
+ 4.000441 2 1 ack 40 ------- 204 5.203 1.203 331 14424 45261 0x18 40 0
- 4.000441 2 1 ack 40 ------- 204 5.203 1.203 331 14424 45261 0x18 40 0
r 4.000463 1 2 ack 1500 ------- 108 1.107 5.107 12805 14854 397 0x10 40 0
+ 4.000463 2 3 ack 1500 ------- 108 1.107 5.107 12805 14854 397 0x10 40 0
- 4.000463 2 3 ack 1500 ------- 108 1.107 5.107 12805 14854 397 0x10 40 0
r 4.000464 4 3 ack 1500 ------- 108 4.107 0.107 12805 14851 397 0x10 40 0
+ 4.000464 3 2 ack 1500 ------- 108 4.107 0.107 12805 14851 397 0x10 40 0
- 4.000464 3 2 ack 1500 ------- 108 4.107 0.107 12805 14851 397 0x10 40 0
r 4.000516 2 1 ack 40 ------- 328 5.327 1.327 434 14682 433621 0x18 40 0
+ 4.000516 1 2 ack 1500 ------- 328 1.327 5.327 467201 14883 434 0x10 40 0
- 4.000516 1 2 ack 1500 ------- 328 1.327 5.327 467201 14883 434 0x10 40 0
+ 4.000516 1 2 ack 1500 ------- 328 1.327 5.327 468661 14884 434 0x10 40 0
r 4.000583 1 2 ack 1500 ------- 108 1.107 5.107 14265 14855 397 0x10 40 0
+ 4.000583 2 3 ack 1500 ------- 108 1.107 5.107 14265 14855 397 0x10 40 0
- 4.000583 2 3 ack 1500 ------- 108 1.107 5.107 14265 14855 397 0x10 40 0
r 4.000584 4 3 ack 1500 ------- 108 4.107 0.107 14265 14852 397 0x10 40 0
+ 4.000584 3 2 ack 1500 ------- 108 4.107 0.107 14265 14852 397 0x10 40 0
- 4.000584 3 2 ack 1500 ------- 108 4.107 0.107 14265 14852 397 0x10 40 0
- 4.000636 1 2 ack 1500 ------- 328 1.327 5.327 468661 14884 434 0x10 40 0
r 4.000678 3 4 ack 40 ------- 328 0.327 4.327 434 14683 436541 0x18 40 0
+ 4.000678 4 3 ack 1500 ------- 328 4.327 0.327 470121 14885 434 0x10 40 0
- 4.000678 4 3 ack 1500 ------- 328 4.327 0.327 470121 14885 434 0x10 40 0
+ 4.000678 4 3 ack 1500 ------- 328 4.327 0.327 471581 14886 434 0x10 40 0
r 4.000703 1 2 ack 1500 ------- 108 1.107 5.107 15725 14856 397 0x10 40 0
+ 4.000703 2 3 ack 1500 ------- 108 1.107 5.107 15725 14856 397 0x10 40 0
- 4.000703 2 3 ack 1500 ------- 108 1.107 5.107 15725 14856 397 0x10 40 0
r 4.000704 4 3 ack 1500 ------- 108 4.107 0.107 15725 14853 397 0x10 40 0
+ 4.000704 3 2 ack 1500 ------- 108 4.107 0.107 15725 14853 397 0x10 40 0
- 4.000704 3 2 ack 1500 ------- 108 4.107 0.107 15725 14853 397 0x10 40 0
r 4.000743 2 3 ack 110 ------- 86 1.85 5.85 5671 14845 1393 0x18 40 0
- 4.000798 4 3 ack 1500 ------- 328 4.327 0.327 471581 14886 434 0x10 40 0
r 4.000823 1 2 ack 1500 ------- 328 1.327 5.327 461361 14857 434 0x10 40 0
+ 4.000823 2 3 ack 1500 ------- 328 1.327 5.327 461361 14857 434 0x10 40 0
- 4.000823 2 3 ack 1500 ------- 328 1.327 5.327 461361 14857 434 0x10 40 0
r 4.000824 4 3 ack 1500 ------- 328 4.327 0.327 461361 14861 434 0x10 40 0
+ 4.000824 3 2 ack 1500 ------- 328 4.327 0.327 461361 14861 434 0x10 40 0
- 4.000824 3 2 ack 1500 ------- 328 4.327 0.327 461361 14861 434 0x10 40 0
r 4.000857 2 1 ack 40 ------- 328 5.327 1.327 434 14684 436541 0x18 40 0
+ 4.000857 1 2 ack 1500 ------- 328 1.327 5.327 470121 14887 434 0x10 40 0
- 4.000857 1 2 ack 1500 ------- 328 1.327 5.327 470121 14887 434 0x10 40 0
+ 4.000857 1 2 ack 1500 ------- 328 1.327 5.327 471581 14888 434 0x10 40 0
r 4.000943 1 2 ack 1500 ------- 328 1.327 5.327 462821 14858 434 0x10 40 0
+ 4.000943 2 3 ack 1500 ------- 328 1.327 5.327 462821 14858 434 0x10 40 0
- 4.000943 2 3 ack 1500 ------- 328 1.327 5.327 462821 14858 434 0x10 40 0
r 4.000944 4 3 ack 1500 ------- 328 4.327 0.327 462821 14862 434 0x10 40 0
+ 4.000944 3 2 ack 1500 ------- 328 4.327 0.327 462821 14862 434 0x10 40 0
- 4.000944 3 2 ack 1500 ------- 328 4.327 0.327 462821 14862 434 0x10 40 0
- 4.000977 1 2 ack 1500 ------- 328 1.327 5.327 471581 14888 434 0x10 40 0
r 4.001003 0 2 ack 40 ------- 328 0.327 4.327 434 14867 438001 0x18 40 0
r 4.001003 5 3 ack 40 ------- 328 5.327 1.327 434 14868 438001 0x18 40 0
r 4.001006 0 2 ack 40 ------- 217 0.216 4.216 386 14870 52561 0x18 40 0
r 4.001006 5 3 ack 40 ------- 217 5.216 1.216 386 14869 52561 0x18 40 0
r 4.00101 0 2 ack 40 ------- 272 0.271 4.271 515 14871 38365 0x18 40 0
r 4.00101 5 3 ack 40 ------- 272 5.271 1.271 515 14872 38365 0x18 40 0
r 4.001013 0 2 ack 40 ------- 56 0.55 4.55 6692 14873 556 0x18 40 0
r 4.001013 5 3 ack 40 ------- 56 5.55 1.55 6692 14874 556 0x18 40 0
r 4.001016 0 2 ack 40 ------- 65 0.64 4.64 379 14875 619041 0x18 40 0
r 4.001016 5 3 ack 40 ------- 65 5.64 1.64 379 14876 619041 0x18 40 0
r 4.001019 0 2 ack 40 ------- 232 0.231 4.231 63 14877 102 0x18 40 0
r 4.001019 5 3 ack 40 ------- 232 5.231 1.231 63 14878 102 0x18 40 0
r 4.001022 0 2 ack 40 ------- 183 0.182 4.182 213 14879 232949 0x18 40 0
r 4.001022 5 3 ack 40 ------- 183 5.182 1.182 213 14880 232949 0x18 40 0
r 4.001064 4 3 ack 1500 ------- 328 4.327 0.327 464281 14863 434 0x10 40 0
+ 4.001064 3 2 ack 1500 ------- 328 4.327 0.327 464281 14863 434 0x10 40 0
- 4.001064 3 2 ack 1500 ------- 328 4.327 0.327 464281 14863 434 0x10 40 0
r 4.001068 1 2 ack 1500 ------- 328 1.327 5.327 464281 14865 434 0x10 40 0
+ 4.001068 2 3 ack 1500 ------- 328 1.327 5.327 464281 14865 434 0x10 40 0
- 4.001068 2 3 ack 1500 ------- 328 1.327 5.327 464281 14865 434 0x10 40 0
r 4.001106 3 2 ack 110 ------- 86 4.85 0.85 5671 14846 1393 0x18 40 0
r 4.001184 4 3 ack 1500 ------- 328 4.327 0.327 465741 14864 434 0x10 40 0
+ 4.001184 3 2 ack 1500 ------- 328 4.327 0.327 465741 14864 434 0x10 40 0
- 4.001184 3 2 ack 1500 ------- 328 4.327 0.327 465741 14864 434 0x10 40 0
r 4.001188 1 2 ack 1500 ------- 328 1.327 5.327 465741 14866 434 0x10 40 0
+ 4.001188 2 3 ack 1500 ------- 328 1.327 5.327 465741 14866 434 0x10 40 0
- 4.001188 2 3 ack 1500 ------- 328 1.327 5.327 465741 14866 434 0x10 40 0
r 4.001315 4 3 ack 1500 ------- 328 4.327 0.327 467201 14881 434 0x10 40 0
+ 4.001315 3 2 ack 1500 ------- 328 4.327 0.327 467201 14881 434 0x10 40 0
- 4.001315 3 2 ack 1500 ------- 328 4.327 0.327 467201 14881 434 0x10 40 0
r 4.001341 2 3 ack 1500 ------- 328 1.327 5.327 458441 14847 434 0x10 40 0
r 4.001344 3 2 ack 1500 ------- 328 4.327 0.327 458441 14849 434 0x10 40 0
r 4.001435 4 3 ack 1500 ------- 328 4.327 0.327 468661 14882 434 0x10 40 0
+ 4.001435 3 2 ack 1500 ------- 328 4.327 0.327 468661 14882 434 0x10 40 0
- 4.001435 3 2 ack 1500 ------- 328 4.327 0.327 468661 14882 434 0x10 40 0
r 4.001444 3 4 ack 40 ------- 204 0.203 4.203 331 14423 45261 0x18 40 0
+ 4.001444 4 3 ack 1500 ------- 204 4.203 0.203 48181 14889 331 0x10 40 0
- 4.001444 4 3 ack 1500 ------- 204 4.203 0.203 48181 14889 331 0x10 40 0
+ 4.001444 4 3 ack 1500 ------- 204 4.203 0.203 49641 14890 331 0x10 40 0
r 4.001444 2 1 ack 40 ------- 204 5.203 1.203 331 14424 45261 0x18 40 0
+ 4.001444 1 2 ack 1500 ------- 204 1.203 5.203 48181 14891 331 0x10 40 0
- 4.001444 1 2 ack 1500 ------- 204 1.203 5.203 48181 14891 331 0x10 40 0
+ 4.001444 1 2 ack 1500 ------- 204 1.203 5.203 49641 14892 331 0x10 40 0
r 4.001461 2 3 ack 1500 ------- 328 1.327 5.327 459901 14848 434 0x10 40 0
r 4.001464 3 2 ack 1500 ------- 328 4.327 0.327 459901 14850 434 0x10 40 0
- 4.001564 4 3 ack 1500 ------- 204 4.203 0.203 49641 14890 331 0x10 40 0
- 4.001564 1 2 ack 1500 ------- 204 1.203 5.203 49641 14892 331 0x10 40 0
r 4.001583 2 3 ack 1500 ------- 108 1.107 5.107 12805 14854 397 0x10 40 0
r 4.001584 3 2 ack 1500 ------- 108 4.107 0.107 12805 14851 397 0x10 40 0
r 4.001636 1 2 ack 1500 ------- 328 1.327 5.327 467201 14883 434 0x10 40 0
+ 4.001636 2 3 ack 1500 ------- 328 1.327 5.327 467201 14883 434 0x10 40 0
- 4.001636 2 3 ack 1500 ------- 328 1.327 5.327 467201 14883 434 0x10 40 0
r 4.001703 2 3 ack 1500 ------- 108 1.107 5.107 14265 14855 397 0x10 40 0
r 4.001704 3 2 ack 1500 ------- 108 4.107 0.107 14265 14852 397 0x10 40 0
r 4.001756 1 2 ack 1500 ------- 328 1.327 5.327 468661 14884 434 0x10 40 0
+ 4.001756 2 3 ack 1500 ------- 328 1.327 5.327 468661 14884 434 0x10 40 0
- 4.001756 2 3 ack 1500 ------- 328 1.327 5.327 468661 14884 434 0x10 40 0
r 4.001798 4 3 ack 1500 ------- 328 4.327 0.327 470121 14885 434 0x10 40 0
+ 4.001798 3 2 ack 1500 ------- 328 4.327 0.327 470121 14885 434 0x10 40 0
- 4.001798 3 2 ack 1500 ------- 328 4.327 0.327 470121 14885 434 0x10 40 0
r 4.001823 2 3 ack 1500 ------- 108 1.107 5.107 15725 14856 397 0x10 40 0
r 4.001824 3 2 ack 1500 ------- 108 4.107 0.107 15725 14853 397 0x10 40 0
r 4.001918 4 3 ack 1500 ------- 328 4.327 0.327 471581 14886 434 0x10 40 0
+ 4.001918 3 2 ack 1500 ------- 328 4.327 0.327 471581 14886 434 0x10 40 0
- 4.001918 3 2 ack 1500 ------- 328 4.327 0.327 471581 14886 434 0x10 40 0
r 4.001943 2 3 ack 1500 ------- 328 1.327 5.327 461361 14857 434 0x10 40 0
r 4.001944 3 2 ack 1500 ------- 328 4.327 0.327 461361 14861 434 0x10 40 0
r 4.001977 1 2 ack 1500 ------- 328 1.327 5.327 470121 14887 434 0x10 40 0
+ 4.001977 2 3 ack 1500 ------- 328 1.327 5.327 470121 14887 434 0x10 40 0
- 4.001977 2 3 ack 1500 ------- 328 1.327 5.327 470121 14887 434 0x10 40 0
r 4.002063 2 3 ack 1500 ------- 328 1.327 5.327 462821 14858 434 0x10 40 0
r 4.002064 3 2 ack 1500 ------- 328 4.327 0.327 462821 14862 434 0x10 40 0
r 4.002097 1 2 ack 1500 ------- 328 1.327 5.327 471581 14888 434 0x10 40 0
+ 4.002097 2 3 ack 1500 ------- 328 1.327 5.327 471581 14888 434 0x10 40 0
- 4.002097 2 3 ack 1500 ------- 328 1.327 5.327 471581 14888 434 0x10 40 0
r 4.002184 3 2 ack 1500 ------- 328 4.327 0.327 464281 14863 434 0x10 40 0
r 4.002188 2 3 ack 1500 ------- 328 1.327 5.327 464281 14865 434 0x10 40 0
+ 4.00228 3 5 ack 1500 ------- 65 1.64 5.64 619041 14799 379 0x10 40 0
- 4.00228 3 5 ack 1500 ------- 65 1.64 5.64 619041 14799 379 0x10 40 0
r 4.002304 3 2 ack 1500 ------- 328 4.327 0.327 465741 14864 434 0x10 40 0
r 4.002308 2 3 ack 1500 ------- 328 1.327 5.327 465741 14866 434 0x10 40 0
+ 4.0024 3 5 ack 1500 ------- 65 1.64 5.64 620501 14800 379 0x10 40 0
- 4.0024 3 5 ack 1500 ------- 65 1.64 5.64 620501 14800 379 0x10 40 0
r 4.002435 3 2 ack 1500 ------- 328 4.327 0.327 467201 14881 434 0x10 40 0
+ 4.002438 2 0 ack 1500 ------- 65 4.64 0.64 619041 14801 379 0x10 40 0
- 4.002438 2 0 ack 1500 ------- 65 4.64 0.64 619041 14801 379 0x10 40 0
r 4.002555 3 2 ack 1500 ------- 328 4.327 0.327 468661 14882 434 0x10 40 0
+ 4.002558 2 0 ack 1500 ------- 65 4.64 0.64 620501 14802 379 0x10 40 0
- 4.002558 2 0 ack 1500 ------- 65 4.64 0.64 620501 14802 379 0x10 40 0
r 4.002564 4 3 ack 1500 ------- 204 4.203 0.203 48181 14889 331 0x10 40 0
+ 4.002564 3 2 ack 1500 ------- 204 4.203 0.203 48181 14889 331 0x10 40 0
- 4.002564 3 2 ack 1500 ------- 204 4.203 0.203 48181 14889 331 0x10 40 0
r 4.002564 1 2 ack 1500 ------- 204 1.203 5.203 48181 14891 331 0x10 40 0
+ 4.002564 2 3 ack 1500 ------- 204 1.203 5.203 48181 14891 331 0x10 40 0
- 4.002564 2 3 ack 1500 ------- 204 1.203 5.203 48181 14891 331 0x10 40 0
r 4.002684 4 3 ack 1500 ------- 204 4.203 0.203 49641 14890 331 0x10 40 0
+ 4.002684 3 2 ack 1500 ------- 204 4.203 0.203 49641 14890 331 0x10 40 0
r 4.002684 1 2 ack 1500 ------- 204 1.203 5.203 49641 14892 331 0x10 40 0
+ 4.002684 2 3 ack 1500 ------- 204 1.203 5.203 49641 14892 331 0x10 40 0
- 4.002684 3 2 ack 1500 ------- 204 4.203 0.203 49641 14890 331 0x10 40 0
- 4.002684 2 3 ack 1500 ------- 204 1.203 5.203 49641 14892 331 0x10 40 0
r 4.002756 2 3 ack 1500 ------- 328 1.327 5.327 467201 14883 434 0x10 40 0
r 4.002876 2 3 ack 1500 ------- 328 1.327 5.327 468661 14884 434 0x10 40 0
r 4.002918 3 2 ack 1500 ------- 328 4.327 0.327 470121 14885 434 0x10 40 0
r 4.003038 3 2 ack 1500 ------- 328 4.327 0.327 471581 14886 434 0x10 40 0
r 4.003097 2 3 ack 1500 ------- 328 1.327 5.327 470121 14887 434 0x10 40 0
r 4.003217 2 3 ack 1500 ------- 328 1.327 5.327 471581 14888 434 0x10 40 0
r 4.0034 3 5 ack 1500 ------- 65 1.64 5.64 619041 14799 379 0x10 40 0
r 4.00352 3 5 ack 1500 ------- 65 1.64 5.64 620501 14800 379 0x10 40 0
+ 4.00352 5 3 ack 40 ------- 65 5.64 1.64 379 14893 621961 0x18 40 0
- 4.00352 5 3 ack 40 ------- 65 5.64 1.64 379 14893 621961 0x18 40 0
r 4.003558 2 0 ack 1500 ------- 65 4.64 0.64 619041 14801 379 0x10 40 0
r 4.003678 2 0 ack 1500 ------- 65 4.64 0.64 620501 14802 379 0x10 40 0
+ 4.003678 0 2 ack 40 ------- 65 0.64 4.64 379 14894 621961 0x18 40 0
- 4.003678 0 2 ack 40 ------- 65 0.64 4.64 379 14894 621961 0x18 40 0
r 4.003684 3 2 ack 1500 ------- 204 4.203 0.203 48181 14889 331 0x10 40 0
r 4.003684 2 3 ack 1500 ------- 204 1.203 5.203 48181 14891 331 0x10 40 0
r 4.003804 3 2 ack 1500 ------- 204 4.203 0.203 49641 14890 331 0x10 40 0
r 4.003804 2 3 ack 1500 ------- 204 1.203 5.203 49641 14892 331 0x10 40 0
+ 4.003952 2 3 ack 40 ------- 204 0.203 4.203 331 14447 48181 0x18 40 0
- 4.003952 2 3 ack 40 ------- 204 0.203 4.203 331 14447 48181 0x18 40 0
+ 4.003952 3 2 ack 40 ------- 204 5.203 1.203 331 14448 48181 0x18 40 0
- 4.003952 3 2 ack 40 ------- 204 5.203 1.203 331 14448 48181 0x18 40 0
r 4.004523 5 3 ack 40 ------- 65 5.64 1.64 379 14893 621961 0x18 40 0
r 4.004682 0 2 ack 40 ------- 65 0.64 4.64 379 14894 621961 0x18 40 0
r 4.004955 2 3 ack 40 ------- 204 0.203 4.203 331 14447 48181 0x18 40 0
+ 4.004955 3 4 ack 40 ------- 204 0.203 4.203 331 14447 48181 0x18 40 0
- 4.004955 3 4 ack 40 ------- 204 0.203 4.203 331 14447 48181 0x18 40 0
r 4.004955 3 2 ack 40 ------- 204 5.203 1.203 331 14448 48181 0x18 40 0
+ 4.004955 2 1 ack 40 ------- 204 5.203 1.203 331 14448 48181 0x18 40 0
- 4.004955 2 1 ack 40 ------- 204 5.203 1.203 331 14448 48181 0x18 40 0
+ 4.005832 3 5 ack 1500 ------- 108 1.107 5.107 12805 14854 397 0x10 40 0
- 4.005832 3 5 ack 1500 ------- 108 1.107 5.107 12805 14854 397 0x10 40 0
+ 4.005833 2 0 ack 1500 ------- 108 4.107 0.107 12805 14851 397 0x10 40 0
- 4.005833 2 0 ack 1500 ------- 108 4.107 0.107 12805 14851 397 0x10 40 0
+ 4.005952 3 5 ack 1500 ------- 108 1.107 5.107 14265 14855 397 0x10 40 0
- 4.005952 3 5 ack 1500 ------- 108 1.107 5.107 14265 14855 397 0x10 40 0
+ 4.005953 2 0 ack 1500 ------- 108 4.107 0.107 14265 14852 397 0x10 40 0
- 4.005953 2 0 ack 1500 ------- 108 4.107 0.107 14265 14852 397 0x10 40 0
r 4.005959 3 4 ack 40 ------- 204 0.203 4.203 331 14447 48181 0x18 40 0
+ 4.005959 4 3 ack 1500 ------- 204 4.203 0.203 51101 14895 331 0x10 40 0
- 4.005959 4 3 ack 1500 ------- 204 4.203 0.203 51101 14895 331 0x10 40 0
+ 4.005959 4 3 ack 1500 ------- 204 4.203 0.203 52561 14896 331 0x10 40 0
r 4.005959 2 1 ack 40 ------- 204 5.203 1.203 331 14448 48181 0x18 40 0
+ 4.005959 1 2 ack 1500 ------- 204 1.203 5.203 51101 14897 331 0x10 40 0
- 4.005959 1 2 ack 1500 ------- 204 1.203 5.203 51101 14897 331 0x10 40 0
+ 4.005959 1 2 ack 1500 ------- 204 1.203 5.203 52561 14898 331 0x10 40 0
+ 4.006072 3 5 ack 1500 ------- 108 1.107 5.107 15725 14856 397 0x10 40 0
- 4.006072 3 5 ack 1500 ------- 108 1.107 5.107 15725 14856 397 0x10 40 0
+ 4.006073 2 0 ack 1500 ------- 108 4.107 0.107 15725 14853 397 0x10 40 0
- 4.006073 2 0 ack 1500 ------- 108 4.107 0.107 15725 14853 397 0x10 40 0
- 4.006079 4 3 ack 1500 ------- 204 4.203 0.203 52561 14896 331 0x10 40 0
- 4.006079 1 2 ack 1500 ------- 204 1.203 5.203 52561 14898 331 0x10 40 0
r 4.006952 3 5 ack 1500 ------- 108 1.107 5.107 12805 14854 397 0x10 40 0
r 4.006953 2 0 ack 1500 ------- 108 4.107 0.107 12805 14851 397 0x10 40 0
r 4.007072 3 5 ack 1500 ------- 108 1.107 5.107 14265 14855 397 0x10 40 0
+ 4.007072 5 3 ack 40 ------- 108 5.107 1.107 397 14899 15725 0x18 40 0
- 4.007072 5 3 ack 40 ------- 108 5.107 1.107 397 14899 15725 0x18 40 0
r 4.007073 2 0 ack 1500 ------- 108 4.107 0.107 14265 14852 397 0x10 40 0
+ 4.007073 0 2 ack 40 ------- 108 0.107 4.107 397 14900 15725 0x18 40 0
- 4.007073 0 2 ack 40 ------- 108 0.107 4.107 397 14900 15725 0x18 40 0
r 4.007079 4 3 ack 1500 ------- 204 4.203 0.203 51101 14895 331 0x10 40 0
+ 4.007079 3 2 ack 1500 ------- 204 4.203 0.203 51101 14895 331 0x10 40 0
- 4.007079 3 2 ack 1500 ------- 204 4.203 0.203 51101 14895 331 0x10 40 0
r 4.007079 1 2 ack 1500 ------- 204 1.203 5.203 51101 14897 331 0x10 40 0
+ 4.007079 2 3 ack 1500 ------- 204 1.203 5.203 51101 14897 331 0x10 40 0
- 4.007079 2 3 ack 1500 ------- 204 1.203 5.203 51101 14897 331 0x10 40 0
r 4.007192 3 5 ack 1500 ------- 108 1.107 5.107 15725 14856 397 0x10 40 0
r 4.007193 2 0 ack 1500 ------- 108 4.107 0.107 15725 14853 397 0x10 40 0
r 4.007199 4 3 ack 1500 ------- 204 4.203 0.203 52561 14896 331 0x10 40 0
+ 4.007199 3 2 ack 1500 ------- 204 4.203 0.203 52561 14896 331 0x10 40 0
r 4.007199 1 2 ack 1500 ------- 204 1.203 5.203 52561 14898 331 0x10 40 0
+ 4.007199 2 3 ack 1500 ------- 204 1.203 5.203 52561 14898 331 0x10 40 0
- 4.007199 3 2 ack 1500 ------- 204 4.203 0.203 52561 14896 331 0x10 40 0
- 4.007199 2 3 ack 1500 ------- 204 1.203 5.203 52561 14898 331 0x10 40 0
+ 4.007988 2 3 ack 40 ------- 232 0.231 4.231 63 14877 102 0x18 40 0
- 4.007988 2 3 ack 40 ------- 232 0.231 4.231 63 14877 102 0x18 40 0
+ 4.007988 3 2 ack 40 ------- 232 5.231 1.231 63 14878 102 0x18 40 0
- 4.007988 3 2 ack 40 ------- 232 5.231 1.231 63 14878 102 0x18 40 0
+ 4.008018 3 2 ack 40 ------- 183 5.182 1.182 213 14803 211049 0x18 40 0
- 4.008018 3 2 ack 40 ------- 183 5.182 1.182 213 14803 211049 0x18 40 0
r 4.008076 5 3 ack 40 ------- 108 5.107 1.107 397 14899 15725 0x18 40 0
r 4.008076 0 2 ack 40 ------- 108 0.107 4.107 397 14900 15725 0x18 40 0
+ 4.008116 2 3 ack 40 ------- 183 0.182 4.182 213 14804 211049 0x18 40 0
- 4.008116 2 3 ack 40 ------- 183 0.182 4.182 213 14804 211049 0x18 40 0
r 4.008199 3 2 ack 1500 ------- 204 4.203 0.203 51101 14895 331 0x10 40 0
r 4.008199 2 3 ack 1500 ------- 204 1.203 5.203 51101 14897 331 0x10 40 0
r 4.008319 3 2 ack 1500 ------- 204 4.203 0.203 52561 14896 331 0x10 40 0
r 4.008319 2 3 ack 1500 ------- 204 1.203 5.203 52561 14898 331 0x10 40 0
+ 4.008345 3 2 ack 40 ------- 183 5.182 1.182 213 14805 213969 0x18 40 0
- 4.008345 3 2 ack 40 ------- 183 5.182 1.182 213 14805 213969 0x18 40 0
+ 4.008356 2 3 ack 40 ------- 183 0.182 4.182 213 14808 213969 0x18 40 0
- 4.008356 2 3 ack 40 ------- 183 0.182 4.182 213 14808 213969 0x18 40 0
+ 4.008588 3 2 ack 40 ------- 183 5.182 1.182 213 14811 216889 0x18 40 0
- 4.008588 3 2 ack 40 ------- 183 5.182 1.182 213 14811 216889 0x18 40 0
+ 4.008599 2 3 ack 40 ------- 183 0.182 4.182 213 14812 216889 0x18 40 0
- 4.008599 2 3 ack 40 ------- 183 0.182 4.182 213 14812 216889 0x18 40 0
+ 4.008847 3 2 ack 40 ------- 183 5.182 1.182 213 14813 219809 0x18 40 0
- 4.008847 3 2 ack 40 ------- 183 5.182 1.182 213 14813 219809 0x18 40 0
+ 4.008858 2 3 ack 40 ------- 183 0.182 4.182 213 14814 219809 0x18 40 0
- 4.008858 2 3 ack 40 ------- 183 0.182 4.182 213 14814 219809 0x18 40 0
r 4.008991 2 3 ack 40 ------- 232 0.231 4.231 63 14877 102 0x18 40 0
+ 4.008991 3 4 ack 40 ------- 232 0.231 4.231 63 14877 102 0x18 40 0
- 4.008991 3 4 ack 40 ------- 232 0.231 4.231 63 14877 102 0x18 40 0
r 4.008991 3 2 ack 40 ------- 232 5.231 1.231 63 14878 102 0x18 40 0
+ 4.008991 2 1 ack 40 ------- 232 5.231 1.231 63 14878 102 0x18 40 0
- 4.008991 2 1 ack 40 ------- 232 5.231 1.231 63 14878 102 0x18 40 0
r 4.009021 3 2 ack 40 ------- 183 5.182 1.182 213 14803 211049 0x18 40 0
+ 4.009021 2 1 ack 40 ------- 183 5.182 1.182 213 14803 211049 0x18 40 0
- 4.009021 2 1 ack 40 ------- 183 5.182 1.182 213 14803 211049 0x18 40 0
+ 4.009087 3 2 ack 40 ------- 183 5.182 1.182 213 14815 222729 0x18 40 0
- 4.009087 3 2 ack 40 ------- 183 5.182 1.182 213 14815 222729 0x18 40 0
+ 4.009098 2 3 ack 40 ------- 183 0.182 4.182 213 14816 222729 0x18 40 0
- 4.009098 2 3 ack 40 ------- 183 0.182 4.182 213 14816 222729 0x18 40 0
r 4.009119 2 3 ack 40 ------- 183 0.182 4.182 213 14804 211049 0x18 40 0
+ 4.009119 3 4 ack 40 ------- 183 0.182 4.182 213 14804 211049 0x18 40 0
- 4.009119 3 4 ack 40 ------- 183 0.182 4.182 213 14804 211049 0x18 40 0
+ 4.009327 3 2 ack 40 ------- 183 5.182 1.182 213 14817 225649 0x18 40 0
- 4.009327 3 2 ack 40 ------- 183 5.182 1.182 213 14817 225649 0x18 40 0
+ 4.009338 2 3 ack 40 ------- 183 0.182 4.182 213 14818 225649 0x18 40 0
- 4.009338 2 3 ack 40 ------- 183 0.182 4.182 213 14818 225649 0x18 40 0
r 4.009348 3 2 ack 40 ------- 183 5.182 1.182 213 14805 213969 0x18 40 0
+ 4.009348 2 1 ack 40 ------- 183 5.182 1.182 213 14805 213969 0x18 40 0
- 4.009348 2 1 ack 40 ------- 183 5.182 1.182 213 14805 213969 0x18 40 0
r 4.009359 2 3 ack 40 ------- 183 0.182 4.182 213 14808 213969 0x18 40 0
+ 4.009359 3 4 ack 40 ------- 183 0.182 4.182 213 14808 213969 0x18 40 0
- 4.009359 3 4 ack 40 ------- 183 0.182 4.182 213 14808 213969 0x18 40 0
r 4.009592 3 2 ack 40 ------- 183 5.182 1.182 213 14811 216889 0x18 40 0
+ 4.009592 2 1 ack 40 ------- 183 5.182 1.182 213 14811 216889 0x18 40 0
- 4.009592 2 1 ack 40 ------- 183 5.182 1.182 213 14811 216889 0x18 40 0
+ 4.009592 3 2 ack 40 ------- 183 5.182 1.182 213 14819 228569 0x18 40 0
- 4.009592 3 2 ack 40 ------- 183 5.182 1.182 213 14819 228569 0x18 40 0
r 4.009602 2 3 ack 40 ------- 183 0.182 4.182 213 14812 216889 0x18 40 0
+ 4.009602 3 4 ack 40 ------- 183 0.182 4.182 213 14812 216889 0x18 40 0
- 4.009602 3 4 ack 40 ------- 183 0.182 4.182 213 14812 216889 0x18 40 0
+ 4.009602 2 3 ack 40 ------- 183 0.182 4.182 213 14820 228569 0x18 40 0
- 4.009602 2 3 ack 40 ------- 183 0.182 4.182 213 14820 228569 0x18 40 0
+ 4.009832 3 2 ack 40 ------- 183 5.182 1.182 213 14821 231489 0x18 40 0
- 4.009832 3 2 ack 40 ------- 183 5.182 1.182 213 14821 231489 0x18 40 0
+ 4.009842 2 3 ack 40 ------- 183 0.182 4.182 213 14822 231489 0x18 40 0
- 4.009842 2 3 ack 40 ------- 183 0.182 4.182 213 14822 231489 0x18 40 0
r 4.009851 3 2 ack 40 ------- 183 5.182 1.182 213 14813 219809 0x18 40 0
+ 4.009851 2 1 ack 40 ------- 183 5.182 1.182 213 14813 219809 0x18 40 0
- 4.009851 2 1 ack 40 ------- 183 5.182 1.182 213 14813 219809 0x18 40 0
r 4.009861 2 3 ack 40 ------- 183 0.182 4.182 213 14814 219809 0x18 40 0
+ 4.009861 3 4 ack 40 ------- 183 0.182 4.182 213 14814 219809 0x18 40 0
- 4.009861 3 4 ack 40 ------- 183 0.182 4.182 213 14814 219809 0x18 40 0
r 4.009994 3 4 ack 40 ------- 232 0.231 4.231 63 14877 102 0x18 40 0
r 4.009994 2 1 ack 40 ------- 232 5.231 1.231 63 14878 102 0x18 40 0
r 4.010025 2 1 ack 40 ------- 183 5.182 1.182 213 14803 211049 0x18 40 0
+ 4.010025 1 2 ack 1500 ------- 183 1.182 5.182 232949 14901 213 0x10 40 0
- 4.010025 1 2 ack 1500 ------- 183 1.182 5.182 232949 14901 213 0x10 40 0
+ 4.010025 1 2 ack 1500 ------- 183 1.182 5.182 234409 14902 213 0x10 40 0
r 4.010091 3 2 ack 40 ------- 183 5.182 1.182 213 14815 222729 0x18 40 0
+ 4.010091 2 1 ack 40 ------- 183 5.182 1.182 213 14815 222729 0x18 40 0
- 4.010091 2 1 ack 40 ------- 183 5.182 1.182 213 14815 222729 0x18 40 0
r 4.010101 2 3 ack 40 ------- 183 0.182 4.182 213 14816 222729 0x18 40 0
+ 4.010101 3 4 ack 40 ------- 183 0.182 4.182 213 14816 222729 0x18 40 0
- 4.010101 3 4 ack 40 ------- 183 0.182 4.182 213 14816 222729 0x18 40 0
r 4.010122 3 4 ack 40 ------- 183 0.182 4.182 213 14804 211049 0x18 40 0
+ 4.010122 4 3 ack 1500 ------- 183 4.182 0.182 232949 14903 213 0x10 40 0
- 4.010122 4 3 ack 1500 ------- 183 4.182 0.182 232949 14903 213 0x10 40 0
+ 4.010122 4 3 ack 1500 ------- 183 4.182 0.182 234409 14904 213 0x10 40 0
- 4.010145 1 2 ack 1500 ------- 183 1.182 5.182 234409 14902 213 0x10 40 0
- 4.010242 4 3 ack 1500 ------- 183 4.182 0.182 234409 14904 213 0x10 40 0
+ 4.010323 2 0 ack 1500 ------- 217 4.216 0.216 52561 14551 386 0x10 40 0
- 4.010323 2 0 ack 1500 ------- 217 4.216 0.216 52561 14551 386 0x10 40 0
+ 4.010323 3 5 ack 1500 ------- 217 1.216 5.216 52561 14552 386 0x10 40 0
- 4.010323 3 5 ack 1500 ------- 217 1.216 5.216 52561 14552 386 0x10 40 0
r 4.010331 3 2 ack 40 ------- 183 5.182 1.182 213 14817 225649 0x18 40 0
+ 4.010331 2 1 ack 40 ------- 183 5.182 1.182 213 14817 225649 0x18 40 0
- 4.010331 2 1 ack 40 ------- 183 5.182 1.182 213 14817 225649 0x18 40 0
r 4.010341 2 3 ack 40 ------- 183 0.182 4.182 213 14818 225649 0x18 40 0
+ 4.010341 3 4 ack 40 ------- 183 0.182 4.182 213 14818 225649 0x18 40 0
- 4.010341 3 4 ack 40 ------- 183 0.182 4.182 213 14818 225649 0x18 40 0
r 4.010352 2 1 ack 40 ------- 183 5.182 1.182 213 14805 213969 0x18 40 0
+ 4.010352 1 2 ack 1500 ------- 183 1.182 5.182 235869 14905 213 0x10 40 0
- 4.010352 1 2 ack 1500 ------- 183 1.182 5.182 235869 14905 213 0x10 40 0
+ 4.010352 1 2 ack 1500 ------- 183 1.182 5.182 237329 14906 213 0x10 40 0
r 4.010362 3 4 ack 40 ------- 183 0.182 4.182 213 14808 213969 0x18 40 0
+ 4.010362 4 3 ack 1500 ------- 183 4.182 0.182 235869 14907 213 0x10 40 0
+ 4.010362 4 3 ack 1500 ------- 183 4.182 0.182 237329 14908 213 0x10 40 0
- 4.010362 4 3 ack 1500 ------- 183 4.182 0.182 235869 14907 213 0x10 40 0
- 4.010472 1 2 ack 1500 ------- 183 1.182 5.182 237329 14906 213 0x10 40 0
- 4.010482 4 3 ack 1500 ------- 183 4.182 0.182 237329 14908 213 0x10 40 0
r 4.010595 2 1 ack 40 ------- 183 5.182 1.182 213 14811 216889 0x18 40 0
+ 4.010595 1 2 ack 1500 ------- 183 1.182 5.182 238789 14909 213 0x10 40 0
- 4.010595 1 2 ack 1500 ------- 183 1.182 5.182 238789 14909 213 0x10 40 0
+ 4.010595 1 2 ack 1500 ------- 183 1.182 5.182 240249 14910 213 0x10 40 0
r 4.010595 3 2 ack 40 ------- 183 5.182 1.182 213 14819 228569 0x18 40 0
+ 4.010595 2 1 ack 40 ------- 183 5.182 1.182 213 14819 228569 0x18 40 0
- 4.010595 2 1 ack 40 ------- 183 5.182 1.182 213 14819 228569 0x18 40 0
r 4.010605 3 4 ack 40 ------- 183 0.182 4.182 213 14812 216889 0x18 40 0
+ 4.010605 4 3 ack 1500 ------- 183 4.182 0.182 238789 14911 213 0x10 40 0
- 4.010605 4 3 ack 1500 ------- 183 4.182 0.182 238789 14911 213 0x10 40 0
+ 4.010605 4 3 ack 1500 ------- 183 4.182 0.182 240249 14912 213 0x10 40 0
r 4.010606 2 3 ack 40 ------- 183 0.182 4.182 213 14820 228569 0x18 40 0
+ 4.010606 3 4 ack 40 ------- 183 0.182 4.182 213 14820 228569 0x18 40 0
- 4.010606 3 4 ack 40 ------- 183 0.182 4.182 213 14820 228569 0x18 40 0
+ 4.010684 3 2 ack 1500 ------- 300 5.299 1.299 138701 14735 1 0x10 40 0
- 4.010684 3 2 ack 1500 ------- 300 5.299 1.299 138701 14735 1 0x10 40 0
- 4.010715 1 2 ack 1500 ------- 183 1.182 5.182 240249 14910 213 0x10 40 0
- 4.010725 4 3 ack 1500 ------- 183 4.182 0.182 240249 14912 213 0x10 40 0
+ 4.010786 2 3 ack 1500 ------- 300 0.299 4.299 138701 14745 1 0x10 40 0
- 4.010786 2 3 ack 1500 ------- 300 0.299 4.299 138701 14745 1 0x10 40 0
+ 4.010804 3 2 ack 1500 ------- 300 5.299 1.299 140161 14736 1 0x10 40 0