+ 4 0 2 ack 40 ------- 122 0.121 4.121 525 14465 1703 0x18 40 0
- 4 0 2 ack 40 ------- 122 0.121 4.121 525 14465 1703 0x18 40 0
+ 4 5 3 ack 40 ------- 328 5.327 1.327 434 14466 438001 0x18 40 0
- 4 5 3 ack 40 ------- 328 5.327 1.327 434 14466 438001 0x18 40 0
+ 4 0 2 ack 40 ------- 328 0.327 4.327 434 14467 438001 0x18 40 0
+ 4 0 2 ack 40 ------- 272 0.271 4.271 515 14468 38365 0x18 40 0
+ 4 5 3 ack 40 ------- 272 5.271 1.271 515 14469 38365 0x18 40 0
+ 4 0 2 ack 40 ------- 56 0.55 4.55 6692 14470 556 0x18 40 0
+ 4 5 3 ack 40 ------- 56 5.55 1.55 6692 14471 556 0x18 40 0
+ 4 0 2 ack 40 ------- 65 0.64 4.64 379 14472 619041 0x18 40 0
+ 4 5 3 ack 40 ------- 65 5.64 1.64 379 14473 619041 0x18 40 0
+ 4 0 2 ack 40 ------- 232 0.231 4.231 63 14474 102 0x18 40 0
+ 4 5 3 ack 40 ------- 232 5.231 1.231 63 14475 102 0x18 40 0
+ 4 4 3 ack 40 ------- 142 4.141 0.141 1 14476 333 0x18 40 0
- 4 4 3 ack 40 ------- 142 4.141 0.141 1 14476 333 0x18 40 0
+ 4 0 2 ack 40 ------- 183 0.182 4.182 213 14477 232949 0x18 40 0
+ 4 5 3 ack 40 ------- 183 5.182 1.182 213 14478 232949 0x18 40 0
- 4.000003 0 2 ack 40 ------- 328 0.327 4.327 434 14467 438001 0x18 40 0
- 4.000003 5 3 ack 40 ------- 272 5.271 1.271 515 14469 38365 0x18 40 0
- 4.000006 0 2 ack 40 ------- 272 0.271 4.271 515 14468 38365 0x18 40 0
- 4.000006 5 3 ack 40 ------- 56 5.55 1.55 6692 14471 556 0x18 40 0
- 4.00001 0 2 ack 40 ------- 56 0.55 4.55 6692 14470 556 0x18 40 0
- 4.00001 5 3 ack 40 ------- 65 5.64 1.64 379 14473 619041 0x18 40 0
- 4.000013 0 2 ack 40 ------- 65 0.64 4.64 379 14472 619041 0x18 40 0
- 4.000013 5 3 ack 40 ------- 232 5.231 1.231 63 14475 102 0x18 40 0
- 4.000016 0 2 ack 40 ------- 232 0.231 4.231 63 14474 102 0x18 40 0
- 4.000016 5 3 ack 40 ------- 183 5.182 1.182 213 14478 232949 0x18 40 0
- 4.000019 0 2 ack 40 ------- 183 0.182 4.182 213 14477 232949 0x18 40 0
- 4.000038 1 2 ack 1500 ------- 328 1.327 5.327 461361 14463 434 0x10 40 0
r 4.000061 3 4 ack 40 ------- 328 0.327 4.327 434 14285 427781 0x18 40 0
+ 4.000061 4 3 ack 1500 ------- 328 4.327 0.327 461361 14479 434 0x10 40 0
- 4.000061 4 3 ack 1500 ------- 328 4.327 0.327 461361 14479 434 0x10 40 0
+ 4.000061 4 3 ack 1500 ------- 328 4.327 0.327 462821 14480 434 0x10 40 0
r 4.000064 2 3 ack 40 ------- 328 0.327 4.327 434 14297 436541 0x18 40 0
+ 4.000064 3 4 ack 40 ------- 328 0.327 4.327 434 14297 436541 0x18 40 0
- 4.000064 3 4 ack 40 ------- 328 0.327 4.327 434 14297 436541 0x18 40 0
r 4.000092 4 3 ack 110 ------- 86 4.85 0.85 5671 14451 1393 0x18 40 0
+ 4.000092 3 2 ack 110 ------- 86 4.85 0.85 5671 14451 1393 0x18 40 0
- 4.000092 3 2 ack 110 ------- 86 4.85 0.85 5671 14451 1393 0x18 40 0
- 4.000158 1 2 ack 1500 ------- 328 1.327 5.327 462821 14464 434 0x10 40 0
r 4.000172 1 2 ack 110 ------- 86 1.85 5.85 5671 14452 1393 0x18 40 0
+ 4.000172 2 3 ack 110 ------- 86 1.85 5.85 5671 14452 1393 0x18 40 0
- 4.000172 2 3 ack 110 ------- 86 1.85 5.85 5671 14452 1393 0x18 40 0
- 4.000181 4 3 ack 1500 ------- 328 4.327 0.327 462821 14480 434 0x10 40 0
r 4.000251 2 1 ack 40 ------- 328 5.327 1.327 434 14288 430701 0x18 40 0
+ 4.000251 1 2 ack 1500 ------- 328 1.327 5.327 464281 14481 434 0x10 40 0
+ 4.000251 1 2 ack 1500 ------- 328 1.327 5.327 465741 14482 434 0x10 40 0
- 4.000278 1 2 ack 1500 ------- 328 1.327 5.327 464281 14481 434 0x10 40 0
r 4.000305 3 4 ack 40 ------- 328 0.327 4.327 434 14289 430701 0x18 40 0
+ 4.000305 4 3 ack 1500 ------- 328 4.327 0.327 464281 14483 434 0x10 40 0
- 4.000305 4 3 ack 1500 ------- 328 4.327 0.327 464281 14483 434 0x10 40 0
+ 4.000305 4 3 ack 1500 ------- 328 4.327 0.327 465741 14484 434 0x10 40 0
r 4.000317 2 3 ack 40 ------- 204 0.203 4.203 331 14026 45261 0x18 40 0
+ 4.000317 3 4 ack 40 ------- 204 0.203 4.203 331 14026 45261 0x18 40 0
- 4.000317 3 4 ack 40 ------- 204 0.203 4.203 331 14026 45261 0x18 40 0
- 4.000398 1 2 ack 1500 ------- 328 1.327 5.327 465741 14482 434 0x10 40 0
- 4.000425 4 3 ack 1500 ------- 328 4.327 0.327 465741 14484 434 0x10 40 0
r 4.00044 3 2 ack 40 ------- 204 5.203 1.203 331 14027 45261 0x18 40 0
+ 4.00044 2 1 ack 40 ------- 204 5.203 1.203 331 14027 45261 0x18 40 0
- 4.00044 2 1 ack 40 ------- 204 5.203 1.203 331 14027 45261 0x18 40 0
r 4.000452 4 3 ack 1500 ------- 108 4.107 0.107 12805 14453 397 0x10 40 0
+ 4.000452 3 2 ack 1500 ------- 108 4.107 0.107 12805 14453 397 0x10 40 0
- 4.000452 3 2 ack 1500 ------- 108 4.107 0.107 12805 14453 397 0x10 40 0
r 4.000491 2 1 ack 40 ------- 328 5.327 1.327 434 14290 433621 0x18 40 0
+ 4.000491 1 2 ack 1500 ------- 328 1.327 5.327 467201 14485 434 0x10 40 0
+ 4.000491 1 2 ack 1500 ------- 328 1.327 5.327 468661 14486 434 0x10 40 0
- 4.000518 1 2 ack 1500 ------- 328 1.327 5.327 467201 14485 434 0x10 40 0
r 4.000545 3 4 ack 40 ------- 328 0.327 4.327 434 14291 433621 0x18 40 0
+ 4.000545 4 3 ack 1500 ------- 328 4.327 0.327 467201 14487 434 0x10 40 0
+ 4.000545 4 3 ack 1500 ------- 328 4.327 0.327 468661 14488 434 0x10 40 0
- 4.000545 4 3 ack 1500 ------- 328 4.327 0.327 467201 14487 434 0x10 40 0
r 4.000558 1 2 ack 1500 ------- 108 1.107 5.107 12805 14458 397 0x10 40 0
+ 4.000558 2 3 ack 1500 ------- 108 1.107 5.107 12805 14458 397 0x10 40 0
- 4.000558 2 3 ack 1500 ------- 108 1.107 5.107 12805 14458 397 0x10 40 0
r 4.000572 4 3 ack 1500 ------- 108 4.107 0.107 14265 14454 397 0x10 40 0
+ 4.000572 3 2 ack 1500 ------- 108 4.107 0.107 14265 14454 397 0x10 40 0
- 4.000572 3 2 ack 1500 ------- 108 4.107 0.107 14265 14454 397 0x10 40 0
- 4.000638 1 2 ack 1500 ------- 328 1.327 5.327 468661 14486 434 0x10 40 0
- 4.000665 4 3 ack 1500 ------- 328 4.327 0.327 468661 14488 434 0x10 40 0
r 4.000678 1 2 ack 1500 ------- 108 1.107 5.107 14265 14459 397 0x10 40 0
+ 4.000678 2 3 ack 1500 ------- 108 1.107 5.107 14265 14459 397 0x10 40 0
- 4.000678 2 3 ack 1500 ------- 108 1.107 5.107 14265 14459 397 0x10 40 0
r 4.000692 4 3 ack 1500 ------- 108 4.107 0.107 15725 14455 397 0x10 40 0
+ 4.000692 3 2 ack 1500 ------- 108 4.107 0.107 15725 14455 397 0x10 40 0
- 4.000692 3 2 ack 1500 ------- 108 4.107 0.107 15725 14455 397 0x10 40 0
r 4.000731 2 1 ack 40 ------- 328 5.327 1.327 434 14294 436541 0x18 40 0
+ 4.000731 1 2 ack 1500 ------- 328 1.327 5.327 470121 14489 434 0x10 40 0
+ 4.000731 1 2 ack 1500 ------- 328 1.327 5.327 471581 14490 434 0x10 40 0
- 4.000758 1 2 ack 1500 ------- 328 1.327 5.327 470121 14489 434 0x10 40 0
r 4.000798 1 2 ack 1500 ------- 108 1.107 5.107 15725 14460 397 0x10 40 0
+ 4.000798 2 3 ack 1500 ------- 108 1.107 5.107 15725 14460 397 0x10 40 0
- 4.000798 2 3 ack 1500 ------- 108 1.107 5.107 15725 14460 397 0x10 40 0
r 4.000812 4 3 ack 1500 ------- 328 4.327 0.327 458441 14456 434 0x10 40 0
+ 4.000812 3 2 ack 1500 ------- 328 4.327 0.327 458441 14456 434 0x10 40 0
- 4.000812 3 2 ack 1500 ------- 328 4.327 0.327 458441 14456 434 0x10 40 0
- 4.000878 1 2 ack 1500 ------- 328 1.327 5.327 471581 14490 434 0x10 40 0
r 4.000918 1 2 ack 1500 ------- 328 1.327 5.327 458441 14461 434 0x10 40 0
+ 4.000918 2 3 ack 1500 ------- 328 1.327 5.327 458441 14461 434 0x10 40 0
- 4.000918 2 3 ack 1500 ------- 328 1.327 5.327 458441 14461 434 0x10 40 0
r 4.000932 4 3 ack 1500 ------- 328 4.327 0.327 459901 14457 434 0x10 40 0
+ 4.000932 3 2 ack 1500 ------- 328 4.327 0.327 459901 14457 434 0x10 40 0
- 4.000932 3 2 ack 1500 ------- 328 4.327 0.327 459901 14457 434 0x10 40 0
r 4.001003 0 2 ack 40 ------- 122 0.121 4.121 525 14465 1703 0x18 40 0
r 4.001003 5 3 ack 40 ------- 328 5.327 1.327 434 14466 438001 0x18 40 0
r 4.001003 4 3 ack 40 ------- 142 4.141 0.141 1 14476 333 0x18 40 0
+ 4.001003 3 2 ack 40 ------- 142 4.141 0.141 1 14476 333 0x18 40 0
r 4.001006 0 2 ack 40 ------- 328 0.327 4.327 434 14467 438001 0x18 40 0
r 4.001006 5 3 ack 40 ------- 272 5.271 1.271 515 14469 38365 0x18 40 0
r 4.00101 0 2 ack 40 ------- 272 0.271 4.271 515 14468 38365 0x18 40 0
r 4.00101 5 3 ack 40 ------- 56 5.55 1.55 6692 14471 556 0x18 40 0
r 4.001013 0 2 ack 40 ------- 56 0.55 4.55 6692 14470 556 0x18 40 0
r 4.001013 5 3 ack 40 ------- 65 5.64 1.64 379 14473 619041 0x18 40 0
r 4.001016 0 2 ack 40 ------- 65 0.64 4.64 379 14472 619041 0x18 40 0
r 4.001016 5 3 ack 40 ------- 232 5.231 1.231 63 14475 102 0x18 40 0
r 4.001019 0 2 ack 40 ------- 232 0.231 4.231 63 14474 102 0x18 40 0
r 4.001019 5 3 ack 40 ------- 183 5.182 1.182 213 14478 232949 0x18 40 0
r 4.001022 0 2 ack 40 ------- 183 0.182 4.182 213 14477 232949 0x18 40 0
r 4.001038 1 2 ack 1500 ------- 328 1.327 5.327 459901 14462 434 0x10 40 0
+ 4.001038 2 3 ack 1500 ------- 328 1.327 5.327 459901 14462 434 0x10 40 0
- 4.001038 2 3 ack 1500 ------- 328 1.327 5.327 459901 14462 434 0x10 40 0
- 4.001052 3 2 ack 40 ------- 142 4.141 0.141 1 14476 333 0x18 40 0
r 4.001067 3 4 ack 40 ------- 328 0.327 4.327 434 14297 436541 0x18 40 0
+ 4.001067 4 3 ack 1500 ------- 328 4.327 0.327 470121 14491 434 0x10 40 0
- 4.001067 4 3 ack 1500 ------- 328 4.327 0.327 470121 14491 434 0x10 40 0
+ 4.001067 4 3 ack 1500 ------- 328 4.327 0.327 471581 14492 434 0x10 40 0
r 4.001101 3 2 ack 110 ------- 86 4.85 0.85 5671 14451 1393 0x18 40 0
r 4.001158 1 2 ack 1500 ------- 328 1.327 5.327 461361 14463 434 0x10 40 0
+ 4.001158 2 3 ack 1500 ------- 328 1.327 5.327 461361 14463 434 0x10 40 0
- 4.001158 2 3 ack 1500 ------- 328 1.327 5.327 461361 14463 434 0x10 40 0
r 4.001181 2 3 ack 110 ------- 86 1.85 5.85 5671 14452 1393 0x18 40 0
r 4.001181 4 3 ack 1500 ------- 328 4.327 0.327 461361 14479 434 0x10 40 0
+ 4.001181 3 2 ack 1500 ------- 328 4.327 0.327 461361 14479 434 0x10 40 0
- 4.001181 3 2 ack 1500 ------- 328 4.327 0.327 461361 14479 434 0x10 40 0
- 4.001187 4 3 ack 1500 ------- 328 4.327 0.327 471581 14492 434 0x10 40 0
r 4.001278 1 2 ack 1500 ------- 328 1.327 5.327 462821 14464 434 0x10 40 0
+ 4.001278 2 3 ack 1500 ------- 328 1.327 5.327 462821 14464 434 0x10 40 0
- 4.001278 2 3 ack 1500 ------- 328 1.327 5.327 462821 14464 434 0x10 40 0
r 4.001301 4 3 ack 1500 ------- 328 4.327 0.327 462821 14480 434 0x10 40 0
+ 4.001301 3 2 ack 1500 ------- 328 4.327 0.327 462821 14480 434 0x10 40 0
- 4.001301 3 2 ack 1500 ------- 328 4.327 0.327 462821 14480 434 0x10 40 0
r 4.00132 3 4 ack 40 ------- 204 0.203 4.203 331 14026 45261 0x18 40 0
+ 4.00132 4 3 ack 1500 ------- 204 4.203 0.203 48181 14493 331 0x10 40 0
- 4.00132 4 3 ack 1500 ------- 204 4.203 0.203 48181 14493 331 0x10 40 0
+ 4.00132 4 3 ack 1500 ------- 204 4.203 0.203 49641 14494 331 0x10 40 0
r 4.001398 1 2 ack 1500 ------- 328 1.327 5.327 464281 14481 434 0x10 40 0
+ 4.001398 2 3 ack 1500 ------- 328 1.327 5.327 464281 14481 434 0x10 40 0
- 4.001398 2 3 ack 1500 ------- 328 1.327 5.327 464281 14481 434 0x10 40 0
r 4.001425 4 3 ack 1500 ------- 328 4.327 0.327 464281 14483 434 0x10 40 0
+ 4.001425 3 2 ack 1500 ------- 328 4.327 0.327 464281 14483 434 0x10 40 0
- 4.001425 3 2 ack 1500 ------- 328 4.327 0.327 464281 14483 434 0x10 40 0
- 4.00144 4 3 ack 1500 ------- 204 4.203 0.203 49641 14494 331 0x10 40 0
r 4.001443 2 1 ack 40 ------- 204 5.203 1.203 331 14027 45261 0x18 40 0
+ 4.001443 1 2 ack 1500 ------- 204 1.203 5.203 48181 14495 331 0x10 40 0
- 4.001443 1 2 ack 1500 ------- 204 1.203 5.203 48181 14495 331 0x10 40 0
+ 4.001443 1 2 ack 1500 ------- 204 1.203 5.203 49641 14496 331 0x10 40 0
r 4.001518 1 2 ack 1500 ------- 328 1.327 5.327 465741 14482 434 0x10 40 0
+ 4.001518 2 3 ack 1500 ------- 328 1.327 5.327 465741 14482 434 0x10 40 0
- 4.001518 2 3 ack 1500 ------- 328 1.327 5.327 465741 14482 434 0x10 40 0
r 4.001545 4 3 ack 1500 ------- 328 4.327 0.327 465741 14484 434 0x10 40 0
+ 4.001545 3 2 ack 1500 ------- 328 4.327 0.327 465741 14484 434 0x10 40 0
- 4.001545 3 2 ack 1500 ------- 328 4.327 0.327 465741 14484 434 0x10 40 0
- 4.001563 1 2 ack 1500 ------- 204 1.203 5.203 49641 14496 331 0x10 40 0
r 4.001572 3 2 ack 1500 ------- 108 4.107 0.107 12805 14453 397 0x10 40 0
r 4.001638 1 2 ack 1500 ------- 328 1.327 5.327 467201 14485 434 0x10 40 0
+ 4.001638 2 3 ack 1500 ------- 328 1.327 5.327 467201 14485 434 0x10 40 0
- 4.001638 2 3 ack 1500 ------- 328 1.327 5.327 467201 14485 434 0x10 40 0
r 4.001665 4 3 ack 1500 ------- 328 4.327 0.327 467201 14487 434 0x10 40 0
+ 4.001665 3 2 ack 1500 ------- 328 4.327 0.327 467201 14487 434 0x10 40 0
- 4.001665 3 2 ack 1500 ------- 328 4.327 0.327 467201 14487 434 0x10 40 0
r 4.001678 2 3 ack 1500 ------- 108 1.107 5.107 12805 14458 397 0x10 40 0
r 4.001692 3 2 ack 1500 ------- 108 4.107 0.107 14265 14454 397 0x10 40 0
r 4.001758 1 2 ack 1500 ------- 328 1.327 5.327 468661 14486 434 0x10 40 0
+ 4.001758 2 3 ack 1500 ------- 328 1.327 5.327 468661 14486 434 0x10 40 0
- 4.001758 2 3 ack 1500 ------- 328 1.327 5.327 468661 14486 434 0x10 40 0
r 4.001785 4 3 ack 1500 ------- 328 4.327 0.327 468661 14488 434 0x10 40 0
+ 4.001785 3 2 ack 1500 ------- 328 4.327 0.327 468661 14488 434 0x10 40 0
- 4.001785 3 2 ack 1500 ------- 328 4.327 0.327 468661 14488 434 0x10 40 0
r 4.001798 2 3 ack 1500 ------- 108 1.107 5.107 14265 14459 397 0x10 40 0
r 4.001812 3 2 ack 1500 ------- 108 4.107 0.107 15725 14455 397 0x10 40 0
r 4.001878 1 2 ack 1500 ------- 328 1.327 5.327 470121 14489 434 0x10 40 0
+ 4.001878 2 3 ack 1500 ------- 328 1.327 5.327 470121 14489 434 0x10 40 0
- 4.001878 2 3 ack 1500 ------- 328 1.327 5.327 470121 14489 434 0x10 40 0
r 4.001918 2 3 ack 1500 ------- 108 1.107 5.107 15725 14460 397 0x10 40 0
r 4.001932 3 2 ack 1500 ------- 328 4.327 0.327 458441 14456 434 0x10 40 0
r 4.001998 1 2 ack 1500 ------- 328 1.327 5.327 471581 14490 434 0x10 40 0
+ 4.001998 2 3 ack 1500 ------- 328 1.327 5.327 471581 14490 434 0x10 40 0
- 4.001998 2 3 ack 1500 ------- 328 1.327 5.327 471581 14490 434 0x10 40 0
r 4.002038 2 3 ack 1500 ------- 328 1.327 5.327 458441 14461 434 0x10 40 0
r 4.002052 3 2 ack 1500 ------- 328 4.327 0.327 459901 14457 434 0x10 40 0
r 4.002055 3 2 ack 40 ------- 142 4.141 0.141 1 14476 333 0x18 40 0
r 4.002158 2 3 ack 1500 ------- 328 1.327 5.327 459901 14462 434 0x10 40 0
r 4.002187 4 3 ack 1500 ------- 328 4.327 0.327 470121 14491 434 0x10 40 0
+ 4.002187 3 2 ack 1500 ------- 328 4.327 0.327 470121 14491 434 0x10 40 0
- 4.002187 3 2 ack 1500 ------- 328 4.327 0.327 470121 14491 434 0x10 40 0
r 4.002278 2 3 ack 1500 ------- 328 1.327 5.327 461361 14463 434 0x10 40 0
r 4.002301 3 2 ack 1500 ------- 328 4.327 0.327 461361 14479 434 0x10 40 0
r 4.002307 4 3 ack 1500 ------- 328 4.327 0.327 471581 14492 434 0x10 40 0
+ 4.002307 3 2 ack 1500 ------- 328 4.327 0.327 471581 14492 434 0x10 40 0
- 4.002307 3 2 ack 1500 ------- 328 4.327 0.327 471581 14492 434 0x10 40 0
r 4.002398 2 3 ack 1500 ------- 328 1.327 5.327 462821 14464 434 0x10 40 0
r 4.002421 3 2 ack 1500 ------- 328 4.327 0.327 462821 14480 434 0x10 40 0
r 4.00244 4 3 ack 1500 ------- 204 4.203 0.203 48181 14493 331 0x10 40 0
+ 4.00244 3 2 ack 1500 ------- 204 4.203 0.203 48181 14493 331 0x10 40 0
- 4.00244 3 2 ack 1500 ------- 204 4.203 0.203 48181 14493 331 0x10 40 0
r 4.002518 2 3 ack 1500 ------- 328 1.327 5.327 464281 14481 434 0x10 40 0
r 4.002545 3 2 ack 1500 ------- 328 4.327 0.327 464281 14483 434 0x10 40 0
r 4.00256 4 3 ack 1500 ------- 204 4.203 0.203 49641 14494 331 0x10 40 0
+ 4.00256 3 2 ack 1500 ------- 204 4.203 0.203 49641 14494 331 0x10 40 0
- 4.00256 3 2 ack 1500 ------- 204 4.203 0.203 49641 14494 331 0x10 40 0
r 4.002563 1 2 ack 1500 ------- 204 1.203 5.203 48181 14495 331 0x10 40 0
+ 4.002563 2 3 ack 1500 ------- 204 1.203 5.203 48181 14495 331 0x10 40 0
- 4.002563 2 3 ack 1500 ------- 204 1.203 5.203 48181 14495 331 0x10 40 0
r 4.002638 2 3 ack 1500 ------- 328 1.327 5.327 465741 14482 434 0x10 40 0
r 4.002665 3 2 ack 1500 ------- 328 4.327 0.327 465741 14484 434 0x10 40 0
r 4.002683 1 2 ack 1500 ------- 204 1.203 5.203 49641 14496 331 0x10 40 0
+ 4.002683 2 3 ack 1500 ------- 204 1.203 5.203 49641 14496 331 0x10 40 0
- 4.002683 2 3 ack 1500 ------- 204 1.203 5.203 49641 14496 331 0x10 40 0
r 4.002758 2 3 ack 1500 ------- 328 1.327 5.327 467201 14485 434 0x10 40 0
r 4.002785 3 2 ack 1500 ------- 328 4.327 0.327 467201 14487 434 0x10 40 0
+ 4.002788 2 0 ack 1500 ------- 65 4.64 0.64 619041 14408 379 0x10 40 0
- 4.002788 2 0 ack 1500 ------- 65 4.64 0.64 619041 14408 379 0x10 40 0
r 4.002878 2 3 ack 1500 ------- 328 1.327 5.327 468661 14486 434 0x10 40 0
r 4.002905 3 2 ack 1500 ------- 328 4.327 0.327 468661 14488 434 0x10 40 0
+ 4.002908 2 0 ack 1500 ------- 65 4.64 0.64 620501 14409 379 0x10 40 0
- 4.002908 2 0 ack 1500 ------- 65 4.64 0.64 620501 14409 379 0x10 40 0
r 4.002998 2 3 ack 1500 ------- 328 1.327 5.327 470121 14489 434 0x10 40 0
r 4.003118 2 3 ack 1500 ------- 328 1.327 5.327 471581 14490 434 0x10 40 0
r 4.003307 3 2 ack 1500 ------- 328 4.327 0.327 470121 14491 434 0x10 40 0
+ 4.003375 3 5 ack 1500 ------- 65 1.64 5.64 619041 14410 379 0x10 40 0
- 4.003375 3 5 ack 1500 ------- 65 1.64 5.64 619041 14410 379 0x10 40 0
r 4.003427 3 2 ack 1500 ------- 328 4.327 0.327 471581 14492 434 0x10 40 0
+ 4.003495 3 5 ack 1500 ------- 65 1.64 5.64 620501 14411 379 0x10 40 0
- 4.003495 3 5 ack 1500 ------- 65 1.64 5.64 620501 14411 379 0x10 40 0
+ 4.003541 2 3 ack 40 ------- 217 0.216 4.216 386 14145 27741 0x18 40 0
- 4.003541 2 3 ack 40 ------- 217 0.216 4.216 386 14145 27741 0x18 40 0
r 4.00356 3 2 ack 1500 ------- 204 4.203 0.203 48181 14493 331 0x10 40 0
r 4.00368 3 2 ack 1500 ------- 204 4.203 0.203 49641 14494 331 0x10 40 0
r 4.003683 2 3 ack 1500 ------- 204 1.203 5.203 48181 14495 331 0x10 40 0
r 4.003803 2 3 ack 1500 ------- 204 1.203 5.203 49641 14496 331 0x10 40 0
r 4.003908 2 0 ack 1500 ------- 65 4.64 0.64 619041 14408 379 0x10 40 0
+ 4.003943 2 3 ack 40 ------- 204 0.203 4.203 331 14053 48181 0x18 40 0
- 4.003943 2 3 ack 40 ------- 204 0.203 4.203 331 14053 48181 0x18 40 0
+ 4.003949 3 2 ack 40 ------- 204 5.203 1.203 331 14054 48181 0x18 40 0
- 4.003949 3 2 ack 40 ------- 204 5.203 1.203 331 14054 48181 0x18 40 0
r 4.004028 2 0 ack 1500 ------- 65 4.64 0.64 620501 14409 379 0x10 40 0
+ 4.004028 0 2 ack 40 ------- 65 0.64 4.64 379 14497 621961 0x18 40 0
- 4.004028 0 2 ack 40 ------- 65 0.64 4.64 379 14497 621961 0x18 40 0
r 4.004495 3 5 ack 1500 ------- 65 1.64 5.64 619041 14410 379 0x10 40 0
r 4.004545 2 3 ack 40 ------- 217 0.216 4.216 386 14145 27741 0x18 40 0
+ 4.004545 3 4 ack 40 ------- 217 0.216 4.216 386 14145 27741 0x18 40 0
- 4.004545 3 4 ack 40 ------- 217 0.216 4.216 386 14145 27741 0x18 40 0
r 4.004615 3 5 ack 1500 ------- 65 1.64 5.64 620501 14411 379 0x10 40 0
+ 4.004615 5 3 ack 40 ------- 65 5.64 1.64 379 14498 621961 0x18 40 0
- 4.004615 5 3 ack 40 ------- 65 5.64 1.64 379 14498 621961 0x18 40 0
r 4.004946 2 3 ack 40 ------- 204 0.203 4.203 331 14053 48181 0x18 40 0
+ 4.004946 3 4 ack 40 ------- 204 0.203 4.203 331 14053 48181 0x18 40 0
- 4.004946 3 4 ack 40 ------- 204 0.203 4.203 331 14053 48181 0x18 40 0
r 4.004952 3 2 ack 40 ------- 204 5.203 1.203 331 14054 48181 0x18 40 0
+ 4.004952 2 1 ack 40 ------- 204 5.203 1.203 331 14054 48181 0x18 40 0
- 4.004952 2 1 ack 40 ------- 204 5.203 1.203 331 14054 48181 0x18 40 0
r 4.005031 0 2 ack 40 ------- 65 0.64 4.64 379 14497 621961 0x18 40 0
r 4.005548 3 4 ack 40 ------- 217 0.216 4.216 386 14145 27741 0x18 40 0
+ 4.005548 4 3 ack 1500 ------- 217 4.216 0.216 32121 14499 386 0x10 40 0
- 4.005548 4 3 ack 1500 ------- 217 4.216 0.216 32121 14499 386 0x10 40 0
r 4.005618 5 3 ack 40 ------- 65 5.64 1.64 379 14498 621961 0x18 40 0
+ 4.005821 2 0 ack 1500 ------- 108 4.107 0.107 12805 14453 397 0x10 40 0
- 4.005821 2 0 ack 1500 ------- 108 4.107 0.107 12805 14453 397 0x10 40 0
+ 4.005927 3 5 ack 1500 ------- 108 1.107 5.107 12805 14458 397 0x10 40 0
- 4.005927 3 5 ack 1500 ------- 108 1.107 5.107 12805 14458 397 0x10 40 0
+ 4.005941 2 0 ack 1500 ------- 108 4.107 0.107 14265 14454 397 0x10 40 0
- 4.005941 2 0 ack 1500 ------- 108 4.107 0.107 14265 14454 397 0x10 40 0
r 4.005949 3 4 ack 40 ------- 204 0.203 4.203 331 14053 48181 0x18 40 0
+ 4.005949 4 3 ack 1500 ------- 204 4.203 0.203 51101 14500 331 0x10 40 0
- 4.005949 4 3 ack 1500 ------- 204 4.203 0.203 51101 14500 331 0x10 40 0
+ 4.005949 4 3 ack 1500 ------- 204 4.203 0.203 52561 14501 331 0x10 40 0
r 4.005955 2 1 ack 40 ------- 204 5.203 1.203 331 14054 48181 0x18 40 0
+ 4.005955 1 2 ack 1500 ------- 204 1.203 5.203 51101 14502 331 0x10 40 0
- 4.005955 1 2 ack 1500 ------- 204 1.203 5.203 51101 14502 331 0x10 40 0
+ 4.005955 1 2 ack 1500 ------- 204 1.203 5.203 52561 14503 331 0x10 40 0
+ 4.006047 3 5 ack 1500 ------- 108 1.107 5.107 14265 14459 397 0x10 40 0
- 4.006047 3 5 ack 1500 ------- 108 1.107 5.107 14265 14459 397 0x10 40 0
+ 4.006061 2 0 ack 1500 ------- 108 4.107 0.107 15725 14455 397 0x10 40 0
- 4.006061 2 0 ack 1500 ------- 108 4.107 0.107 15725 14455 397 0x10 40 0
- 4.006069 4 3 ack 1500 ------- 204 4.203 0.203 52561 14501 331 0x10 40 0
- 4.006075 1 2 ack 1500 ------- 204 1.203 5.203 52561 14503 331 0x10 40 0
+ 4.006167 3 5 ack 1500 ------- 108 1.107 5.107 15725 14460 397 0x10 40 0
- 4.006167 3 5 ack 1500 ------- 108 1.107 5.107 15725 14460 397 0x10 40 0
r 4.006668 4 3 ack 1500 ------- 217 4.216 0.216 32121 14499 386 0x10 40 0
+ 4.006668 3 2 ack 1500 ------- 217 4.216 0.216 32121 14499 386 0x10 40 0
- 4.006668 3 2 ack 1500 ------- 217 4.216 0.216 32121 14499 386 0x10 40 0
r 4.006941 2 0 ack 1500 ------- 108 4.107 0.107 12805 14453 397 0x10 40 0
r 4.007047 3 5 ack 1500 ------- 108 1.107 5.107 12805 14458 397 0x10 40 0
r 4.007061 2 0 ack 1500 ------- 108 4.107 0.107 14265 14454 397 0x10 40 0
+ 4.007061 0 2 ack 40 ------- 108 0.107 4.107 397 14504 15725 0x18 40 0
- 4.007061 0 2 ack 40 ------- 108 0.107 4.107 397 14504 15725 0x18 40 0
r 4.007069 4 3 ack 1500 ------- 204 4.203 0.203 51101 14500 331 0x10 40 0
+ 4.007069 3 2 ack 1500 ------- 204 4.203 0.203 51101 14500 331 0x10 40 0
- 4.007069 3 2 ack 1500 ------- 204 4.203 0.203 51101 14500 331 0x10 40 0
r 4.007075 1 2 ack 1500 ------- 204 1.203 5.203 51101 14502 331 0x10 40 0
+ 4.007075 2 3 ack 1500 ------- 204 1.203 5.203 51101 14502 331 0x10 40 0
- 4.007075 2 3 ack 1500 ------- 204 1.203 5.203 51101 14502 331 0x10 40 0
r 4.007167 3 5 ack 1500 ------- 108 1.107 5.107 14265 14459 397 0x10 40 0
+ 4.007167 5 3 ack 40 ------- 108 5.107 1.107 397 14505 15725 0x18 40 0
- 4.007167 5 3 ack 40 ------- 108 5.107 1.107 397 14505 15725 0x18 40 0
r 4.007181 2 0 ack 1500 ------- 108 4.107 0.107 15725 14455 397 0x10 40 0
r 4.007189 4 3 ack 1500 ------- 204 4.203 0.203 52561 14501 331 0x10 40 0
+ 4.007189 3 2 ack 1500 ------- 204 4.203 0.203 52561 14501 331 0x10 40 0
- 4.007189 3 2 ack 1500 ------- 204 4.203 0.203 52561 14501 331 0x10 40 0
r 4.007195 1 2 ack 1500 ------- 204 1.203 5.203 52561 14503 331 0x10 40 0
+ 4.007195 2 3 ack 1500 ------- 204 1.203 5.203 52561 14503 331 0x10 40 0
- 4.007195 2 3 ack 1500 ------- 204 1.203 5.203 52561 14503 331 0x10 40 0
r 4.007287 3 5 ack 1500 ------- 108 1.107 5.107 15725 14460 397 0x10 40 0
r 4.007788 3 2 ack 1500 ------- 217 4.216 0.216 32121 14499 386 0x10 40 0
+ 4.007985 3 2 ack 40 ------- 232 5.231 1.231 63 14475 102 0x18 40 0
- 4.007985 3 2 ack 40 ------- 232 5.231 1.231 63 14475 102 0x18 40 0
+ 4.007988 2 3 ack 40 ------- 232 0.231 4.231 63 14474 102 0x18 40 0
- 4.007988 2 3 ack 40 ------- 232 0.231 4.231 63 14474 102 0x18 40 0
+ 4.008018 2 3 ack 40 ------- 183 0.182 4.182 213 14412 211049 0x18 40 0
- 4.008018 2 3 ack 40 ------- 183 0.182 4.182 213 14412 211049 0x18 40 0
r 4.008064 0 2 ack 40 ------- 108 0.107 4.107 397 14504 15725 0x18 40 0
r 4.008171 5 3 ack 40 ------- 108 5.107 1.107 397 14505 15725 0x18 40 0
r 4.008189 3 2 ack 1500 ------- 204 4.203 0.203 51101 14500 331 0x10 40 0
r 4.008195 2 3 ack 1500 ------- 204 1.203 5.203 51101 14502 331 0x10 40 0
+ 4.008261 2 3 ack 40 ------- 183 0.182 4.182 213 14415 213969 0x18 40 0
- 4.008261 2 3 ack 40 ------- 183 0.182 4.182 213 14415 213969 0x18 40 0
r 4.008309 3 2 ack 1500 ------- 204 4.203 0.203 52561 14501 331 0x10 40 0
r 4.008315 2 3 ack 1500 ------- 204 1.203 5.203 52561 14503 331 0x10 40 0
+ 4.008414 3 2 ack 40 ------- 183 5.182 1.182 213 14418 211049 0x18 40 0
- 4.008414 3 2 ack 40 ------- 183 5.182 1.182 213 14418 211049 0x18 40 0
+ 4.008518 2 3 ack 40 ------- 183 0.182 4.182 213 14419 216889 0x18 40 0
- 4.008518 2 3 ack 40 ------- 183 0.182 4.182 213 14419 216889 0x18 40 0
+ 4.008587 3 2 ack 40 ------- 183 5.182 1.182 213 14420 213969 0x18 40 0
- 4.008587 3 2 ack 40 ------- 183 5.182 1.182 213 14420 213969 0x18 40 0
+ 4.008777 2 3 ack 40 ------- 183 0.182 4.182 213 14421 219809 0x18 40 0
- 4.008777 2 3 ack 40 ------- 183 0.182 4.182 213 14421 219809 0x18 40 0
+ 4.008846 3 2 ack 40 ------- 183 5.182 1.182 213 14422 216889 0x18 40 0
- 4.008846 3 2 ack 40 ------- 183 5.182 1.182 213 14422 216889 0x18 40 0
+ 4.008853 2 3 ack 40 ------- 160 0.159 4.159 763 13844 2060 0x18 40 0
- 4.008853 2 3 ack 40 ------- 160 0.159 4.159 763 13844 2060 0x18 40 0
r 4.008988 3 2 ack 40 ------- 232 5.231 1.231 63 14475 102 0x18 40 0
+ 4.008988 2 1 ack 40 ------- 232 5.231 1.231 63 14475 102 0x18 40 0
- 4.008988 2 1 ack 40 ------- 232 5.231 1.231 63 14475 102 0x18 40 0
r 4.008991 2 3 ack 40 ------- 232 0.231 4.231 63 14474 102 0x18 40 0
+ 4.008991 3 4 ack 40 ------- 232 0.231 4.231 63 14474 102 0x18 40 0
- 4.008991 3 4 ack 40 ------- 232 0.231 4.231 63 14474 102 0x18 40 0
r 4.009021 2 3 ack 40 ------- 183 0.182 4.182 213 14412 211049 0x18 40 0
+ 4.009021 3 4 ack 40 ------- 183 0.182 4.182 213 14412 211049 0x18 40 0
- 4.009021 3 4 ack 40 ------- 183 0.182 4.182 213 14412 211049 0x18 40 0
+ 4.009042 2 3 ack 40 ------- 183 0.182 4.182 213 14423 222729 0x18 40 0
- 4.009042 2 3 ack 40 ------- 183 0.182 4.182 213 14423 222729 0x18 40 0
+ 4.009086 3 2 ack 40 ------- 183 5.182 1.182 213 14424 219809 0x18 40 0
- 4.009086 3 2 ack 40 ------- 183 5.182 1.182 213 14424 219809 0x18 40 0
r 4.009265 2 3 ack 40 ------- 183 0.182 4.182 213 14415 213969 0x18 40 0
+ 4.009265 3 4 ack 40 ------- 183 0.182 4.182 213 14415 213969 0x18 40 0
- 4.009265 3 4 ack 40 ------- 183 0.182 4.182 213 14415 213969 0x18 40 0
+ 4.009282 2 3 ack 40 ------- 183 0.182 4.182 213 14425 225649 0x18 40 0
- 4.009282 2 3 ack 40 ------- 183 0.182 4.182 213 14425 225649 0x18 40 0
+ 4.009326 3 2 ack 40 ------- 183 5.182 1.182 213 14426 222729 0x18 40 0
- 4.009326 3 2 ack 40 ------- 183 5.182 1.182 213 14426 222729 0x18 40 0
r 4.009417 3 2 ack 40 ------- 183 5.182 1.182 213 14418 211049 0x18 40 0
+ 4.009417 2 1 ack 40 ------- 183 5.182 1.182 213 14418 211049 0x18 40 0
- 4.009417 2 1 ack 40 ------- 183 5.182 1.182 213 14418 211049 0x18 40 0
r 4.009521 2 3 ack 40 ------- 183 0.182 4.182 213 14419 216889 0x18 40 0
+ 4.009521 3 4 ack 40 ------- 183 0.182 4.182 213 14419 216889 0x18 40 0
- 4.009521 3 4 ack 40 ------- 183 0.182 4.182 213 14419 216889 0x18 40 0
+ 4.009522 2 3 ack 40 ------- 183 0.182 4.182 213 14427 228569 0x18 40 0
- 4.009522 2 3 ack 40 ------- 183 0.182 4.182 213 14427 228569 0x18 40 0
r 4.009591 3 2 ack 40 ------- 183 5.182 1.182 213 14420 213969 0x18 40 0
+ 4.009591 2 1 ack 40 ------- 183 5.182 1.182 213 14420 213969 0x18 40 0
- 4.009591 2 1 ack 40 ------- 183 5.182 1.182 213 14420 213969 0x18 40 0
+ 4.009591 3 2 ack 40 ------- 183 5.182 1.182 213 14428 225649 0x18 40 0
- 4.009591 3 2 ack 40 ------- 183 5.182 1.182 213 14428 225649 0x18 40 0
+ 4.009762 2 3 ack 40 ------- 183 0.182 4.182 213 14429 231489 0x18 40 0
- 4.009762 2 3 ack 40 ------- 183 0.182 4.182 213 14429 231489 0x18 40 0
r 4.00978 2 3 ack 40 ------- 183 0.182 4.182 213 14421 219809 0x18 40 0
+ 4.00978 3 4 ack 40 ------- 183 0.182 4.182 213 14421 219809 0x18 40 0
- 4.00978 3 4 ack 40 ------- 183 0.182 4.182 213 14421 219809 0x18 40 0
+ 4.009831 3 2 ack 40 ------- 183 5.182 1.182 213 14430 228569 0x18 40 0
- 4.009831 3 2 ack 40 ------- 183 5.182 1.182 213 14430 228569 0x18 40 0
r 4.00985 3 2 ack 40 ------- 183 5.182 1.182 213 14422 216889 0x18 40 0
+ 4.00985 2 1 ack 40 ------- 183 5.182 1.182 213 14422 216889 0x18 40 0
- 4.00985 2 1 ack 40 ------- 183 5.182 1.182 213 14422 216889 0x18 40 0
r 4.009856 2 3 ack 40 ------- 160 0.159 4.159 763 13844 2060 0x18 40 0
+ 4.009856 3 4 ack 40 ------- 160 0.159 4.159 763 13844 2060 0x18 40 0
- 4.009856 3 4 ack 40 ------- 160 0.159 4.159 763 13844 2060 0x18 40 0
r 4.009991 2 1 ack 40 ------- 232 5.231 1.231 63 14475 102 0x18 40 0
r 4.009994 3 4 ack 40 ------- 232 0.231 4.231 63 14474 102 0x18 40 0
r 4.010025 3 4 ack 40 ------- 183 0.182 4.182 213 14412 211049 0x18 40 0
+ 4.010025 4 3 ack 1500 ------- 183 4.182 0.182 232949 14506 213 0x10 40 0
- 4.010025 4 3 ack 1500 ------- 183 4.182 0.182 232949 14506 213 0x10 40 0
+ 4.010025 4 3 ack 1500 ------- 183 4.182 0.182 234409 14507 213 0x10 40 0
r 4.010045 2 3 ack 40 ------- 183 0.182 4.182 213 14423 222729 0x18 40 0
+ 4.010045 3 4 ack 40 ------- 183 0.182 4.182 213 14423 222729 0x18 40 0
- 4.010045 3 4 ack 40 ------- 183 0.182 4.182 213 14423 222729 0x18 40 0
+ 4.010071 3 2 ack 40 ------- 183 5.182 1.182 213 14431 231489 0x18 40 0
- 4.010071 3 2 ack 40 ------- 183 5.182 1.182 213 14431 231489 0x18 40 0
r 4.01009 3 2 ack 40 ------- 183 5.182 1.182 213 14424 219809 0x18 40 0
+ 4.01009 2 1 ack 40 ------- 183 5.182 1.182 213 14424 219809 0x18 40 0
- 4.01009 2 1 ack 40 ------- 183 5.182 1.182 213 14424 219809 0x18 40 0
- 4.010145 4 3 ack 1500 ------- 183 4.182 0.182 234409 14507 213 0x10 40 0
r 4.010268 3 4 ack 40 ------- 183 0.182 4.182 213 14415 213969 0x18 40 0
+ 4.010268 4 3 ack 1500 ------- 183 4.182 0.182 235869 14508 213 0x10 40 0
- 4.010268 4 3 ack 1500 ------- 183 4.182 0.182 235869 14508 213 0x10 40 0
+ 4.010268 4 3 ack 1500 ------- 183 4.182 0.182 237329 14509 213 0x10 40 0
r 4.010285 2 3 ack 40 ------- 183 0.182 4.182 213 14425 225649 0x18 40 0
+ 4.010285 3 4 ack 40 ------- 183 0.182 4.182 213 14425 225649 0x18 40 0
- 4.010285 3 4 ack 40 ------- 183 0.182 4.182 213 14425 225649 0x18 40 0
r 4.01033 3 2 ack 40 ------- 183 5.182 1.182 213 14426 222729 0x18 40 0
+ 4.01033 2 1 ack 40 ------- 183 5.182 1.182 213 14426 222729 0x18 40 0
- 4.01033 2 1 ack 40 ------- 183 5.182 1.182 213 14426 222729 0x18 40 0
- 4.010388 4 3 ack 1500 ------- 183 4.182 0.182 237329 14509 213 0x10 40 0
r 4.01042 2 1 ack 40 ------- 183 5.182 1.182 213 14418 211049 0x18 40 0