V -t * -v 1.0a5 -a 0
A -t * -n 1 -p 0 -o 0x7fffffff -c 30 -a 1
A -t * -h 1 -m 1073741823 -s 0
n -t * -a 4 -s 4 -S UP -v circle -c black -i black
n -t * -a 0 -s 0 -S UP -v circle -c black -i black
n -t * -a 5 -s 5 -S UP -v circle -c black -i black
n -t * -a 1 -s 1 -S UP -v circle -c black -i black
n -t * -a 6 -s 6 -S UP -v circle -c black -i black
n -t * -a 2 -s 2 -S UP -v circle -c black -i black
n -t * -a 3 -s 3 -S UP -v circle -c black -i black
l -t * -s 0 -d 1 -S UP -r 1000000 -D 0.01 -c black
l -t * -s 1 -d 2 -S UP -r 1000000 -D 0.01 -c black
l -t * -s 2 -d 3 -S UP -r 1000000 -D 0.01 -c black
l -t * -s 3 -d 4 -S UP -r 1000000 -D 0.01 -c black
l -t * -s 4 -d 5 -S UP -r 1000000 -D 0.01 -c black
l -t * -s 5 -d 6 -S UP -r 1000000 -D 0.01 -c black
l -t * -s 6 -d 0 -S UP -r 1000000 -D 0.01 -c black
+ -t 0.000169788487334637 -s 0 -d 1 -p rtProtoDV -e 7 -c 0 -i 0 -a 0 -x {0.2 1.1 -1 ------- null}
- -t 0.000169788487334637 -s 0 -d 1 -p rtProtoDV -e 7 -c 0 -i 0 -a 0 -x {0.2 1.1 -1 ------- null}
h -t 0.000169788487334637 -s 0 -d 1 -p rtProtoDV -e 7 -c 0 -i 0 -a 0 -x {0.2 1.1 -1 ------- null}
+ -t 0.000169788487334637 -s 0 -d 6 -p rtProtoDV -e 7 -c 0 -i 1 -a 0 -x {0.2 6.1 -1 ------- null}
- -t 0.000169788487334637 -s 0 -d 6 -p rtProtoDV -e 7 -c 0 -i 1 -a 0 -x {0.2 6.1 -1 ------- null}
h -t 0.000169788487334637 -s 0 -d 6 -p rtProtoDV -e 7 -c 0 -i 1 -a 0 -x {0.2 6.1 -1 ------- null}
+ -t 0.00710233021858257 -s 2 -d 1 -p rtProtoDV -e 7 -c 0 -i 2 -a 0 -x {2.1 1.1 -1 ------- null}
- -t 0.00710233021858257 -s 2 -d 1 -p rtProtoDV -e 7 -c 0 -i 2 -a 0 -x {2.1 1.1 -1 ------- null}
h -t 0.00710233021858257 -s 2 -d 1 -p rtProtoDV -e 7 -c 0 -i 2 -a 0 -x {2.1 1.1 -1 ------- null}
+ -t 0.00710233021858257 -s 2 -d 3 -p rtProtoDV -e 7 -c 0 -i 3 -a 0 -x {2.1 3.2 -1 ------- null}
- -t 0.00710233021858257 -s 2 -d 3 -p rtProtoDV -e 7 -c 0 -i 3 -a 0 -x {2.1 3.2 -1 ------- null}
h -t 0.00710233021858257 -s 2 -d 3 -p rtProtoDV -e 7 -c 0 -i 3 -a 0 -x {2.1 3.2 -1 ------- null}
r -t 0.0102257884873346 -s 0 -d 1 -p rtProtoDV -e 7 -c 0 -i 0 -a 0 -x {0.2 1.1 -1 ------- null}
+ -t 0.0102257884873346 -s 1 -d 0 -p rtProtoDV -e 7 -c 0 -i 4 -a 0 -x {1.1 0.2 -1 ------- null}
- -t 0.0102257884873346 -s 1 -d 0 -p rtProtoDV -e 7 -c 0 -i 4 -a 0 -x {1.1 0.2 -1 ------- null}
h -t 0.0102257884873346 -s 1 -d 0 -p rtProtoDV -e 7 -c 0 -i 4 -a 0 -x {1.1 0.2 -1 ------- null}
+ -t 0.0102257884873346 -s 1 -d 2 -p rtProtoDV -e 7 -c 0 -i 5 -a 0 -x {1.1 2.1 -1 ------- null}
- -t 0.0102257884873346 -s 1 -d 2 -p rtProtoDV -e 7 -c 0 -i 5 -a 0 -x {1.1 2.1 -1 ------- null}
h -t 0.0102257884873346 -s 1 -d 2 -p rtProtoDV -e 7 -c 0 -i 5 -a 0 -x {1.1 2.1 -1 ------- null}
r -t 0.0102257884873346 -s 0 -d 6 -p rtProtoDV -e 7 -c 0 -i 1 -a 0 -x {0.2 6.1 -1 ------- null}
+ -t 0.0102257884873346 -s 6 -d 0 -p rtProtoDV -e 7 -c 0 -i 6 -a 0 -x {6.1 0.2 -1 ------- null}
- -t 0.0102257884873346 -s 6 -d 0 -p rtProtoDV -e 7 -c 0 -i 6 -a 0 -x {6.1 0.2 -1 ------- null}
h -t 0.0102257884873346 -s 6 -d 0 -p rtProtoDV -e 7 -c 0 -i 6 -a 0 -x {6.1 0.2 -1 ------- null}
+ -t 0.0102257884873346 -s 6 -d 5 -p rtProtoDV -e 7 -c 0 -i 7 -a 0 -x {6.1 5.1 -1 ------- null}
- -t 0.0102257884873346 -s 6 -d 5 -p rtProtoDV -e 7 -c 0 -i 7 -a 0 -x {6.1 5.1 -1 ------- null}
h -t 0.0102257884873346 -s 6 -d 5 -p rtProtoDV -e 7 -c 0 -i 7 -a 0 -x {6.1 5.1 -1 ------- null}
r -t 0.0171583302185826 -s 2 -d 1 -p rtProtoDV -e 7 -c 0 -i 2 -a 0 -x {2.1 1.1 -1 ------- null}
+ -t 0.0171583302185826 -s 1 -d 0 -p rtProtoDV -e 7 -c 0 -i 8 -a 0 -x {1.1 0.2 -1 ------- null}
- -t 0.0171583302185826 -s 1 -d 0 -p rtProtoDV -e 7 -c 0 -i 8 -a 0 -x {1.1 0.2 -1 ------- null}
h -t 0.0171583302185826 -s 1 -d 0 -p rtProtoDV -e 7 -c 0 -i 8 -a 0 -x {1.1 0.2 -1 ------- null}
+ -t 0.0171583302185826 -s 1 -d 2 -p rtProtoDV -e 7 -c 0 -i 9 -a 0 -x {1.1 2.1 -1 ------- null}
- -t 0.0171583302185826 -s 1 -d 2 -p rtProtoDV -e 7 -c 0 -i 9 -a 0 -x {1.1 2.1 -1 ------- null}
h -t 0.0171583302185826 -s 1 -d 2 -p rtProtoDV -e 7 -c 0 -i 9 -a 0 -x {1.1 2.1 -1 ------- null}
r -t 0.0171583302185826 -s 2 -d 3 -p rtProtoDV -e 7 -c 0 -i 3 -a 0 -x {2.1 3.2 -1 ------- null}
+ -t 0.0171583302185826 -s 3 -d 2 -p rtProtoDV -e 7 -c 0 -i 10 -a 0 -x {3.2 2.1 -1 ------- null}
- -t 0.0171583302185826 -s 3 -d 2 -p rtProtoDV -e 7 -c 0 -i 10 -a 0 -x {3.2 2.1 -1 ------- null}
h -t 0.0171583302185826 -s 3 -d 2 -p rtProtoDV -e 7 -c 0 -i 10 -a 0 -x {3.2 2.1 -1 ------- null}
+ -t 0.0171583302185826 -s 3 -d 4 -p rtProtoDV -e 7 -c 0 -i 11 -a 0 -x {3.2 4.1 -1 ------- null}
- -t 0.0171583302185826 -s 3 -d 4 -p rtProtoDV -e 7 -c 0 -i 11 -a 0 -x {3.2 4.1 -1 ------- null}
h -t 0.0171583302185826 -s 3 -d 4 -p rtProtoDV -e 7 -c 0 -i 11 -a 0 -x {3.2 4.1 -1 ------- null}
r -t 0.0202817884873346 -s 1 -d 0 -p rtProtoDV -e 7 -c 0 -i 4 -a 0 -x {1.1 0.2 -1 ------- null}
+ -t 0.0202817884873346 -s 0 -d 1 -p rtProtoDV -e 7 -c 0 -i 12 -a 0 -x {0.2 1.1 -1 ------- null}
- -t 0.0202817884873346 -s 0 -d 1 -p rtProtoDV -e 7 -c 0 -i 12 -a 0 -x {0.2 1.1 -1 ------- null}
h -t 0.0202817884873346 -s 0 -d 1 -p rtProtoDV -e 7 -c 0 -i 12 -a 0 -x {0.2 1.1 -1 ------- null}
+ -t 0.0202817884873346 -s 0 -d 6 -p rtProtoDV -e 7 -c 0 -i 13 -a 0 -x {0.2 6.1 -1 ------- null}
- -t 0.0202817884873346 -s 0 -d 6 -p rtProtoDV -e 7 -c 0 -i 13 -a 0 -x {0.2 6.1 -1 ------- null}
h -t 0.0202817884873346 -s 0 -d 6 -p rtProtoDV -e 7 -c 0 -i 13 -a 0 -x {0.2 6.1 -1 ------- null}
r -t 0.0202817884873346 -s 1 -d 2 -p rtProtoDV -e 7 -c 0 -i 5 -a 0 -x {1.1 2.1 -1 ------- null}
+ -t 0.0202817884873346 -s 2 -d 1 -p rtProtoDV -e 7 -c 0 -i 14 -a 0 -x {2.1 1.1 -1 ------- null}
- -t 0.0202817884873346 -s 2 -d 1 -p rtProtoDV -e 7 -c 0 -i 14 -a 0 -x {2.1 1.1 -1 ------- null}
h -t 0.0202817884873346 -s 2 -d 1 -p rtProtoDV -e 7 -c 0 -i 14 -a 0 -x {2.1 1.1 -1 ------- null}
+ -t 0.0202817884873346 -s 2 -d 3 -p rtProtoDV -e 7 -c 0 -i 15 -a 0 -x {2.1 3.2 -1 ------- null}
- -t 0.0202817884873346 -s 2 -d 3 -p rtProtoDV -e 7 -c 0 -i 15 -a 0 -x {2.1 3.2 -1 ------- null}
h -t 0.0202817884873346 -s 2 -d 3 -p rtProtoDV -e 7 -c 0 -i 15 -a 0 -x {2.1 3.2 -1 ------- null}
r -t 0.0202817884873346 -s 6 -d 0 -p rtProtoDV -e 7 -c 0 -i 6 -a 0 -x {6.1 0.2 -1 ------- null}
+ -t 0.0202817884873346 -s 0 -d 1 -p rtProtoDV -e 7 -c 0 -i 16 -a 0 -x {0.2 1.1 -1 ------- null}
+ -t 0.0202817884873346 -s 0 -d 6 -p rtProtoDV -e 7 -c 0 -i 17 -a 0 -x {0.2 6.1 -1 ------- null}
r -t 0.0202817884873346 -s 6 -d 5 -p rtProtoDV -e 7 -c 0 -i 7 -a 0 -x {6.1 5.1 -1 ------- null}
+ -t 0.0202817884873346 -s 5 -d 4 -p rtProtoDV -e 7 -c 0 -i 18 -a 0 -x {5.1 4.1 -1 ------- null}
- -t 0.0202817884873346 -s 5 -d 4 -p rtProtoDV -e 7 -c 0 -i 18 -a 0 -x {5.1 4.1 -1 ------- null}
h -t 0.0202817884873346 -s 5 -d 4 -p rtProtoDV -e 7 -c 0 -i 18 -a 0 -x {5.1 4.1 -1 ------- null}
+ -t 0.0202817884873346 -s 5 -d 6 -p rtProtoDV -e 7 -c 0 -i 19 -a 0 -x {5.1 6.1 -1 ------- null}
- -t 0.0202817884873346 -s 5 -d 6 -p rtProtoDV -e 7 -c 0 -i 19 -a 0 -x {5.1 6.1 -1 ------- null}
h -t 0.0202817884873346 -s 5 -d 6 -p rtProtoDV -e 7 -c 0 -i 19 -a 0 -x {5.1 6.1 -1 ------- null}
- -t 0.0203377884873346 -s 0 -d 1 -p rtProtoDV -e 7 -c 0 -i 16 -a 0 -x {0.2 1.1 -1 ------- null}
h -t 0.0203377884873346 -s 0 -d 1 -p rtProtoDV -e 7 -c 0 -i 16 -a 0 -x {0.2 1.1 -1 ------- null}
- -t 0.0203377884873346 -s 0 -d 6 -p rtProtoDV -e 7 -c 0 -i 17 -a 0 -x {0.2 6.1 -1 ------- null}
h -t 0.0203377884873346 -s 0 -d 6 -p rtProtoDV -e 7 -c 0 -i 17 -a 0 -x {0.2 6.1 -1 ------- null}
r -t 0.0272143302185826 -s 1 -d 0 -p rtProtoDV -e 7 -c 0 -i 8 -a 0 -x {1.1 0.2 -1 ------- null}
+ -t 0.0272143302185826 -s 0 -d 1 -p rtProtoDV -e 7 -c 0 -i 20 -a 0 -x {0.2 1.1 -1 ------- null}
- -t 0.0272143302185826 -s 0 -d 1 -p rtProtoDV -e 7 -c 0 -i 20 -a 0 -x {0.2 1.1 -1 ------- null}
h -t 0.0272143302185826 -s 0 -d 1 -p rtProtoDV -e 7 -c 0 -i 20 -a 0 -x {0.2 1.1 -1 ------- null}
+ -t 0.0272143302185826 -s 0 -d 6 -p rtProtoDV -e 7 -c 0 -i 21 -a 0 -x {0.2 6.1 -1 ------- null}
- -t 0.0272143302185826 -s 0 -d 6 -p rtProtoDV -e 7 -c 0 -i 21 -a 0 -x {0.2 6.1 -1 ------- null}
h -t 0.0272143302185826 -s 0 -d 6 -p rtProtoDV -e 7 -c 0 -i 21 -a 0 -x {0.2 6.1 -1 ------- null}
r -t 0.0272143302185826 -s 1 -d 2 -p rtProtoDV -e 7 -c 0 -i 9 -a 0 -x {1.1 2.1 -1 ------- null}
r -t 0.0272143302185826 -s 3 -d 2 -p rtProtoDV -e 7 -c 0 -i 10 -a 0 -x {3.2 2.1 -1 ------- null}
+ -t 0.0272143302185826 -s 2 -d 1 -p rtProtoDV -e 7 -c 0 -i 22 -a 0 -x {2.1 1.1 -1 ------- null}
- -t 0.0272143302185826 -s 2 -d 1 -p rtProtoDV -e 7 -c 0 -i 22 -a 0 -x {2.1 1.1 -1 ------- null}
h -t 0.0272143302185826 -s 2 -d 1 -p rtProtoDV -e 7 -c 0 -i 22 -a 0 -x {2.1 1.1 -1 ------- null}
+ -t 0.0272143302185826 -s 2 -d 3 -p rtProtoDV -e 7 -c 0 -i 23 -a 0 -x {2.1 3.2 -1 ------- null}
- -t 0.0272143302185826 -s 2 -d 3 -p rtProtoDV -e 7 -c 0 -i 23 -a 0 -x {2.1 3.2 -1 ------- null}
h -t 0.0272143302185826 -s 2 -d 3 -p rtProtoDV -e 7 -c 0 -i 23 -a 0 -x {2.1 3.2 -1 ------- null}
r -t 0.0272143302185826 -s 3 -d 4 -p rtProtoDV -e 7 -c 0 -i 11 -a 0 -x {3.2 4.1 -1 ------- null}
+ -t 0.0272143302185826 -s 4 -d 3 -p rtProtoDV -e 7 -c 0 -i 24 -a 0 -x {4.1 3.2 -1 ------- null}
- -t 0.0272143302185826 -s 4 -d 3 -p rtProtoDV -e 7 -c 0 -i 24 -a 0 -x {4.1 3.2 -1 ------- null}
h -t 0.0272143302185826 -s 4 -d 3 -p rtProtoDV -e 7 -c 0 -i 24 -a 0 -x {4.1 3.2 -1 ------- null}
+ -t 0.0272143302185826 -s 4 -d 5 -p rtProtoDV -e 7 -c 0 -i 25 -a 0 -x {4.1 5.1 -1 ------- null}
- -t 0.0272143302185826 -s 4 -d 5 -p rtProtoDV -e 7 -c 0 -i 25 -a 0 -x {4.1 5.1 -1 ------- null}
h -t 0.0272143302185826 -s 4 -d 5 -p rtProtoDV -e 7 -c 0 -i 25 -a 0 -x {4.1 5.1 -1 ------- null}
r -t 0.0303377884873346 -s 0 -d 1 -p rtProtoDV -e 7 -c 0 -i 12 -a 0 -x {0.2 1.1 -1 ------- null}
r -t 0.0303377884873346 -s 0 -d 6 -p rtProtoDV -e 7 -c 0 -i 13 -a 0 -x {0.2 6.1 -1 ------- null}
+ -t 0.0303377884873346 -s 6 -d 0 -p rtProtoDV -e 7 -c 0 -i 26 -a 0 -x {6.1 0.2 -1 ------- null}
- -t 0.0303377884873346 -s 6 -d 0 -p rtProtoDV -e 7 -c 0 -i 26 -a 0 -x {6.1 0.2 -1 ------- null}
h -t 0.0303377884873346 -s 6 -d 0 -p rtProtoDV -e 7 -c 0 -i 26 -a 0 -x {6.1 0.2 -1 ------- null}
+ -t 0.0303377884873346 -s 6 -d 5 -p rtProtoDV -e 7 -c 0 -i 27 -a 0 -x {6.1 5.1 -1 ------- null}
- -t 0.0303377884873346 -s 6 -d 5 -p rtProtoDV -e 7 -c 0 -i 27 -a 0 -x {6.1 5.1 -1 ------- null}
h -t 0.0303377884873346 -s 6 -d 5 -p rtProtoDV -e 7 -c 0 -i 27 -a 0 -x {6.1 5.1 -1 ------- null}
r -t 0.0303377884873346 -s 2 -d 1 -p rtProtoDV -e 7 -c 0 -i 14 -a 0 -x {2.1 1.1 -1 ------- null}
r -t 0.0303377884873346 -s 2 -d 3 -p rtProtoDV -e 7 -c 0 -i 15 -a 0 -x {2.1 3.2 -1 ------- null}
+ -t 0.0303377884873346 -s 3 -d 2 -p rtProtoDV -e 7 -c 0 -i 28 -a 0 -x {3.2 2.1 -1 ------- null}
- -t 0.0303377884873346 -s 3 -d 2 -p rtProtoDV -e 7 -c 0 -i 28 -a 0 -x {3.2 2.1 -1 ------- null}
h -t 0.0303377884873346 -s 3 -d 2 -p rtProtoDV -e 7 -c 0 -i 28 -a 0 -x {3.2 2.1 -1 ------- null}
+ -t 0.0303377884873346 -s 3 -d 4 -p rtProtoDV -e 7 -c 0 -i 29 -a 0 -x {3.2 4.1 -1 ------- null}
- -t 0.0303377884873346 -s 3 -d 4 -p rtProtoDV -e 7 -c 0 -i 29 -a 0 -x {3.2 4.1 -1 ------- null}
h -t 0.0303377884873346 -s 3 -d 4 -p rtProtoDV -e 7 -c 0 -i 29 -a 0 -x {3.2 4.1 -1 ------- null}
r -t 0.0303377884873346 -s 5 -d 4 -p rtProtoDV -e 7 -c 0 -i 18 -a 0 -x {5.1 4.1 -1 ------- null}
+ -t 0.0303377884873346 -s 4 -d 3 -p rtProtoDV -e 7 -c 0 -i 30 -a 0 -x {4.1 3.2 -1 ------- null}
- -t 0.0303377884873346 -s 4 -d 3 -p rtProtoDV -e 7 -c 0 -i 30 -a 0 -x {4.1 3.2 -1 ------- null}
h -t 0.0303377884873346 -s 4 -d 3 -p rtProtoDV -e 7 -c 0 -i 30 -a 0 -x {4.1 3.2 -1 ------- null}
+ -t 0.0303377884873346 -s 4 -d 5 -p rtProtoDV -e 7 -c 0 -i 31 -a 0 -x {4.1 5.1 -1 ------- null}
- -t 0.0303377884873346 -s 4 -d 5 -p rtProtoDV -e 7 -c 0 -i 31 -a 0 -x {4.1 5.1 -1 ------- null}
h -t 0.0303377884873346 -s 4 -d 5 -p rtProtoDV -e 7 -c 0 -i 31 -a 0 -x {4.1 5.1 -1 ------- null}
r -t 0.0303377884873346 -s 5 -d 6 -p rtProtoDV -e 7 -c 0 -i 19 -a 0 -x {5.1 6.1 -1 ------- null}
+ -t 0.0303377884873346 -s 6 -d 0 -p rtProtoDV -e 7 -c 0 -i 32 -a 0 -x {6.1 0.2 -1 ------- null}
+ -t 0.0303377884873346 -s 6 -d 5 -p rtProtoDV -e 7 -c 0 -i 33 -a 0 -x {6.1 5.1 -1 ------- null}
r -t 0.0303937884873346 -s 0 -d 1 -p rtProtoDV -e 7 -c 0 -i 16 -a 0 -x {0.2 1.1 -1 ------- null}
+ -t 0.0303937884873346 -s 1 -d 0 -p rtProtoDV -e 7 -c 0 -i 34 -a 0 -x {1.1 0.2 -1 ------- null}
- -t 0.0303937884873346 -s 1 -d 0 -p rtProtoDV -e 7 -c 0 -i 34 -a 0 -x {1.1 0.2 -1 ------- null}
h -t 0.0303937884873346 -s 1 -d 0 -p rtProtoDV -e 7 -c 0 -i 34 -a 0 -x {1.1 0.2 -1 ------- null}
+ -t 0.0303937884873346 -s 1 -d 2 -p rtProtoDV -e 7 -c 0 -i 35 -a 0 -x {1.1 2.1 -1 ------- null}
- -t 0.0303937884873346 -s 1 -d 2 -p rtProtoDV -e 7 -c 0 -i 35 -a 0 -x {1.1 2.1 -1 ------- null}
h -t 0.0303937884873346 -s 1 -d 2 -p rtProtoDV -e 7 -c 0 -i 35 -a 0 -x {1.1 2.1 -1 ------- null}
r -t 0.0303937884873346 -s 0 -d 6 -p rtProtoDV -e 7 -c 0 -i 17 -a 0 -x {0.2 6.1 -1 ------- null}
- -t 0.0303937884873346 -s 6 -d 0 -p rtProtoDV -e 7 -c 0 -i 32 -a 0 -x {6.1 0.2 -1 ------- null}
h -t 0.0303937884873346 -s 6 -d 0 -p rtProtoDV -e 7 -c 0 -i 32 -a 0 -x {6.1 0.2 -1 ------- null}
- -t 0.0303937884873346 -s 6 -d 5 -p rtProtoDV -e 7 -c 0 -i 33 -a 0 -x {6.1 5.1 -1 ------- null}
h -t 0.0303937884873346 -s 6 -d 5 -p rtProtoDV -e 7 -c 0 -i 33 -a 0 -x {6.1 5.1 -1 ------- null}
r -t 0.0372703302185826 -s 0 -d 1 -p rtProtoDV -e 7 -c 0 -i 20 -a 0 -x {0.2 1.1 -1 ------- null}
r -t 0.0372703302185826 -s 0 -d 6 -p rtProtoDV -e 7 -c 0 -i 21 -a 0 -x {0.2 6.1 -1 ------- null}
+ -t 0.0372703302185826 -s 6 -d 0 -p rtProtoDV -e 7 -c 0 -i 36 -a 0 -x {6.1 0.2 -1 ------- null}
- -t 0.0372703302185826 -s 6 -d 0 -p rtProtoDV -e 7 -c 0 -i 36 -a 0 -x {6.1 0.2 -1 ------- null}
h -t 0.0372703302185826 -s 6 -d 0 -p rtProtoDV -e 7 -c 0 -i 36 -a 0 -x {6.1 0.2 -1 ------- null}
+ -t 0.0372703302185826 -s 6 -d 5 -p rtProtoDV -e 7 -c 0 -i 37 -a 0 -x {6.1 5.1 -1 ------- null}
- -t 0.0372703302185826 -s 6 -d 5 -p rtProtoDV -e 7 -c 0 -i 37 -a 0 -x {6.1 5.1 -1 ------- null}
h -t 0.0372703302185826 -s 6 -d 5 -p rtProtoDV -e 7 -c 0 -i 37 -a 0 -x {6.1 5.1 -1 ------- null}
r -t 0.0372703302185826 -s 2 -d 1 -p rtProtoDV -e 7 -c 0 -i 22 -a 0 -x {2.1 1.1 -1 ------- null}
+ -t 0.0372703302185826 -s 1 -d 0 -p rtProtoDV -e 7 -c 0 -i 38 -a 0 -x {1.1 0.2 -1 ------- null}
- -t 0.0372703302185826 -s 1 -d 0 -p rtProtoDV -e 7 -c 0 -i 38 -a 0 -x {1.1 0.2 -1 ------- null}
h -t 0.0372703302185826 -s 1 -d 0 -p rtProtoDV -e 7 -c 0 -i 38 -a 0 -x {1.1 0.2 -1 ------- null}
+ -t 0.0372703302185826 -s 1 -d 2 -p rtProtoDV -e 7 -c 0 -i 39 -a 0 -x {1.1 2.1 -1 ------- null}
- -t 0.0372703302185826 -s 1 -d 2 -p rtProtoDV -e 7 -c 0 -i 39 -a 0 -x {1.1 2.1 -1 ------- null}
h -t 0.0372703302185826 -s 1 -d 2 -p rtProtoDV -e 7 -c 0 -i 39 -a 0 -x {1.1 2.1 -1 ------- null}
r -t 0.0372703302185826 -s 2 -d 3 -p rtProtoDV -e 7 -c 0 -i 23 -a 0 -x {2.1 3.2 -1 ------- null}
r -t 0.0372703302185826 -s 4 -d 3 -p rtProtoDV -e 7 -c 0 -i 24 -a 0 -x {4.1 3.2 -1 ------- null}
+ -t 0.0372703302185826 -s 3 -d 2 -p rtProtoDV -e 7 -c 0 -i 40 -a 0 -x {3.2 2.1 -1 ------- null}
- -t 0.0372703302185826 -s 3 -d 2 -p rtProtoDV -e 7 -c 0 -i 40 -a 0 -x {3.2 2.1 -1 ------- null}
h -t 0.0372703302185826 -s 3 -d 2 -p rtProtoDV -e 7 -c 0 -i 40 -a 0 -x {3.2 2.1 -1 ------- null}
+ -t 0.0372703302185826 -s 3 -d 4 -p rtProtoDV -e 7 -c 0 -i 41 -a 0 -x {3.2 4.1 -1 ------- null}
- -t 0.0372703302185826 -s 3 -d 4 -p rtProtoDV -e 7 -c 0 -i 41 -a 0 -x {3.2 4.1 -1 ------- null}
h -t 0.0372703302185826 -s 3 -d 4 -p rtProtoDV -e 7 -c 0 -i 41 -a 0 -x {3.2 4.1 -1 ------- null}
r -t 0.0372703302185826 -s 4 -d 5 -p rtProtoDV -e 7 -c 0 -i 25 -a 0 -x {4.1 5.1 -1 ------- null}
+ -t 0.0372703302185826 -s 5 -d 4 -p rtProtoDV -e 7 -c 0 -i 42 -a 0 -x {5.1 4.1 -1 ------- null}
- -t 0.0372703302185826 -s 5 -d 4 -p rtProtoDV -e 7 -c 0 -i 42 -a 0 -x {5.1 4.1 -1 ------- null}
h -t 0.0372703302185826 -s 5 -d 4 -p rtProtoDV -e 7 -c 0 -i 42 -a 0 -x {5.1 4.1 -1 ------- null}
+ -t 0.0372703302185826 -s 5 -d 6 -p rtProtoDV -e 7 -c 0 -i 43 -a 0 -x {5.1 6.1 -1 ------- null}
- -t 0.0372703302185826 -s 5 -d 6 -p rtProtoDV -e 7 -c 0 -i 43 -a 0 -x {5.1 6.1 -1 ------- null}
h -t 0.0372703302185826 -s 5 -d 6 -p rtProtoDV -e 7 -c 0 -i 43 -a 0 -x {5.1 6.1 -1 ------- null}
r -t 0.0403937884873346 -s 6 -d 0 -p rtProtoDV -e 7 -c 0 -i 26 -a 0 -x {6.1 0.2 -1 ------- null}
r -t 0.0403937884873346 -s 6 -d 5 -p rtProtoDV -e 7 -c 0 -i 27 -a 0 -x {6.1 5.1 -1 ------- null}
r -t 0.0403937884873346 -s 3 -d 2 -p rtProtoDV -e 7 -c 0 -i 28 -a 0 -x {3.2 2.1 -1 ------- null}
r -t 0.0403937884873346 -s 3 -d 4 -p rtProtoDV -e 7 -c 0 -i 29 -a 0 -x {3.2 4.1 -1 ------- null}
r -t 0.0403937884873346 -s 4 -d 3 -p rtProtoDV -e 7 -c 0 -i 30 -a 0 -x {4.1 3.2 -1 ------- null}
+ -t 0.0403937884873346 -s 3 -d 2 -p rtProtoDV -e 7 -c 0 -i 44 -a 0 -x {3.2 2.1 -1 ------- null}
- -t 0.0403937884873346 -s 3 -d 2 -p rtProtoDV -e 7 -c 0 -i 44 -a 0 -x {3.2 2.1 -1 ------- null}
h -t 0.0403937884873346 -s 3 -d 2 -p rtProtoDV -e 7 -c 0 -i 44 -a 0 -x {3.2 2.1 -1 ------- null}
+ -t 0.0403937884873346 -s 3 -d 4 -p rtProtoDV -e 7 -c 0 -i 45 -a 0 -x {3.2 4.1 -1 ------- null}
- -t 0.0403937884873346 -s 3 -d 4 -p rtProtoDV -e 7 -c 0 -i 45 -a 0 -x {3.2 4.1 -1 ------- null}
h -t 0.0403937884873346 -s 3 -d 4 -p rtProtoDV -e 7 -c 0 -i 45 -a 0 -x {3.2 4.1 -1 ------- null}
r -t 0.0403937884873346 -s 4 -d 5 -p rtProtoDV -e 7 -c 0 -i 31 -a 0 -x {4.1 5.1 -1 ------- null}
r -t 0.0404497884873346 -s 1 -d 0 -p rtProtoDV -e 7 -c 0 -i 34 -a 0 -x {1.1 0.2 -1 ------- null}
r -t 0.0404497884873346 -s 1 -d 2 -p rtProtoDV -e 7 -c 0 -i 35 -a 0 -x {1.1 2.1 -1 ------- null}
+ -t 0.0404497884873346 -s 2 -d 1 -p rtProtoDV -e 7 -c 0 -i 46 -a 0 -x {2.1 1.1 -1 ------- null}
- -t 0.0404497884873346 -s 2 -d 1 -p rtProtoDV -e 7 -c 0 -i 46 -a 0 -x {2.1 1.1 -1 ------- null}
h -t 0.0404497884873346 -s 2 -d 1 -p rtProtoDV -e 7 -c 0 -i 46 -a 0 -x {2.1 1.1 -1 ------- null}
+ -t 0.0404497884873346 -s 2 -d 3 -p rtProtoDV -e 7 -c 0 -i 47 -a 0 -x {2.1 3.2 -1 ------- null}
- -t 0.0404497884873346 -s 2 -d 3 -p rtProtoDV -e 7 -c 0 -i 47 -a 0 -x {2.1 3.2 -1 ------- null}
h -t 0.0404497884873346 -s 2 -d 3 -p rtProtoDV -e 7 -c 0 -i 47 -a 0 -x {2.1 3.2 -1 ------- null}
r -t 0.0404497884873346 -s 6 -d 0 -p rtProtoDV -e 7 -c 0 -i 32 -a 0 -x {6.1 0.2 -1 ------- null}
+ -t 0.0404497884873346 -s 0 -d 1 -p rtProtoDV -e 7 -c 0 -i 48 -a 0 -x {0.2 1.1 -1 ------- null}
- -t 0.0404497884873346 -s 0 -d 1 -p rtProtoDV -e 7 -c 0 -i 48 -a 0 -x {0.2 1.1 -1 ------- null}
h -t 0.0404497884873346 -s 0 -d 1 -p rtProtoDV -e 7 -c 0 -i 48 -a 0 -x {0.2 1.1 -1 ------- null}
+ -t 0.0404497884873346 -s 0 -d 6 -p rtProtoDV -e 7 -c 0 -i 49 -a 0 -x {0.2 6.1 -1 ------- null}
- -t 0.0404497884873346 -s 0 -d 6 -p rtProtoDV -e 7 -c 0 -i 49 -a 0 -x {0.2 6.1 -1 ------- null}
h -t 0.0404497884873346 -s 0 -d 6 -p rtProtoDV -e 7 -c 0 -i 49 -a 0 -x {0.2 6.1 -1 ------- null}
r -t 0.0404497884873346 -s 6 -d 5 -p rtProtoDV -e 7 -c 0 -i 33 -a 0 -x {6.1 5.1 -1 ------- null}
+ -t 0.04406133552271 -s 3 -d 2 -p rtProtoDV -e 7 -c 0 -i 50 -a 0 -x {3.2 2.1 -1 ------- null}
- -t 0.04406133552271 -s 3 -d 2 -p rtProtoDV -e 7 -c 0 -i 50 -a 0 -x {3.2 2.1 -1 ------- null}
h -t 0.04406133552271 -s 3 -d 2 -p rtProtoDV -e 7 -c 0 -i 50 -a 0 -x {3.2 2.1 -1 ------- null}
+ -t 0.04406133552271 -s 3 -d 4 -p rtProtoDV -e 7 -c 0 -i 51 -a 0 -x {3.2 4.1 -1 ------- null}
- -t 0.04406133552271 -s 3 -d 4 -p rtProtoDV -e 7 -c 0 -i 51 -a 0 -x {3.2 4.1 -1 ------- null}
h -t 0.04406133552271 -s 3 -d 4 -p rtProtoDV -e 7 -c 0 -i 51 -a 0 -x {3.2 4.1 -1 ------- null}
r -t 0.0473263302185826 -s 6 -d 0 -p rtProtoDV -e 7 -c 0 -i 36 -a 0 -x {6.1 0.2 -1 ------- null}
r -t 0.0473263302185826 -s 6 -d 5 -p rtProtoDV -e 7 -c 0 -i 37 -a 0 -x {6.1 5.1 -1 ------- null}
r -t 0.0473263302185826 -s 1 -d 0 -p rtProtoDV -e 7 -c 0 -i 38 -a 0 -x {1.1 0.2 -1 ------- null}
r -t 0.0473263302185826 -s 1 -d 2 -p rtProtoDV -e 7 -c 0 -i 39 -a 0 -x {1.1 2.1 -1 ------- null}
r -t 0.0473263302185826 -s 3 -d 2 -p rtProtoDV -e 7 -c 0 -i 40 -a 0 -x {3.2 2.1 -1 ------- null}
+ -t 0.0473263302185826 -s 2 -d 1 -p rtProtoDV -e 7 -c 0 -i 52 -a 0 -x {2.1 1.1 -1 ------- null}
- -t 0.0473263302185826 -s 2 -d 1 -p rtProtoDV -e 7 -c 0 -i 52 -a 0 -x {2.1 1.1 -1 ------- null}
h -t 0.0473263302185826 -s 2 -d 1 -p rtProtoDV -e 7 -c 0 -i 52 -a 0 -x {2.1 1.1 -1 ------- null}
+ -t 0.0473263302185826 -s 2 -d 3 -p rtProtoDV -e 7 -c 0 -i 53 -a 0 -x {2.1 3.2 -1 ------- null}
- -t 0.0473263302185826 -s 2 -d 3 -p rtProtoDV -e 7 -c 0 -i 53 -a 0 -x {2.1 3.2 -1 ------- null}
h -t 0.0473263302185826 -s 2 -d 3 -p rtProtoDV -e 7 -c 0 -i 53 -a 0 -x {2.1 3.2 -1 ------- null}
r -t 0.0473263302185826 -s 3 -d 4 -p rtProtoDV -e 7 -c 0 -i 41 -a 0 -x {3.2 4.1 -1 ------- null}
r -t 0.0473263302185826 -s 5 -d 4 -p rtProtoDV -e 7 -c 0 -i 42 -a 0 -x {5.1 4.1 -1 ------- null}
r -t 0.0473263302185826 -s 5 -d 6 -p rtProtoDV -e 7 -c 0 -i 43 -a 0 -x {5.1 6.1 -1 ------- null}
+ -t 0.0473263302185826 -s 6 -d 0 -p rtProtoDV -e 7 -c 0 -i 54 -a 0 -x {6.1 0.2 -1 ------- null}
- -t 0.0473263302185826 -s 6 -d 0 -p rtProtoDV -e 7 -c 0 -i 54 -a 0 -x {6.1 0.2 -1 ------- null}
h -t 0.0473263302185826 -s 6 -d 0 -p rtProtoDV -e 7 -c 0 -i 54 -a 0 -x {6.1 0.2 -1 ------- null}
+ -t 0.0473263302185826 -s 6 -d 5 -p rtProtoDV -e 7 -c 0 -i 55 -a 0 -x {6.1 5.1 -1 ------- null}
- -t 0.0473263302185826 -s 6 -d 5 -p rtProtoDV -e 7 -c 0 -i 55 -a 0 -x {6.1 5.1 -1 ------- null}
h -t 0.0473263302185826 -s 6 -d 5 -p rtProtoDV -e 7 -c 0 -i 55 -a 0 -x {6.1 5.1 -1 ------- null}
r -t 0.0504497884873346 -s 3 -d 2 -p rtProtoDV -e 7 -c 0 -i 44 -a 0 -x {3.2 2.1 -1 ------- null}
r -t 0.0504497884873346 -s 3 -d 4 -p rtProtoDV -e 7 -c 0 -i 45 -a 0 -x {3.2 4.1 -1 ------- null}
r -t 0.0505057884873346 -s 2 -d 1 -p rtProtoDV -e 7 -c 0 -i 46 -a 0 -x {2.1 1.1 -1 ------- null}
r -t 0.0505057884873346 -s 2 -d 3 -p rtProtoDV -e 7 -c 0 -i 47 -a 0 -x {2.1 3.2 -1 ------- null}
r -t 0.0505057884873346 -s 0 -d 1 -p rtProtoDV -e 7 -c 0 -i 48 -a 0 -x {0.2 1.1 -1 ------- null}
r -t 0.0505057884873346 -s 0 -d 6 -p rtProtoDV -e 7 -c 0 -i 49 -a 0 -x {0.2 6.1 -1 ------- null}
r -t 0.05411733552271 -s 3 -d 2 -p rtProtoDV -e 7 -c 0 -i 50 -a 0 -x {3.2 2.1 -1 ------- null}
r -t 0.05411733552271 -s 3 -d 4 -p rtProtoDV -e 7 -c 0 -i 51 -a 0 -x {3.2 4.1 -1 ------- null}
r -t 0.0573823302185826 -s 2 -d 1 -p rtProtoDV -e 7 -c 0 -i 52 -a 0 -x {2.1 1.1 -1 ------- null}
r -t 0.0573823302185826 -s 2 -d 3 -p rtProtoDV -e 7 -c 0 -i 53 -a 0 -x {2.1 3.2 -1 ------- null}
r -t 0.0573823302185826 -s 6 -d 0 -p rtProtoDV -e 7 -c 0 -i 54 -a 0 -x {6.1 0.2 -1 ------- null}
r -t 0.0573823302185826 -s 6 -d 5 -p rtProtoDV -e 7 -c 0 -i 55 -a 0 -x {6.1 5.1 -1 ------- null}
+ -t 0.156480885882155 -s 6 -d 0 -p rtProtoDV -e 7 -c 0 -i 56 -a 0 -x {6.1 0.2 -1 ------- null}
- -t 0.156480885882155 -s 6 -d 0 -p rtProtoDV -e 7 -c 0 -i 56 -a 0 -x {6.1 0.2 -1 ------- null}
h -t 0.156480885882155 -s 6 -d 0 -p rtProtoDV -e 7 -c 0 -i 56 -a 0 -x {6.1 0.2 -1 ------- null}
+ -t 0.156480885882155 -s 6 -d 5 -p rtProtoDV -e 7 -c 0 -i 57 -a 0 -x {6.1 5.1 -1 ------- null}
- -t 0.156480885882155 -s 6 -d 5 -p rtProtoDV -e 7 -c 0 -i 57 -a 0 -x {6.1 5.1 -1 ------- null}
h -t 0.156480885882155 -s 6 -d 5 -p rtProtoDV -e 7 -c 0 -i 57 -a 0 -x {6.1 5.1 -1 ------- null}
r -t 0.166536885882155 -s 6 -d 0 -p rtProtoDV -e 7 -c 0 -i 56 -a 0 -x {6.1 0.2 -1 ------- null}
r -t 0.166536885882155 -s 6 -d 5 -p rtProtoDV -e 7 -c 0 -i 57 -a 0 -x {6.1 5.1 -1 ------- null}
+ -t 0.22058669092161 -s 4 -d 3 -p rtProtoDV -e 7 -c 0 -i 58 -a 0 -x {4.1 3.2 -1 ------- null}
- -t 0.22058669092161 -s 4 -d 3 -p rtProtoDV -e 7 -c 0 -i 58 -a 0 -x {4.1 3.2 -1 ------- null}
h -t 0.22058669092161 -s 4 -d 3 -p rtProtoDV -e 7 -c 0 -i 58 -a 0 -x {4.1 3.2 -1 ------- null}
+ -t 0.22058669092161 -s 4 -d 5 -p rtProtoDV -e 7 -c 0 -i 59 -a 0 -x {4.1 5.1 -1 ------- null}
- -t 0.22058669092161 -s 4 -d 5 -p rtProtoDV -e 7 -c 0 -i 59 -a 0 -x {4.1 5.1 -1 ------- null}
h -t 0.22058669092161 -s 4 -d 5 -p rtProtoDV -e 7 -c 0 -i 59 -a 0 -x {4.1 5.1 -1 ------- null}
r -t 0.23064269092161 -s 4 -d 3 -p rtProtoDV -e 7 -c 0 -i 58 -a 0 -x {4.1 3.2 -1 ------- null}
r -t 0.23064269092161 -s 4 -d 5 -p rtProtoDV -e 7 -c 0 -i 59 -a 0 -x {4.1 5.1 -1 ------- null}
+ -t 0.277940357931862 -s 1 -d 0 -p rtProtoDV -e 7 -c 0 -i 60 -a 0 -x {1.1 0.2 -1 ------- null}
- -t 0.277940357931862 -s 1 -d 0 -p rtProtoDV -e 7 -c 0 -i 60 -a 0 -x {1.1 0.2 -1 ------- null}
h -t 0.277940357931862 -s 1 -d 0 -p rtProtoDV -e 7 -c 0 -i 60 -a 0 -x {1.1 0.2 -1 ------- null}
+ -t 0.277940357931862 -s 1 -d 2 -p rtProtoDV -e 7 -c 0 -i 61 -a 0 -x {1.1 2.1 -1 ------- null}
- -t 0.277940357931862 -s 1 -d 2 -p rtProtoDV -e 7 -c 0 -i 61 -a 0 -x {1.1 2.1 -1 ------- null}
h -t 0.277940357931862 -s 1 -d 2 -p rtProtoDV -e 7 -c 0 -i 61 -a 0 -x {1.1 2.1 -1 ------- null}
r -t 0.287996357931862 -s 1 -d 0 -p rtProtoDV -e 7 -c 0 -i 60 -a 0 -x {1.1 0.2 -1 ------- null}
r -t 0.287996357931862 -s 1 -d 2 -p rtProtoDV -e 7 -c 0 -i 61 -a 0 -x {1.1 2.1 -1 ------- null}
+ -t 0.399577726796073 -s 5 -d 4 -p rtProtoDV -e 7 -c 0 -i 62 -a 0 -x {5.1 4.1 -1 ------- null}
- -t 0.399577726796073 -s 5 -d 4 -p rtProtoDV -e 7 -c 0 -i 62 -a 0 -x {5.1 4.1 -1 ------- null}
h -t 0.399577726796073 -s 5 -d 4 -p rtProtoDV -e 7 -c 0 -i 62 -a 0 -x {5.1 4.1 -1 ------- null}
+ -t 0.399577726796073 -s 5 -d 6 -p rtProtoDV -e 7 -c 0 -i 63 -a 0 -x {5.1 6.1 -1 ------- null}
- -t 0.399577726796073 -s 5 -d 6 -p rtProtoDV -e 7 -c 0 -i 63 -a 0 -x {5.1 6.1 -1 ------- null}
h -t 0.399577726796073 -s 5 -d 6 -p rtProtoDV -e 7 -c 0 -i 63 -a 0 -x {5.1 6.1 -1 ------- null}
r -t 0.409633726796073 -s 5 -d 4 -p rtProtoDV -e 7 -c 0 -i 62 -a 0 -x {5.1 4.1 -1 ------- null}
r -t 0.409633726796073 -s 5 -d 6 -p rtProtoDV -e 7 -c 0 -i 63 -a 0 -x {5.1 6.1 -1 ------- null}
+ -t 0.5 -s 0 -d 1 -p cbr -e 500 -c 0 -i 64 -a 0 -x {0.0 3.0 0 ------- null}
- -t 0.5 -s 0 -d 1 -p cbr -e 500 -c 0 -i 64 -a 0 -x {0.0 3.0 0 ------- null}
h -t 0.5 -s 0 -d 1 -p cbr -e 500 -c 0 -i 64 -a 0 -x {0.0 3.0 -1 ------- null}
+ -t 0.505 -s 0 -d 1 -p cbr -e 500 -c 0 -i 65 -a 0 -x {0.0 3.0 1 ------- null}
- -t 0.505 -s 0 -d 1 -p cbr -e 500 -c 0 -i 65 -a 0 -x {0.0 3.0 1 ------- null}
h -t 0.505 -s 0 -d 1 -p cbr -e 500 -c 0 -i 65 -a 0 -x {0.0 3.0 -1 ------- null}
+ -t 0.51 -s 0 -d 1 -p cbr -e 500 -c 0 -i 66 -a 0 -x {0.0 3.0 2 ------- null}
- -t 0.51 -s 0 -d 1 -p cbr -e 500 -c 0 -i 66 -a 0 -x {0.0 3.0 2 ------- null}
h -t 0.51 -s 0 -d 1 -p cbr -e 500 -c 0 -i 66 -a 0 -x {0.0 3.0 -1 ------- null}
r -t 0.514 -s 0 -d 1 -p cbr -e 500 -c 0 -i 64 -a 0 -x {0.0 3.0 0 ------- null}
+ -t 0.514 -s 1 -d 2 -p cbr -e 500 -c 0 -i 64 -a 0 -x {0.0 3.0 0 ------- null}
- -t 0.514 -s 1 -d 2 -p cbr -e 500 -c 0 -i 64 -a 0 -x {0.0 3.0 0 ------- null}
h -t 0.514 -s 1 -d 2 -p cbr -e 500 -c 0 -i 64 -a 0 -x {0.0 3.0 -1 ------- null}
+ -t 0.515 -s 0 -d 1 -p cbr -e 500 -c 0 -i 67 -a 0 -x {0.0 3.0 3 ------- null}
- -t 0.515 -s 0 -d 1 -p cbr -e 500 -c 0 -i 67 -a 0 -x {0.0 3.0 3 ------- null}
h -t 0.515 -s 0 -d 1 -p cbr -e 500 -c 0 -i 67 -a 0 -x {0.0 3.0 -1 ------- null}
r -t 0.519 -s 0 -d 1 -p cbr -e 500 -c 0 -i 65 -a 0 -x {0.0 3.0 1 ------- null}
+ -t 0.519 -s 1 -d 2 -p cbr -e 500 -c 0 -i 65 -a 0 -x {0.0 3.0 1 ------- null}
- -t 0.519 -s 1 -d 2 -p cbr -e 500 -c 0 -i 65 -a 0 -x {0.0 3.0 1 ------- null}
h -t 0.519 -s 1 -d 2 -p cbr -e 500 -c 0 -i 65 -a 0 -x {0.0 3.0 -1 ------- null}
+ -t 0.52 -s 0 -d 1 -p cbr -e 500 -c 0 -i 68 -a 0 -x {0.0 3.0 4 ------- null}
- -t 0.52 -s 0 -d 1 -p cbr -e 500 -c 0 -i 68 -a 0 -x {0.0 3.0 4 ------- null}
h -t 0.52 -s 0 -d 1 -p cbr -e 500 -c 0 -i 68 -a 0 -x {0.0 3.0 -1 ------- null}
r -t 0.524 -s 0 -d 1 -p cbr -e 500 -c 0 -i 66 -a 0 -x {0.0 3.0 2 ------- null}
+ -t 0.524 -s 1 -d 2 -p cbr -e 500 -c 0 -i 66 -a 0 -x {0.0 3.0 2 ------- null}
- -t 0.524 -s 1 -d 2 -p cbr -e 500 -c 0 -i 66 -a 0 -x {0.0 3.0 2 ------- null}
h -t 0.524 -s 1 -d 2 -p cbr -e 500 -c 0 -i 66 -a 0 -x {0.0 3.0 -1 ------- null}
+ -t 0.525 -s 0 -d 1 -p cbr -e 500 -c 0 -i 69 -a 0 -x {0.0 3.0 5 ------- null}
- -t 0.525 -s 0 -d 1 -p cbr -e 500 -c 0 -i 69 -a 0 -x {0.0 3.0 5 ------- null}
h -t 0.525 -s 0 -d 1 -p cbr -e 500 -c 0 -i 69 -a 0 -x {0.0 3.0 -1 ------- null}
r -t 0.528 -s 1 -d 2 -p cbr -e 500 -c 0 -i 64 -a 0 -x {0.0 3.0 0 ------- null}
+ -t 0.528 -s 2 -d 3 -p cbr -e 500 -c 0 -i 64 -a 0 -x {0.0 3.0 0 ------- null}
- -t 0.528 -s 2 -d 3 -p cbr -e 500 -c 0 -i 64 -a 0 -x {0.0 3.0 0 ------- null}
h -t 0.528 -s 2 -d 3 -p cbr -e 500 -c 0 -i 64 -a 0 -x {0.0 3.0 -1 ------- null}
r -t 0.529 -s 0 -d 1 -p cbr -e 500 -c 0 -i 67 -a 0 -x {0.0 3.0 3 ------- null}
+ -t 0.529 -s 1 -d 2 -p cbr -e 500 -c 0 -i 67 -a 0 -x {0.0 3.0 3 ------- null}
- -t 0.529 -s 1 -d 2 -p cbr -e 500 -c 0 -i 67 -a 0 -x {0.0 3.0 3 ------- null}
h -t 0.529 -s 1 -d 2 -p cbr -e 500 -c 0 -i 67 -a 0 -x {0.0 3.0 -1 ------- null}
+ -t 0.53 -s 0 -d 1 -p cbr -e 500 -c 0 -i 70 -a 0 -x {0.0 3.0 6 ------- null}
- -t 0.53 -s 0 -d 1 -p cbr -e 500 -c 0 -i 70 -a 0 -x {0.0 3.0 6 ------- null}
h -t 0.53 -s 0 -d 1 -p cbr -e 500 -c 0 -i 70 -a 0 -x {0.0 3.0 -1 ------- null}
r -t 0.533 -s 1 -d 2 -p cbr -e 500 -c 0 -i 65 -a 0 -x {0.0 3.0 1 ------- null}
+ -t 0.533 -s 2 -d 3 -p cbr -e 500 -c 0 -i 65 -a 0 -x {0.0 3.0 1 ------- null}
- -t 0.533 -s 2 -d 3 -p cbr -e 500 -c 0 -i 65 -a 0 -x {0.0 3.0 1 ------- null}
h -t 0.533 -s 2 -d 3 -p cbr -e 500 -c 0 -i 65 -a 0 -x {0.0 3.0 -1 ------- null}
r -t 0.534 -s 0 -d 1 -p cbr -e 500 -c 0 -i 68 -a 0 -x {0.0 3.0 4 ------- null}
+ -t 0.534 -s 1 -d 2 -p cbr -e 500 -c 0 -i 68 -a 0 -x {0.0 3.0 4 ------- null}
- -t 0.534 -s 1 -d 2 -p cbr -e 500 -c 0 -i 68 -a 0 -x {0.0 3.0 4 ------- null}
h -t 0.534 -s 1 -d 2 -p cbr -e 500 -c 0 -i 68 -a 0 -x {0.0 3.0 -1 ------- null}
+ -t 0.535 -s 0 -d 1 -p cbr -e 500 -c 0 -i 71 -a 0 -x {0.0 3.0 7 ------- null}
- -t 0.535 -s 0 -d 1 -p cbr -e 500 -c 0 -i 71 -a 0 -x {0.0 3.0 7 ------- null}
h -t 0.535 -s 0 -d 1 -p cbr -e 500 -c 0 -i 71 -a 0 -x {0.0 3.0 -1 ------- null}
r -t 0.538 -s 1 -d 2 -p cbr -e 500 -c 0 -i 66 -a 0 -x {0.0 3.0 2 ------- null}
+ -t 0.538 -s 2 -d 3 -p cbr -e 500 -c 0 -i 66 -a 0 -x {0.0 3.0 2 ------- null}
- -t 0.538 -s 2 -d 3 -p cbr -e 500 -c 0 -i 66 -a 0 -x {0.0 3.0 2 ------- null}
h -t 0.538 -s 2 -d 3 -p cbr -e 500 -c 0 -i 66 -a 0 -x {0.0 3.0 -1 ------- null}