V -t * -v 1.0a5 -a 0
A -t * -n 1 -p 0 -o 0x7fffffff -c 30 -a 1
A -t * -h 1 -m 1073741823 -s 0
n -t * -a 0 -s 0 -S UP -v circle -c black -i black
n -t * -a 1 -s 1 -S UP -v circle -c black -i black
n -t * -a 2 -s 2 -S UP -v circle -c black -i black
l -t * -s 1 -d 0 -S UP -r 1000000 -D 0.01 -c black
l -t * -s 1 -d 2 -S UP -r 10000 -D 0.01 -c black
+ -t 0.2 -s 0 -d 1 -p ping -e 64 -c 0 -i 0 -a 0 -x {0.0 2.0 -1 ------- null}
- -t 0.2 -s 0 -d 1 -p ping -e 64 -c 0 -i 0 -a 0 -x {0.0 2.0 -1 ------- null}
h -t 0.2 -s 0 -d 1 -p ping -e 64 -c 0 -i 0 -a 0 -x {0.0 2.0 -1 ------- null}
r -t 0.300512 -s 0 -d 1 -p ping -e 64 -c 0 -i 0 -a 0 -x {0.0 2.0 -1 ------- null}
+ -t 0.300512 -s 1 -d 2 -p ping -e 64 -c 0 -i 0 -a 0 -x {0.0 2.0 -1 ------- null}
- -t 0.300512 -s 1 -d 2 -p ping -e 64 -c 0 -i 0 -a 0 -x {0.0 2.0 -1 ------- null}
h -t 0.300512 -s 1 -d 2 -p ping -e 64 -c 0 -i 0 -a 0 -x {0.0 2.0 -1 ------- null}
r -t 0.361712 -s 1 -d 2 -p ping -e 64 -c 0 -i 0 -a 0 -x {0.0 2.0 -1 ------- null}
+ -t 0.361712 -s 2 -d 1 -p ping -e 64 -c 0 -i 1 -a 0 -x {2.0 0.0 -1 ------- null}
- -t 0.361712 -s 2 -d 1 -p ping -e 64 -c 0 -i 1 -a 0 -x {2.0 0.0 -1 ------- null}
h -t 0.361712 -s 2 -d 1 -p ping -e 64 -c 0 -i 1 -a 0 -x {2.0 0.0 -1 ------- null}
+ -t 0.4 -s 2 -d 1 -p ping -e 64 -c 0 -i 2 -a 0 -x {2.0 0.0 -1 ------- null}
- -t 0.412912 -s 2 -d 1 -p ping -e 64 -c 0 -i 2 -a 0 -x {2.0 0.0 -1 ------- null}
h -t 0.412912 -s 2 -d 1 -p ping -e 64 -c 0 -i 2 -a 0 -x {2.0 0.0 -1 ------- null}
r -t 0.422912 -s 2 -d 1 -p ping -e 64 -c 0 -i 1 -a 0 -x {2.0 0.0 -1 ------- null}
+ -t 0.422912 -s 1 -d 0 -p ping -e 64 -c 0 -i 1 -a 0 -x {2.0 0.0 -1 ------- null}
- -t 0.422912 -s 1 -d 0 -p ping -e 64 -c 0 -i 1 -a 0 -x {2.0 0.0 -1 ------- null}
h -t 0.422912 -s 1 -d 0 -p ping -e 64 -c 0 -i 1 -a 0 -x {2.0 0.0 -1 ------- null}
r -t 0.433424 -s 1 -d 0 -p ping -e 64 -c 0 -i 1 -a 0 -x {2.0 0.0 -1 ------- null}
r -t 0.474112 -s 2 -d 1 -p ping -e 64 -c 0 -i 2 -a 0 -x {2.0 0.0 -1 ------- null}
+ -t 0.474112 -s 1 -d 0 -p ping -e 64 -c 0 -i 2 -a 0 -x {2.0 0.0 -1 ------- null}
- -t 0.474112 -s 1 -d 0 -p ping -e 64 -c 0 -i 2 -a 0 -x {2.0 0.0 -1 ------- null}
h -t 0.474112 -s 1 -d 0 -p ping -e 64 -c 0 -i 2 -a 0 -x {2.0 0.0 -1 ------- null}
r -t 0.484624 -s 1 -d 0 -p ping -e 64 -c 0 -i 2 -a 0 -x {2.0 0.0 -1 ------- null}
+ -t 0.484624 -s 0 -d 1 -p ping -e 64 -c 0 -i 3 -a 0 -x {0.0 2.0 -1 ------- null}
- -t 0.484624 -s 0 -d 1 -p ping -e 64 -c 0 -i 3 -a 0 -x {0.0 2.0 -1 ------- null}
h -t 0.484624 -s 0 -d 1 -p ping -e 64 -c 0 -i 3 -a 0 -x {0.0 2.0 -1 ------- null}
r -t 0.585136 -s 0 -d 1 -p ping -e 64 -c 0 -i 3 -a 0 -x {0.0 2.0 -1 ------- null}
+ -t 0.585136 -s 1 -d 2 -p ping -e 64 -c 0 -i 3 -a 0 -x {0.0 2.0 -1 ------- null}
- -t 0.585136 -s 1 -d 2 -p ping -e 64 -c 0 -i 3 -a 0 -x {0.0 2.0 -1 ------- null}
h -t 0.585136 -s 1 -d 2 -p ping -e 64 -c 0 -i 3 -a 0 -x {0.0 2.0 -1 ------- null}
+ -t 0.6 -s 0 -d 1 -p ping -e 64 -c 0 -i 4 -a 0 -x {0.0 2.0 -1 ------- null}
- -t 0.6 -s 0 -d 1 -p ping -e 64 -c 0 -i 4 -a 0 -x {0.0 2.0 -1 ------- null}
h -t 0.6 -s 0 -d 1 -p ping -e 64 -c 0 -i 4 -a 0 -x {0.0 2.0 -1 ------- null}
+ -t 0.6 -s 2 -d 1 -p ping -e 64 -c 0 -i 5 -a 0 -x {2.0 0.0 -1 ------- null}
- -t 0.6 -s 2 -d 1 -p ping -e 64 -c 0 -i 5 -a 0 -x {2.0 0.0 -1 ------- null}
h -t 0.6 -s 2 -d 1 -p ping -e 64 -c 0 -i 5 -a 0 -x {2.0 0.0 -1 ------- null}
+ -t 0.61 -s 0 -d 1 -p ping -e 64 -c 0 -i 6 -a 0 -x {0.0 2.0 -1 ------- null}
- -t 0.61 -s 0 -d 1 -p ping -e 64 -c 0 -i 6 -a 0 -x {0.0 2.0 -1 ------- null}
h -t 0.61 -s 0 -d 1 -p ping -e 64 -c 0 -i 6 -a 0 -x {0.0 2.0 -1 ------- null}
+ -t 0.61 -s 2 -d 1 -p ping -e 64 -c 0 -i 7 -a 0 -x {2.0 0.0 -1 ------- null}
r -t 0.646336 -s 1 -d 2 -p ping -e 64 -c 0 -i 3 -a 0 -x {0.0 2.0 -1 ------- null}
- -t 0.6512 -s 2 -d 1 -p ping -e 64 -c 0 -i 7 -a 0 -x {2.0 0.0 -1 ------- null}
h -t 0.6512 -s 2 -d 1 -p ping -e 64 -c 0 -i 7 -a 0 -x {2.0 0.0 -1 ------- null}
r -t 0.6612 -s 2 -d 1 -p ping -e 64 -c 0 -i 5 -a 0 -x {2.0 0.0 -1 ------- null}
+ -t 0.6612 -s 1 -d 0 -p ping -e 64 -c 0 -i 5 -a 0 -x {2.0 0.0 -1 ------- null}
- -t 0.6612 -s 1 -d 0 -p ping -e 64 -c 0 -i 5 -a 0 -x {2.0 0.0 -1 ------- null}
h -t 0.6612 -s 1 -d 0 -p ping -e 64 -c 0 -i 5 -a 0 -x {2.0 0.0 -1 ------- null}
r -t 0.671712 -s 1 -d 0 -p ping -e 64 -c 0 -i 5 -a 0 -x {2.0 0.0 -1 ------- null}
+ -t 0.671712 -s 0 -d 1 -p ping -e 64 -c 0 -i 8 -a 0 -x {0.0 2.0 -1 ------- null}
- -t 0.671712 -s 0 -d 1 -p ping -e 64 -c 0 -i 8 -a 0 -x {0.0 2.0 -1 ------- null}
h -t 0.671712 -s 0 -d 1 -p ping -e 64 -c 0 -i 8 -a 0 -x {0.0 2.0 -1 ------- null}
r -t 0.700512 -s 0 -d 1 -p ping -e 64 -c 0 -i 4 -a 0 -x {0.0 2.0 -1 ------- null}
+ -t 0.700512 -s 1 -d 2 -p ping -e 64 -c 0 -i 4 -a 0 -x {0.0 2.0 -1 ------- null}
- -t 0.700512 -s 1 -d 2 -p ping -e 64 -c 0 -i 4 -a 0 -x {0.0 2.0 -1 ------- null}
h -t 0.700512 -s 1 -d 2 -p ping -e 64 -c 0 -i 4 -a 0 -x {0.0 2.0 -1 ------- null}
r -t 0.710512 -s 0 -d 1 -p ping -e 64 -c 0 -i 6 -a 0 -x {0.0 2.0 -1 ------- null}
+ -t 0.710512 -s 1 -d 2 -p ping -e 64 -c 0 -i 6 -a 0 -x {0.0 2.0 -1 ------- null}
r -t 0.7124 -s 2 -d 1 -p ping -e 64 -c 0 -i 7 -a 0 -x {2.0 0.0 -1 ------- null}
+ -t 0.7124 -s 1 -d 0 -p ping -e 64 -c 0 -i 7 -a 0 -x {2.0 0.0 -1 ------- null}
- -t 0.7124 -s 1 -d 0 -p ping -e 64 -c 0 -i 7 -a 0 -x {2.0 0.0 -1 ------- null}
h -t 0.7124 -s 1 -d 0 -p ping -e 64 -c 0 -i 7 -a 0 -x {2.0 0.0 -1 ------- null}
r -t 0.722912 -s 1 -d 0 -p ping -e 64 -c 0 -i 7 -a 0 -x {2.0 0.0 -1 ------- null}
+ -t 0.722912 -s 0 -d 1 -p ping -e 64 -c 0 -i 9 -a 0 -x {0.0 2.0 -1 ------- null}
- -t 0.722912 -s 0 -d 1 -p ping -e 64 -c 0 -i 9 -a 0 -x {0.0 2.0 -1 ------- null}
h -t 0.722912 -s 0 -d 1 -p ping -e 64 -c 0 -i 9 -a 0 -x {0.0 2.0 -1 ------- null}
- -t 0.751712 -s 1 -d 2 -p ping -e 64 -c 0 -i 6 -a 0 -x {0.0 2.0 -1 ------- null}
h -t 0.751712 -s 1 -d 2 -p ping -e 64 -c 0 -i 6 -a 0 -x {0.0 2.0 -1 ------- null}
r -t 0.761712 -s 1 -d 2 -p ping -e 64 -c 0 -i 4 -a 0 -x {0.0 2.0 -1 ------- null}
+ -t 0.761712 -s 2 -d 1 -p ping -e 64 -c 0 -i 10 -a 0 -x {2.0 0.0 -1 ------- null}
- -t 0.761712 -s 2 -d 1 -p ping -e 64 -c 0 -i 10 -a 0 -x {2.0 0.0 -1 ------- null}
h -t 0.761712 -s 2 -d 1 -p ping -e 64 -c 0 -i 10 -a 0 -x {2.0 0.0 -1 ------- null}
r -t 0.772224 -s 0 -d 1 -p ping -e 64 -c 0 -i 8 -a 0 -x {0.0 2.0 -1 ------- null}
+ -t 0.772224 -s 1 -d 2 -p ping -e 64 -c 0 -i 8 -a 0 -x {0.0 2.0 -1 ------- null}
- -t 0.802912 -s 1 -d 2 -p ping -e 64 -c 0 -i 8 -a 0 -x {0.0 2.0 -1 ------- null}
h -t 0.802912 -s 1 -d 2 -p ping -e 64 -c 0 -i 8 -a 0 -x {0.0 2.0 -1 ------- null}
r -t 0.812912 -s 1 -d 2 -p ping -e 64 -c 0 -i 6 -a 0 -x {0.0 2.0 -1 ------- null}
+ -t 0.812912 -s 2 -d 1 -p ping -e 64 -c 0 -i 11 -a 0 -x {2.0 0.0 -1 ------- null}
- -t 0.812912 -s 2 -d 1 -p ping -e 64 -c 0 -i 11 -a 0 -x {2.0 0.0 -1 ------- null}
h -t 0.812912 -s 2 -d 1 -p ping -e 64 -c 0 -i 11 -a 0 -x {2.0 0.0 -1 ------- null}
r -t 0.822912 -s 2 -d 1 -p ping -e 64 -c 0 -i 10 -a 0 -x {2.0 0.0 -1 ------- null}
+ -t 0.822912 -s 1 -d 0 -p ping -e 64 -c 0 -i 10 -a 0 -x {2.0 0.0 -1 ------- null}
- -t 0.822912 -s 1 -d 0 -p ping -e 64 -c 0 -i 10 -a 0 -x {2.0 0.0 -1 ------- null}
h -t 0.822912 -s 1 -d 0 -p ping -e 64 -c 0 -i 10 -a 0 -x {2.0 0.0 -1 ------- null}
r -t 0.823424 -s 0 -d 1 -p ping -e 64 -c 0 -i 9 -a 0 -x {0.0 2.0 -1 ------- null}
+ -t 0.823424 -s 1 -d 2 -p ping -e 64 -c 0 -i 9 -a 0 -x {0.0 2.0 -1 ------- null}
r -t 0.833424 -s 1 -d 0 -p ping -e 64 -c 0 -i 10 -a 0 -x {2.0 0.0 -1 ------- null}
- -t 0.854112 -s 1 -d 2 -p ping -e 64 -c 0 -i 9 -a 0 -x {0.0 2.0 -1 ------- null}
h -t 0.854112 -s 1 -d 2 -p ping -e 64 -c 0 -i 9 -a 0 -x {0.0 2.0 -1 ------- null}
r -t 0.864112 -s 1 -d 2 -p ping -e 64 -c 0 -i 8 -a 0 -x {0.0 2.0 -1 ------- null}
r -t 0.874112 -s 2 -d 1 -p ping -e 64 -c 0 -i 11 -a 0 -x {2.0 0.0 -1 ------- null}
+ -t 0.874112 -s 1 -d 0 -p ping -e 64 -c 0 -i 11 -a 0 -x {2.0 0.0 -1 ------- null}
- -t 0.874112 -s 1 -d 0 -p ping -e 64 -c 0 -i 11 -a 0 -x {2.0 0.0 -1 ------- null}
h -t 0.874112 -s 1 -d 0 -p ping -e 64 -c 0 -i 11 -a 0 -x {2.0 0.0 -1 ------- null}
r -t 0.884624 -s 1 -d 0 -p ping -e 64 -c 0 -i 11 -a 0 -x {2.0 0.0 -1 ------- null}
r -t 0.915312 -s 1 -d 2 -p ping -e 64 -c 0 -i 9 -a 0 -x {0.0 2.0 -1 ------- null}
