+ 0.25 3 1 encap 230 ------- 0 3.3 2.0 -1 15
- 0.25 3 1 encap 230 ------- 0 3.3 2.0 -1 15
+ 0.25375 3 1 encap 230 ------- 0 3.3 2.0 -1 18
- 0.25375 3 1 encap 230 ------- 0 3.3 2.0 -1 18
+ 0.2575 3 1 encap 230 ------- 0 3.3 2.0 -1 21
- 0.2575 3 1 encap 230 ------- 0 3.3 2.0 -1 21
r 0.261227 3 1 encap 230 ------- 0 3.3 2.0 -1 15
+ 0.261227 1 2 encap 230 ------- 0 3.3 2.0 -1 15
- 0.261227 1 2 encap 230 ------- 0 3.3 2.0 -1 15
+ 0.26125 3 1 encap 230 ------- 0 3.3 2.0 -1 24
- 0.26125 3 1 encap 230 ------- 0 3.3 2.0 -1 24
r 0.264977 3 1 encap 230 ------- 0 3.3 2.0 -1 18
+ 0.264977 1 2 encap 230 ------- 0 3.3 2.0 -1 18
- 0.264977 1 2 encap 230 ------- 0 3.3 2.0 -1 18
+ 0.265 3 1 encap 230 ------- 0 3.3 2.0 -1 27
- 0.265 3 1 encap 230 ------- 0 3.3 2.0 -1 27
r 0.268727 3 1 encap 230 ------- 0 3.3 2.0 -1 21
+ 0.268727 1 2 encap 230 ------- 0 3.3 2.0 -1 21
- 0.268727 1 2 encap 230 ------- 0 3.3 2.0 -1 21
+ 0.26875 3 1 encap 230 ------- 0 3.3 2.0 -1 30
- 0.26875 3 1 encap 230 ------- 0 3.3 2.0 -1 30
r 0.272453 1 2 encap 230 ------- 0 3.3 2.0 -1 15
r 0.272477 3 1 encap 230 ------- 0 3.3 2.0 -1 24
+ 0.272477 1 2 encap 230 ------- 0 3.3 2.0 -1 24
- 0.272477 1 2 encap 230 ------- 0 3.3 2.0 -1 24
+ 0.2725 3 1 encap 230 ------- 0 3.3 2.0 -1 33
- 0.2725 3 1 encap 230 ------- 0 3.3 2.0 -1 33
r 0.276203 1 2 encap 230 ------- 0 3.3 2.0 -1 18
r 0.276227 3 1 encap 230 ------- 0 3.3 2.0 -1 27
+ 0.276227 1 2 encap 230 ------- 0 3.3 2.0 -1 27
- 0.276227 1 2 encap 230 ------- 0 3.3 2.0 -1 27
+ 0.27625 3 1 encap 230 ------- 0 3.3 2.0 -1 36
- 0.27625 3 1 encap 230 ------- 0 3.3 2.0 -1 36
r 0.279953 1 2 encap 230 ------- 0 3.3 2.0 -1 21
r 0.279977 3 1 encap 230 ------- 0 3.3 2.0 -1 30
+ 0.279977 1 2 encap 230 ------- 0 3.3 2.0 -1 30
- 0.279977 1 2 encap 230 ------- 0 3.3 2.0 -1 30
+ 0.28 3 1 encap 230 ------- 0 3.3 2.0 -1 39
- 0.28 3 1 encap 230 ------- 0 3.3 2.0 -1 39
r 0.283703 1 2 encap 230 ------- 0 3.3 2.0 -1 24
r 0.283727 3 1 encap 230 ------- 0 3.3 2.0 -1 33
+ 0.283727 1 2 encap 230 ------- 0 3.3 2.0 -1 33
- 0.283727 1 2 encap 230 ------- 0 3.3 2.0 -1 33
+ 0.28375 3 1 encap 230 ------- 0 3.3 2.0 -1 42
- 0.28375 3 1 encap 230 ------- 0 3.3 2.0 -1 42
r 0.287453 1 2 encap 230 ------- 0 3.3 2.0 -1 27
r 0.287477 3 1 encap 230 ------- 0 3.3 2.0 -1 36
+ 0.287477 1 2 encap 230 ------- 0 3.3 2.0 -1 36
- 0.287477 1 2 encap 230 ------- 0 3.3 2.0 -1 36
+ 0.2875 3 1 encap 230 ------- 0 3.3 2.0 -1 45
- 0.2875 3 1 encap 230 ------- 0 3.3 2.0 -1 45
r 0.291203 1 2 encap 230 ------- 0 3.3 2.0 -1 30
r 0.291227 3 1 encap 230 ------- 0 3.3 2.0 -1 39
+ 0.291227 1 2 encap 230 ------- 0 3.3 2.0 -1 39
- 0.291227 1 2 encap 230 ------- 0 3.3 2.0 -1 39
+ 0.29125 3 1 encap 230 ------- 0 3.3 2.0 -1 48
- 0.29125 3 1 encap 230 ------- 0 3.3 2.0 -1 48
r 0.294953 1 2 encap 230 ------- 0 3.3 2.0 -1 33
r 0.294977 3 1 encap 230 ------- 0 3.3 2.0 -1 42
+ 0.294977 1 2 encap 230 ------- 0 3.3 2.0 -1 42
- 0.294977 1 2 encap 230 ------- 0 3.3 2.0 -1 42
+ 0.295 3 1 encap 230 ------- 0 3.3 2.0 -1 51
- 0.295 3 1 encap 230 ------- 0 3.3 2.0 -1 51
r 0.298703 1 2 encap 230 ------- 0 3.3 2.0 -1 36
r 0.298727 3 1 encap 230 ------- 0 3.3 2.0 -1 45
+ 0.298727 1 2 encap 230 ------- 0 3.3 2.0 -1 45
- 0.298727 1 2 encap 230 ------- 0 3.3 2.0 -1 45
+ 0.29875 3 1 encap 230 ------- 0 3.3 2.0 -1 54
- 0.29875 3 1 encap 230 ------- 0 3.3 2.0 -1 54
v 0.3 eval {set sim_annotation {0.29999999999999999 1 join-group 1073741824}}
+ 0.30125 2 1 cbr 210 ------- 1 2.1 1073741824.0 27 55
- 0.30125 2 1 cbr 210 ------- 1 2.1 1073741824.0 27 55
r 0.302453 1 2 encap 230 ------- 0 3.3 2.0 -1 39
+ 0.302453 2 1 cbr 210 ------- 2 3.1 1073741824.0 8 38
- 0.302453 2 1 cbr 210 ------- 2 3.1 1073741824.0 8 38
r 0.302477 3 1 encap 230 ------- 0 3.3 2.0 -1 48
+ 0.302477 1 2 encap 230 ------- 0 3.3 2.0 -1 48
- 0.302477 1 2 encap 230 ------- 0 3.3 2.0 -1 48
+ 0.3025 3 1 encap 230 ------- 0 3.3 2.0 -1 57
- 0.3025 3 1 encap 230 ------- 0 3.3 2.0 -1 57
+ 0.305 2 1 cbr 210 ------- 1 2.1 1073741824.0 28 58
- 0.305 2 1 cbr 210 ------- 1 2.1 1073741824.0 28 58
r 0.306203 1 2 encap 230 ------- 0 3.3 2.0 -1 42
+ 0.306203 2 1 cbr 210 ------- 2 3.1 1073741824.0 9 41
- 0.306203 2 1 cbr 210 ------- 2 3.1 1073741824.0 9 41
r 0.306227 3 1 encap 230 ------- 0 3.3 2.0 -1 51
+ 0.306227 1 2 encap 230 ------- 0 3.3 2.0 -1 51
- 0.306227 1 2 encap 230 ------- 0 3.3 2.0 -1 51
+ 0.30625 3 1 encap 230 ------- 0 3.3 2.0 -1 60
- 0.30625 3 1 encap 230 ------- 0 3.3 2.0 -1 60
+ 0.30875 2 1 cbr 210 ------- 1 2.1 1073741824.0 29 61
- 0.30875 2 1 cbr 210 ------- 1 2.1 1073741824.0 29 61
r 0.309953 1 2 encap 230 ------- 0 3.3 2.0 -1 45
+ 0.309953 2 1 cbr 210 ------- 2 3.1 1073741824.0 10 44
- 0.309953 2 1 cbr 210 ------- 2 3.1 1073741824.0 10 44
r 0.309977 3 1 encap 230 ------- 0 3.3 2.0 -1 54
+ 0.309977 1 2 encap 230 ------- 0 3.3 2.0 -1 54
- 0.309977 1 2 encap 230 ------- 0 3.3 2.0 -1 54
+ 0.31 3 1 encap 230 ------- 0 3.3 2.0 -1 63
- 0.31 3 1 encap 230 ------- 0 3.3 2.0 -1 63
r 0.31237 2 1 cbr 210 ------- 1 2.1 1073741824.0 27 55
+ 0.3125 2 1 cbr 210 ------- 1 2.1 1073741824.0 30 64
- 0.3125 2 1 cbr 210 ------- 1 2.1 1073741824.0 30 64
r 0.313573 2 1 cbr 210 ------- 2 3.1 1073741824.0 8 38
r 0.313703 1 2 encap 230 ------- 0 3.3 2.0 -1 48
+ 0.313703 2 1 cbr 210 ------- 2 3.1 1073741824.0 11 47
- 0.313703 2 1 cbr 210 ------- 2 3.1 1073741824.0 11 47
r 0.313727 3 1 encap 230 ------- 0 3.3 2.0 -1 57
+ 0.313727 1 2 encap 230 ------- 0 3.3 2.0 -1 57
- 0.313727 1 2 encap 230 ------- 0 3.3 2.0 -1 57
+ 0.31375 3 1 encap 230 ------- 0 3.3 2.0 -1 66
- 0.31375 3 1 encap 230 ------- 0 3.3 2.0 -1 66
r 0.31612 2 1 cbr 210 ------- 1 2.1 1073741824.0 28 58
+ 0.31625 2 1 cbr 210 ------- 1 2.1 1073741824.0 31 67
- 0.31625 2 1 cbr 210 ------- 1 2.1 1073741824.0 31 67
r 0.317323 2 1 cbr 210 ------- 2 3.1 1073741824.0 9 41
r 0.317453 1 2 encap 230 ------- 0 3.3 2.0 -1 51
+ 0.317453 2 1 cbr 210 ------- 2 3.1 1073741824.0 12 50
- 0.317453 2 1 cbr 210 ------- 2 3.1 1073741824.0 12 50
r 0.317477 3 1 encap 230 ------- 0 3.3 2.0 -1 60
+ 0.317477 1 2 encap 230 ------- 0 3.3 2.0 -1 60
- 0.317477 1 2 encap 230 ------- 0 3.3 2.0 -1 60
+ 0.3175 3 1 encap 230 ------- 0 3.3 2.0 -1 69
- 0.3175 3 1 encap 230 ------- 0 3.3 2.0 -1 69
r 0.31987 2 1 cbr 210 ------- 1 2.1 1073741824.0 29 61
+ 0.32 2 1 cbr 210 ------- 1 2.1 1073741824.0 32 70
- 0.32 2 1 cbr 210 ------- 1 2.1 1073741824.0 32 70
r 0.321073 2 1 cbr 210 ------- 2 3.1 1073741824.0 10 44
r 0.321203 1 2 encap 230 ------- 0 3.3 2.0 -1 54
+ 0.321203 2 1 cbr 210 ------- 2 3.1 1073741824.0 13 53
- 0.321203 2 1 cbr 210 ------- 2 3.1 1073741824.0 13 53
r 0.321227 3 1 encap 230 ------- 0 3.3 2.0 -1 63
+ 0.321227 1 2 encap 230 ------- 0 3.3 2.0 -1 63
- 0.321227 1 2 encap 230 ------- 0 3.3 2.0 -1 63
+ 0.32125 3 1 encap 230 ------- 0 3.3 2.0 -1 72
- 0.32125 3 1 encap 230 ------- 0 3.3 2.0 -1 72
r 0.32362 2 1 cbr 210 ------- 1 2.1 1073741824.0 30 64
+ 0.32375 2 1 cbr 210 ------- 1 2.1 1073741824.0 33 73
- 0.32375 2 1 cbr 210 ------- 1 2.1 1073741824.0 33 73
r 0.324823 2 1 cbr 210 ------- 2 3.1 1073741824.0 11 47
r 0.324953 1 2 encap 230 ------- 0 3.3 2.0 -1 57
+ 0.324953 2 1 cbr 210 ------- 2 3.1 1073741824.0 14 56
- 0.324953 2 1 cbr 210 ------- 2 3.1 1073741824.0 14 56
r 0.324977 3 1 encap 230 ------- 0 3.3 2.0 -1 66
+ 0.324977 1 2 encap 230 ------- 0 3.3 2.0 -1 66
- 0.324977 1 2 encap 230 ------- 0 3.3 2.0 -1 66
+ 0.325 3 1 encap 230 ------- 0 3.3 2.0 -1 75
- 0.325 3 1 encap 230 ------- 0 3.3 2.0 -1 75
r 0.32737 2 1 cbr 210 ------- 1 2.1 1073741824.0 31 67
+ 0.3275 2 1 cbr 210 ------- 1 2.1 1073741824.0 34 76
- 0.3275 2 1 cbr 210 ------- 1 2.1 1073741824.0 34 76
r 0.328573 2 1 cbr 210 ------- 2 3.1 1073741824.0 12 50
r 0.328703 1 2 encap 230 ------- 0 3.3 2.0 -1 60
+ 0.328703 2 1 cbr 210 ------- 2 3.1 1073741824.0 15 59
- 0.328703 2 1 cbr 210 ------- 2 3.1 1073741824.0 15 59
r 0.328727 3 1 encap 230 ------- 0 3.3 2.0 -1 69
+ 0.328727 1 2 encap 230 ------- 0 3.3 2.0 -1 69
- 0.328727 1 2 encap 230 ------- 0 3.3 2.0 -1 69
+ 0.32875 3 1 encap 230 ------- 0 3.3 2.0 -1 78
- 0.32875 3 1 encap 230 ------- 0 3.3 2.0 -1 78
r 0.33112 2 1 cbr 210 ------- 1 2.1 1073741824.0 32 70
+ 0.33125 2 1 cbr 210 ------- 1 2.1 1073741824.0 35 79
- 0.33125 2 1 cbr 210 ------- 1 2.1 1073741824.0 35 79
r 0.332323 2 1 cbr 210 ------- 2 3.1 1073741824.0 13 53
r 0.332453 1 2 encap 230 ------- 0 3.3 2.0 -1 63
+ 0.332453 2 1 cbr 210 ------- 2 3.1 1073741824.0 16 62
- 0.332453 2 1 cbr 210 ------- 2 3.1 1073741824.0 16 62
r 0.332477 3 1 encap 230 ------- 0 3.3 2.0 -1 72
+ 0.332477 1 2 encap 230 ------- 0 3.3 2.0 -1 72
- 0.332477 1 2 encap 230 ------- 0 3.3 2.0 -1 72
+ 0.3325 3 1 encap 230 ------- 0 3.3 2.0 -1 81
- 0.3325 3 1 encap 230 ------- 0 3.3 2.0 -1 81
r 0.33487 2 1 cbr 210 ------- 1 2.1 1073741824.0 33 73
+ 0.335 2 1 cbr 210 ------- 1 2.1 1073741824.0 36 82
- 0.335 2 1 cbr 210 ------- 1 2.1 1073741824.0 36 82
r 0.336073 2 1 cbr 210 ------- 2 3.1 1073741824.0 14 56
r 0.336203 1 2 encap 230 ------- 0 3.3 2.0 -1 66
+ 0.336203 2 1 cbr 210 ------- 2 3.1 1073741824.0 17 65
- 0.336203 2 1 cbr 210 ------- 2 3.1 1073741824.0 17 65
r 0.336227 3 1 encap 230 ------- 0 3.3 2.0 -1 75
+ 0.336227 1 2 encap 230 ------- 0 3.3 2.0 -1 75
- 0.336227 1 2 encap 230 ------- 0 3.3 2.0 -1 75
+ 0.33625 3 1 encap 230 ------- 0 3.3 2.0 -1 84
- 0.33625 3 1 encap 230 ------- 0 3.3 2.0 -1 84
r 0.33862 2 1 cbr 210 ------- 1 2.1 1073741824.0 34 76
+ 0.33875 2 1 cbr 210 ------- 1 2.1 1073741824.0 37 85
- 0.33875 2 1 cbr 210 ------- 1 2.1 1073741824.0 37 85
r 0.339823 2 1 cbr 210 ------- 2 3.1 1073741824.0 15 59
r 0.339953 1 2 encap 230 ------- 0 3.3 2.0 -1 69
+ 0.339953 2 1 cbr 210 ------- 2 3.1 1073741824.0 18 68
- 0.339953 2 1 cbr 210 ------- 2 3.1 1073741824.0 18 68
r 0.339977 3 1 encap 230 ------- 0 3.3 2.0 -1 78
+ 0.339977 1 2 encap 230 ------- 0 3.3 2.0 -1 78
- 0.339977 1 2 encap 230 ------- 0 3.3 2.0 -1 78
+ 0.34 3 1 encap 230 ------- 0 3.3 2.0 -1 87
- 0.34 3 1 encap 230 ------- 0 3.3 2.0 -1 87
r 0.34237 2 1 cbr 210 ------- 1 2.1 1073741824.0 35 79
+ 0.3425 2 1 cbr 210 ------- 1 2.1 1073741824.0 38 88
- 0.3425 2 1 cbr 210 ------- 1 2.1 1073741824.0 38 88
r 0.343573 2 1 cbr 210 ------- 2 3.1 1073741824.0 16 62
r 0.343703 1 2 encap 230 ------- 0 3.3 2.0 -1 72
+ 0.343703 2 1 cbr 210 ------- 2 3.1 1073741824.0 19 71
- 0.343703 2 1 cbr 210 ------- 2 3.1 1073741824.0 19 71
r 0.343727 3 1 encap 230 ------- 0 3.3 2.0 -1 81
+ 0.343727 1 2 encap 230 ------- 0 3.3 2.0 -1 81
- 0.343727 1 2 encap 230 ------- 0 3.3 2.0 -1 81
+ 0.34375 3 1 encap 230 ------- 0 3.3 2.0 -1 90
- 0.34375 3 1 encap 230 ------- 0 3.3 2.0 -1 90
r 0.34612 2 1 cbr 210 ------- 1 2.1 1073741824.0 36 82
+ 0.34625 2 1 cbr 210 ------- 1 2.1 1073741824.0 39 91
- 0.34625 2 1 cbr 210 ------- 1 2.1 1073741824.0 39 91
r 0.347323 2 1 cbr 210 ------- 2 3.1 1073741824.0 17 65
r 0.347453 1 2 encap 230 ------- 0 3.3 2.0 -1 75
+ 0.347453 2 1 cbr 210 ------- 2 3.1 1073741824.0 20 74
- 0.347453 2 1 cbr 210 ------- 2 3.1 1073741824.0 20 74
r 0.347477 3 1 encap 230 ------- 0 3.3 2.0 -1 84
+ 0.347477 1 2 encap 230 ------- 0 3.3 2.0 -1 84
- 0.347477 1 2 encap 230 ------- 0 3.3 2.0 -1 84
+ 0.3475 3 1 encap 230 ------- 0 3.3 2.0 -1 93
- 0.3475 3 1 encap 230 ------- 0 3.3 2.0 -1 93
r 0.34987 2 1 cbr 210 ------- 1 2.1 1073741824.0 37 85
+ 0.35 2 1 cbr 210 ------- 1 2.1 1073741824.0 40 94
- 0.35 2 1 cbr 210 ------- 1 2.1 1073741824.0 40 94
r 0.351073 2 1 cbr 210 ------- 2 3.1 1073741824.0 18 68
r 0.351203 1 2 encap 230 ------- 0 3.3 2.0 -1 78
+ 0.351203 2 1 cbr 210 ------- 2 3.1 1073741824.0 21 77
- 0.351203 2 1 cbr 210 ------- 2 3.1 1073741824.0 21 77
r 0.351227 3 1 encap 230 ------- 0 3.3 2.0 -1 87
+ 0.351227 1 2 encap 230 ------- 0 3.3 2.0 -1 87
- 0.351227 1 2 encap 230 ------- 0 3.3 2.0 -1 87
+ 0.35125 3 1 encap 230 ------- 0 3.3 2.0 -1 96
- 0.35125 3 1 encap 230 ------- 0 3.3 2.0 -1 96
r 0.35362 2 1 cbr 210 ------- 1 2.1 1073741824.0 38 88
+ 0.35375 2 1 cbr 210 ------- 1 2.1 1073741824.0 41 97
- 0.35375 2 1 cbr 210 ------- 1 2.1 1073741824.0 41 97
r 0.354823 2 1 cbr 210 ------- 2 3.1 1073741824.0 19 71
r 0.354953 1 2 encap 230 ------- 0 3.3 2.0 -1 81
+ 0.354953 2 1 cbr 210 ------- 2 3.1 1073741824.0 22 80
- 0.354953 2 1 cbr 210 ------- 2 3.1 1073741824.0 22 80
r 0.354977 3 1 encap 230 ------- 0 3.3 2.0 -1 90
+ 0.354977 1 2 encap 230 ------- 0 3.3 2.0 -1 90
- 0.354977 1 2 encap 230 ------- 0 3.3 2.0 -1 90
+ 0.355 3 1 encap 230 ------- 0 3.3 2.0 -1 99
- 0.355 3 1 encap 230 ------- 0 3.3 2.0 -1 99
r 0.35737 2 1 cbr 210 ------- 1 2.1 1073741824.0 39 91
+ 0.3575 2 1 cbr 210 ------- 1 2.1 1073741824.0 42 100
- 0.3575 2 1 cbr 210 ------- 1 2.1 1073741824.0 42 100
r 0.358573 2 1 cbr 210 ------- 2 3.1 1073741824.0 20 74
r 0.358703 1 2 encap 230 ------- 0 3.3 2.0 -1 84
+ 0.358703 2 1 cbr 210 ------- 2 3.1 1073741824.0 23 83
- 0.358703 2 1 cbr 210 ------- 2 3.1 1073741824.0 23 83
r 0.358727 3 1 encap 230 ------- 0 3.3 2.0 -1 93
+ 0.358727 1 2 encap 230 ------- 0 3.3 2.0 -1 93
- 0.358727 1 2 encap 230 ------- 0 3.3 2.0 -1 93
+ 0.35875 3 1 encap 230 ------- 0 3.3 2.0 -1 102
- 0.35875 3 1 encap 230 ------- 0 3.3 2.0 -1 102
r 0.36112 2 1 cbr 210 ------- 1 2.1 1073741824.0 40 94
+ 0.36125 2 1 cbr 210 ------- 1 2.1 1073741824.0 43 103
- 0.36125 2 1 cbr 210 ------- 1 2.1 1073741824.0 43 103
r 0.362323 2 1 cbr 210 ------- 2 3.1 1073741824.0 21 77
r 0.362453 1 2 encap 230 ------- 0 3.3 2.0 -1 87
+ 0.362453 2 1 cbr 210 ------- 2 3.1 1073741824.0 24 86
- 0.362453 2 1 cbr 210 ------- 2 3.1 1073741824.0 24 86
r 0.362477 3 1 encap 230 ------- 0 3.3 2.0 -1 96
+ 0.362477 1 2 encap 230 ------- 0 3.3 2.0 -1 96
- 0.362477 1 2 encap 230 ------- 0 3.3 2.0 -1 96
+ 0.3625 3 1 encap 230 ------- 0 3.3 2.0 -1 105
- 0.3625 3 1 encap 230 ------- 0 3.3 2.0 -1 105
r 0.36487 2 1 cbr 210 ------- 1 2.1 1073741824.0 41 97
+ 0.365 2 1 cbr 210 ------- 1 2.1 1073741824.0 44 106
- 0.365 2 1 cbr 210 ------- 1 2.1 1073741824.0 44 106
r 0.366073 2 1 cbr 210 ------- 2 3.1 1073741824.0 22 80
r 0.366203 1 2 encap 230 ------- 0 3.3 2.0 -1 90
+ 0.366203 2 1 cbr 210 ------- 2 3.1 1073741824.0 25 89
- 0.366203 2 1 cbr 210 ------- 2 3.1 1073741824.0 25 89
r 0.366227 3 1 encap 230 ------- 0 3.3 2.0 -1 99
+ 0.366227 1 2 encap 230 ------- 0 3.3 2.0 -1 99
- 0.366227 1 2 encap 230 ------- 0 3.3 2.0 -1 99
+ 0.36625 3 1 encap 230 ------- 0 3.3 2.0 -1 108
- 0.36625 3 1 encap 230 ------- 0 3.3 2.0 -1 108
r 0.36862 2 1 cbr 210 ------- 1 2.1 1073741824.0 42 100
+ 0.36875 2 1 cbr 210 ------- 1 2.1 1073741824.0 45 109
- 0.36875 2 1 cbr 210 ------- 1 2.1 1073741824.0 45 109
r 0.369823 2 1 cbr 210 ------- 2 3.1 1073741824.0 23 83
r 0.369953 1 2 encap 230 ------- 0 3.3 2.0 -1 93
+ 0.369953 2 1 cbr 210 ------- 2 3.1 1073741824.0 26 92
- 0.369953 2 1 cbr 210 ------- 2 3.1 1073741824.0 26 92
r 0.369977 3 1 encap 230 ------- 0 3.3 2.0 -1 102
+ 0.369977 1 2 encap 230 ------- 0 3.3 2.0 -1 102
- 0.369977 1 2 encap 230 ------- 0 3.3 2.0 -1 102
+ 0.37 3 1 encap 230 ------- 0 3.3 2.0 -1 111
- 0.37 3 1 encap 230 ------- 0 3.3 2.0 -1 111
r 0.37237 2 1 cbr 210 ------- 1 2.1 1073741824.0 43 103
+ 0.3725 2 1 cbr 210 ------- 1 2.1 1073741824.0 46 112
- 0.3725 2 1 cbr 210 ------- 1 2.1 1073741824.0 46 112
r 0.373573 2 1 cbr 210 ------- 2 3.1 1073741824.0 24 86
r 0.373703 1 2 encap 230 ------- 0 3.3 2.0 -1 96
+ 0.373703 2 1 cbr 210 ------- 2 3.1 1073741824.0 27 95
- 0.373703 2 1 cbr 210 ------- 2 3.1 1073741824.0 27 95
r 0.373727 3 1 encap 230 ------- 0 3.3 2.0 -1 105
+ 0.373727 1 2 encap 230 ------- 0 3.3 2.0 -1 105
- 0.373727 1 2 encap 230 ------- 0 3.3 2.0 -1 105
+ 0.37375 3 1 encap 230 ------- 0 3.3 2.0 -1 114
- 0.37375 3 1 encap 230 ------- 0 3.3 2.0 -1 114
r 0.37612 2 1 cbr 210 ------- 1 2.1 1073741824.0 44 106
+ 0.37625 2 1 cbr 210 ------- 1 2.1 1073741824.0 47 115
- 0.37625 2 1 cbr 210 ------- 1 2.1 1073741824.0 47 115
r 0.377323 2 1 cbr 210 ------- 2 3.1 1073741824.0 25 89
r 0.377453 1 2 encap 230 ------- 0 3.3 2.0 -1 99
+ 0.377453 2 1 cbr 210 ------- 2 3.1 1073741824.0 28 98
- 0.377453 2 1 cbr 210 ------- 2 3.1 1073741824.0 28 98
r 0.377477 3 1 encap 230 ------- 0 3.3 2.0 -1 108
+ 0.377477 1 2 encap 230 ------- 0 3.3 2.0 -1 108
- 0.377477 1 2 encap 230 ------- 0 3.3 2.0 -1 108
+ 0.3775 3 1 encap 230 ------- 0 3.3 2.0 -1 117
- 0.3775 3 1 encap 230 ------- 0 3.3 2.0 -1 117
r 0.37987 2 1 cbr 210 ------- 1 2.1 1073741824.0 45 109
+ 0.38 2 1 cbr 210 ------- 1 2.1 1073741824.0 48 118
- 0.38 2 1 cbr 210 ------- 1 2.1 1073741824.0 48 118
r 0.381073 2 1 cbr 210 ------- 2 3.1 1073741824.0 26 92
r 0.381203 1 2 encap 230 ------- 0 3.3 2.0 -1 102
+ 0.381203 2 1 cbr 210 ------- 2 3.1 1073741824.0 29 101
- 0.381203 2 1 cbr 210 ------- 2 3.1 1073741824.0 29 101
r 0.381227 3 1 encap 230 ------- 0 3.3 2.0 -1 111
+ 0.381227 1 2 encap 230 ------- 0 3.3 2.0 -1 111
- 0.381227 1 2 encap 230 ------- 0 3.3 2.0 -1 111
+ 0.38125 3 1 encap 230 ------- 0 3.3 2.0 -1 120
- 0.38125 3 1 encap 230 ------- 0 3.3 2.0 -1 120
r 0.38362 2 1 cbr 210 ------- 1 2.1 1073741824.0 46 112
+ 0.38375 2 1 cbr 210 ------- 1 2.1 1073741824.0 49 121
- 0.38375 2 1 cbr 210 ------- 1 2.1 1073741824.0 49 121
r 0.384823 2 1 cbr 210 ------- 2 3.1 1073741824.0 27 95
r 0.384953 1 2 encap 230 ------- 0 3.3 2.0 -1 105
+ 0.384953 2 1 cbr 210 ------- 2 3.1 1073741824.0 30 104
- 0.384953 2 1 cbr 210 ------- 2 3.1 1073741824.0 30 104
r 0.384977 3 1 encap 230 ------- 0 3.3 2.0 -1 114
+ 0.384977 1 2 encap 230 ------- 0 3.3 2.0 -1 114
- 0.384977 1 2 encap 230 ------- 0 3.3 2.0 -1 114
+ 0.385 3 1 encap 230 ------- 0 3.3 2.0 -1 123
- 0.385 3 1 encap 230 ------- 0 3.3 2.0 -1 123
r 0.38737 2 1 cbr 210 ------- 1 2.1 1073741824.0 47 115
+ 0.3875 2 1 cbr 210 ------- 1 2.1 1073741824.0 50 124
- 0.3875 2 1 cbr 210 ------- 1 2.1 1073741824.0 50 124
r 0.388573 2 1 cbr 210 ------- 2 3.1 1073741824.0 28 98
r 0.388703 1 2 encap 230 ------- 0 3.3 2.0 -1 108
+ 0.388703 2 1 cbr 210 ------- 2 3.1 1073741824.0 31 107
- 0.388703 2 1 cbr 210 ------- 2 3.1 1073741824.0 31 107
r 0.388727 3 1 encap 230 ------- 0 3.3 2.0 -1 117
+ 0.388727 1 2 encap 230 ------- 0 3.3 2.0 -1 117
- 0.388727 1 2 encap 230 ------- 0 3.3 2.0 -1 117
+ 0.38875 3 1 encap 230 ------- 0 3.3 2.0 -1 126
- 0.38875 3 1 encap 230 ------- 0 3.3 2.0 -1 126
r 0.39112 2 1 cbr 210 ------- 1 2.1 1073741824.0 48 118
+ 0.39125 2 1 cbr 210 ------- 1 2.1 1073741824.0 51 127
- 0.39125 2 1 cbr 210 ------- 1 2.1 1073741824.0 51 127
r 0.392323 2 1 cbr 210 ------- 2 3.1 1073741824.0 29 101
r 0.392453 1 2 encap 230 ------- 0 3.3 2.0 -1 111
+ 0.392453 2 1 cbr 210 ------- 2 3.1 1073741824.0 32 110
- 0.392453 2 1 cbr 210 ------- 2 3.1 1073741824.0 32 110
r 0.392477 3 1 encap 230 ------- 0 3.3 2.0 -1 120
+ 0.392477 1 2 encap 230 ------- 0 3.3 2.0 -1 120
- 0.392477 1 2 encap 230 ------- 0 3.3 2.0 -1 120
+ 0.3925 3 1 encap 230 ------- 0 3.3 2.0 -1 129
- 0.3925 3 1 encap 230 ------- 0 3.3 2.0 -1 129
r 0.39487 2 1 cbr 210 ------- 1 2.1 1073741824.0 49 121
+ 0.395 2 1 cbr 210 ------- 1 2.1 1073741824.0 52 130
- 0.395 2 1 cbr 210 ------- 1 2.1 1073741824.0 52 130
r 0.396073 2 1 cbr 210 ------- 2 3.1 1073741824.0 30 104
r 0.396203 1 2 encap 230 ------- 0 3.3 2.0 -1 114
+ 0.396203 2 1 cbr 210 ------- 2 3.1 1073741824.0 33 113
- 0.396203 2 1 cbr 210 ------- 2 3.1 1073741824.0 33 113
r 0.396227 3 1 encap 230 ------- 0 3.3 2.0 -1 123
+ 0.396227 1 2 encap 230 ------- 0 3.3 2.0 -1 123
- 0.396227 1 2 encap 230 ------- 0 3.3 2.0 -1 123
+ 0.39625 3 1 encap 230 ------- 0 3.3 2.0 -1 132
- 0.39625 3 1 encap 230 ------- 0 3.3 2.0 -1 132
r 0.39862 2 1 cbr 210 ------- 1 2.1 1073741824.0 50 124
+ 0.39875 2 1 cbr 210 ------- 1 2.1 1073741824.0 53 133
- 0.39875 2 1 cbr 210 ------- 1 2.1 1073741824.0 53 133
r 0.399823 2 1 cbr 210 ------- 2 3.1 1073741824.0 31 107
r 0.399953 1 2 encap 230 ------- 0 3.3 2.0 -1 117
+ 0.399953 2 1 cbr 210 ------- 2 3.1 1073741824.0 34 116
- 0.399953 2 1 cbr 210 ------- 2 3.1 1073741824.0 34 116
r 0.399977 3 1 encap 230 ------- 0 3.3 2.0 -1 126
+ 0.399977 1 2 encap 230 ------- 0 3.3 2.0 -1 126
- 0.399977 1 2 encap 230 ------- 0 3.3 2.0 -1 126
+ 0.4 3 1 encap 230 ------- 0 3.3 2.0 -1 135
- 0.4 3 1 encap 230 ------- 0 3.3 2.0 -1 135
v 0.4 eval {set sim_annotation {0.40000000000000002 0 join-group 1073741824}}
r 0.40237 2 1 cbr 210 ------- 1 2.1 1073741824.0 51 127
+ 0.40237 1 0 cbr 210 ------- 1 2.1 1073741824.0 51 127
- 0.40237 1 0 cbr 210 ------- 1 2.1 1073741824.0 51 127
+ 0.4025 2 1 cbr 210 ------- 1 2.1 1073741824.0 54 136
- 0.4025 2 1 cbr 210 ------- 1 2.1 1073741824.0 54 136
r 0.403573 2 1 cbr 210 ------- 2 3.1 1073741824.0 32 110
+ 0.403573 1 0 cbr 210 ------- 2 3.1 1073741824.0 32 110
- 0.403573 1 0 cbr 210 ------- 2 3.1 1073741824.0 32 110
r 0.403703 1 2 encap 230 ------- 0 3.3 2.0 -1 120
+ 0.403703 2 1 cbr 210 ------- 2 3.1 1073741824.0 35 119
- 0.403703 2 1 cbr 210 ------- 2 3.1 1073741824.0 35 119
r 0.403727 3 1 encap 230 ------- 0 3.3 2.0 -1 129
+ 0.403727 1 2 encap 230 ------- 0 3.3 2.0 -1 129
- 0.403727 1 2 encap 230 ------- 0 3.3 2.0 -1 129
+ 0.40375 3 1 encap 230 ------- 0 3.3 2.0 -1 138
- 0.40375 3 1 encap 230 ------- 0 3.3 2.0 -1 138
r 0.40612 2 1 cbr 210 ------- 1 2.1 1073741824.0 52 130
+ 0.40612 1 0 cbr 210 ------- 1 2.1 1073741824.0 52 130
- 0.40612 1 0 cbr 210 ------- 1 2.1 1073741824.0 52 130
+ 0.40625 2 1 cbr 210 ------- 1 2.1 1073741824.0 55 139
- 0.40625 2 1 cbr 210 ------- 1 2.1 1073741824.0 55 139
r 0.407323 2 1 cbr 210 ------- 2 3.1 1073741824.0 33 113
+ 0.407323 1 0 cbr 210 ------- 2 3.1 1073741824.0 33 113
- 0.407323 1 0 cbr 210 ------- 2 3.1 1073741824.0 33 113
r 0.407453 1 2 encap 230 ------- 0 3.3 2.0 -1 123
+ 0.407453 2 1 cbr 210 ------- 2 3.1 1073741824.0 36 122
- 0.407453 2 1 cbr 210 ------- 2 3.1 1073741824.0 36 122
r 0.407477 3 1 encap 230 ------- 0 3.3 2.0 -1 132
+ 0.407477 1 2 encap 230 ------- 0 3.3 2.0 -1 132
- 0.407477 1 2 encap 230 ------- 0 3.3 2.0 -1 132
+ 0.4075 3 1 encap 230 ------- 0 3.3 2.0 -1 141
- 0.4075 3 1 encap 230 ------- 0 3.3 2.0 -1 141
r 0.40987 2 1 cbr 210 ------- 1 2.1 1073741824.0 53 133
+ 0.40987 1 0 cbr 210 ------- 1 2.1 1073741824.0 53 133
- 0.40987 1 0 cbr 210 ------- 1 2.1 1073741824.0 53 133
+ 0.41 2 1 cbr 210 ------- 1 2.1 1073741824.0 56 142
- 0.41 2 1 cbr 210 ------- 1 2.1 1073741824.0 56 142
r 0.411073 2 1 cbr 210 ------- 2 3.1 1073741824.0 34 116
+ 0.411073 1 0 cbr 210 ------- 2 3.1 1073741824.0 34 116
- 0.411073 1 0 cbr 210 ------- 2 3.1 1073741824.0 34 116
r 0.411203 1 2 encap 230 ------- 0 3.3 2.0 -1 126
+ 0.411203 2 1 cbr 210 ------- 2 3.1 1073741824.0 37 125
- 0.411203 2 1 cbr 210 ------- 2 3.1 1073741824.0 37 125
r 0.411227 3 1 encap 230 ------- 0 3.3 2.0 -1 135
+ 0.411227 1 2 encap 230 ------- 0 3.3 2.0 -1 135
- 0.411227 1 2 encap 230 ------- 0 3.3 2.0 -1 135
+ 0.41125 3 1 encap 230 ------- 0 3.3 2.0 -1 144
- 0.41125 3 1 encap 230 ------- 0 3.3 2.0 -1 144
r 0.41349 1 0 cbr 210 ------- 1 2.1 1073741824.0 51 127
r 0.41362 2 1 cbr 210 ------- 1 2.1 1073741824.0 54 136
+ 0.41362 1 0 cbr 210 ------- 1 2.1 1073741824.0 54 136
- 0.41362 1 0 cbr 210 ------- 1 2.1 1073741824.0 54 136
+ 0.41375 2 1 cbr 210 ------- 1 2.1 1073741824.0 57 145
- 0.41375 2 1 cbr 210 ------- 1 2.1 1073741824.0 57 145
r 0.414693 1 0 cbr 210 ------- 2 3.1 1073741824.0 32 110
r 0.414823 2 1 cbr 210 ------- 2 3.1 1073741824.0 35 119
+ 0.414823 1 0 cbr 210 ------- 2 3.1 1073741824.0 35 119
- 0.414823 1 0 cbr 210 ------- 2 3.1 1073741824.0 35 119
r 0.414953 1 2 encap 230 ------- 0 3.3 2.0 -1 129
+ 0.414953 2 1 cbr 210 ------- 2 3.1 1073741824.0 38 128
- 0.414953 2 1 cbr 210 ------- 2 3.1 1073741824.0 38 128
r 0.414977 3 1 encap 230 ------- 0 3.3 2.0 -1 138
+ 0.414977 1 2 encap 230 ------- 0 3.3 2.0 -1 138
- 0.414977 1 2 encap 230 ------- 0 3.3 2.0 -1 138
+ 0.415 3 1 encap 230 ------- 0 3.3 2.0 -1 147
- 0.415 3 1 encap 230 ------- 0 3.3 2.0 -1 147
r 0.41724 1 0 cbr 210 ------- 1 2.1 1073741824.0 52 130
r 0.41737 2 1 cbr 210 ------- 1 2.1 1073741824.0 55 139
+ 0.41737 1 0 cbr 210 ------- 1 2.1 1073741824.0 55 139
- 0.41737 1 0 cbr 210 ------- 1 2.1 1073741824.0 55 139
+ 0.4175 2 1 cbr 210 ------- 1 2.1 1073741824.0 58 148
- 0.4175 2 1 cbr 210 ------- 1 2.1 1073741824.0 58 148
r 0.418443 1 0 cbr 210 ------- 2 3.1 1073741824.0 33 113
r 0.418573 2 1 cbr 210 ------- 2 3.1 1073741824.0 36 122
+ 0.418573 1 0 cbr 210 ------- 2 3.1 1073741824.0 36 122
- 0.418573 1 0 cbr 210 ------- 2 3.1 1073741824.0 36 122
r 0.418703 1 2 encap 230 ------- 0 3.3 2.0 -1 132
+ 0.418703 2 1 cbr 210 ------- 2 3.1 1073741824.0 39 131
- 0.418703 2 1 cbr 210 ------- 2 3.1 1073741824.0 39 131
r 0.418727 3 1 encap 230 ------- 0 3.3 2.0 -1 141
+ 0.418727 1 2 encap 230 ------- 0 3.3 2.0 -1 141
- 0.418727 1 2 encap 230 ------- 0 3.3 2.0 -1 141
+ 0.41875 3 1 encap 230 ------- 0 3.3 2.0 -1 150
- 0.41875 3 1 encap 230 ------- 0 3.3 2.0 -1 150
r 0.42099 1 0 cbr 210 ------- 1 2.1 1073741824.0 53 133
r 0.42112 2 1 cbr 210 ------- 1 2.1 1073741824.0 56 142
+ 0.42112 1 0 cbr 210 ------- 1 2.1 1073741824.0 56 142
- 0.42112 1 0 cbr 210 ------- 1 2.1 1073741824.0 56 142
+ 0.42125 2 1 cbr 210 ------- 1 2.1 1073741824.0 59 151
- 0.42125 2 1 cbr 210 ------- 1 2.1 1073741824.0 59 151
r 0.422193 1 0 cbr 210 ------- 2 3.1 1073741824.0 34 116
r 0.422323 2 1 cbr 210 ------- 2 3.1 1073741824.0 37 125
+ 0.422323 1 0 cbr 210 ------- 2 3.1 1073741824.0 37 125
- 0.422323 1 0 cbr 210 ------- 2 3.1 1073741824.0 37 125
r 0.422453 1 2 encap 230 ------- 0 3.3 2.0 -1 135
+ 0.422453 2 1 cbr 210 ------- 2 3.1 1073741824.0 40 134
- 0.422453 2 1 cbr 210 ------- 2 3.1 1073741824.0 40 134
r 0.422477 3 1 encap 230 ------- 0 3.3 2.0 -1 144
+ 0.422477 1 2 encap 230 ------- 0 3.3 2.0 -1 144
- 0.422477 1 2 encap 230 ------- 0 3.3 2.0 -1 144
+ 0.4225 3 1 encap 230 ------- 0 3.3 2.0 -1 153
- 0.4225 3 1 encap 230 ------- 0 3.3 2.0 -1 153
r 0.42474 1 0 cbr 210 ------- 1 2.1 1073741824.0 54 136
r 0.42487 2 1 cbr 210 ------- 1 2.1 1073741824.0 57 145
+ 0.42487 1 0 cbr 210 ------- 1 2.1 1073741824.0 57 145
- 0.42487 1 0 cbr 210 ------- 1 2.1 1073741824.0 57 145
+ 0.425 2 1 cbr 210 ------- 1 2.1 1073741824.0 60 154
- 0.425 2 1 cbr 210 ------- 1 2.1 1073741824.0 60 154
r 0.425943 1 0 cbr 210 ------- 2 3.1 1073741824.0 35 119
r 0.426073 2 1 cbr 210 ------- 2 3.1 1073741824.0 38 128
+ 0.426073 1 0 cbr 210 ------- 2 3.1 1073741824.0 38 128
- 0.426073 1 0 cbr 210 ------- 2 3.1 1073741824.0 38 128
r 0.426203 1 2 encap 230 ------- 0 3.3 2.0 -1 138
+ 0.426203 2 1 cbr 210 ------- 2 3.1 1073741824.0 41 137
- 0.426203 2 1 cbr 210 ------- 2 3.1 1073741824.0 41 137
r 0.426227 3 1 encap 230 ------- 0 3.3 2.0 -1 147
+ 0.426227 1 2 encap 230 ------- 0 3.3 2.0 -1 147
- 0.426227 1 2 encap 230 ------- 0 3.3 2.0 -1 147
+ 0.42625 3 1 encap 230 ------- 0 3.3 2.0 -1 156
- 0.42625 3 1 encap 230 ------- 0 3.3 2.0 -1 156
r 0.42849 1 0 cbr 210 ------- 1 2.1 1073741824.0 55 139
r 0.42862 2 1 cbr 210 ------- 1 2.1 1073741824.0 58 148
+ 0.42862 1 0 cbr 210 ------- 1 2.1 1073741824.0 58 148
- 0.42862 1 0 cbr 210 ------- 1 2.1 1073741824.0 58 148
+ 0.42875 2 1 cbr 210 ------- 1 2.1 1073741824.0 61 157
- 0.42875 2 1 cbr 210 ------- 1 2.1 1073741824.0 61 157
r 0.429693 1 0 cbr 210 ------- 2 3.1 1073741824.0 36 122
r 0.429823 2 1 cbr 210 ------- 2 3.1 1073741824.0 39 131
+ 0.429823 1 0 cbr 210 ------- 2 3.1 1073741824.0 39 131
- 0.429823 1 0 cbr 210 ------- 2 3.1 1073741824.0 39 131
r 0.429953 1 2 encap 230 ------- 0 3.3 2.0 -1 141
+ 0.429953 2 1 cbr 210 ------- 2 3.1 1073741824.0 42 140
- 0.429953 2 1 cbr 210 ------- 2 3.1 1073741824.0 42 140
r 0.429977 3 1 encap 230 ------- 0 3.3 2.0 -1 150
+ 0.429977 1 2 encap 230 ------- 0 3.3 2.0 -1 150
- 0.429977 1 2 encap 230 ------- 0 3.3 2.0 -1 150
+ 0.43 3 1 encap 230 ------- 0 3.3 2.0 -1 159
- 0.43 3 1 encap 230 ------- 0 3.3 2.0 -1 159
r 0.43224 1 0 cbr 210 ------- 1 2.1 1073741824.0 56 142
r 0.43237 2 1 cbr 210 ------- 1 2.1 1073741824.0 59 151
+ 0.43237 1 0 cbr 210 ------- 1 2.1 1073741824.0 59 151
- 0.43237 1 0 cbr 210 ------- 1 2.1 1073741824.0 59 151
+ 0.4325 2 1 cbr 210 ------- 1 2.1 1073741824.0 62 160
- 0.4325 2 1 cbr 210 ------- 1 2.1 1073741824.0 62 160
r 0.433443 1 0 cbr 210 ------- 2 3.1 1073741824.0 37 125
r 0.433573 2 1 cbr 210 ------- 2 3.1 1073741824.0 40 134
+ 0.433573 1 0 cbr 210 ------- 2 3.1 1073741824.0 40 134
- 0.433573 1 0 cbr 210 ------- 2 3.1 1073741824.0 40 134
r 0.433703 1 2 encap 230 ------- 0 3.3 2.0 -1 144
+ 0.433703 2 1 cbr 210 ------- 2 3.1 1073741824.0 43 143
- 0.433703 2 1 cbr 210 ------- 2 3.1 1073741824.0 43 143
r 0.433727 3 1 encap 230 ------- 0 3.3 2.0 -1 153
+ 0.433727 1 2 encap 230 ------- 0 3.3 2.0 -1 153
- 0.433727 1 2 encap 230 ------- 0 3.3 2.0 -1 153
+ 0.43375 3 1 encap 230 ------- 0 3.3 2.0 -1 162
- 0.43375 3 1 encap 230 ------- 0 3.3 2.0 -1 162
r 0.43599 1 0 cbr 210 ------- 1 2.1 1073741824.0 57 145
r 0.43612 2 1 cbr 210 ------- 1 2.1 1073741824.0 60 154
+ 0.43612 1 0 cbr 210 ------- 1 2.1 1073741824.0 60 154
- 0.43612 1 0 cbr 210 ------- 1 2.1 1073741824.0 60 154
+ 0.43625 2 1 cbr 210 ------- 1 2.1 1073741824.0 63 163
- 0.43625 2 1 cbr 210 ------- 1 2.1 1073741824.0 63 163
r 0.437193 1 0 cbr 210 ------- 2 3.1 1073741824.0 38 128
r 0.437323 2 1 cbr 210 ------- 2 3.1 1073741824.0 41 137
+ 0.437323 1 0 cbr 210 ------- 2 3.1 1073741824.0 41 137
- 0.437323 1 0 cbr 210 ------- 2 3.1 1073741824.0 41 137
r 0.437453 1 2 encap 230 ------- 0 3.3 2.0 -1 147
+ 0.437453 2 1 cbr 210 ------- 2 3.1 1073741824.0 44 146
- 0.437453 2 1 cbr 210 ------- 2 3.1 1073741824.0 44 146
r 0.437477 3 1 encap 230 ------- 0 3.3 2.0 -1 156
+ 0.437477 1 2 encap 230 ------- 0 3.3 2.0 -1 156
- 0.437477 1 2 encap 230 ------- 0 3.3 2.0 -1 156
+ 0.4375 3 1 encap 230 ------- 0 3.3 2.0 -1 165
- 0.4375 3 1 encap 230 ------- 0 3.3 2.0 -1 165
r 0.43974 1 0 cbr 210 ------- 1 2.1 1073741824.0 58 148
r 0.43987 2 1 cbr 210 ------- 1 2.1 1073741824.0 61 157
+ 0.43987 1 0 cbr 210 ------- 1 2.1 1073741824.0 61 157
- 0.43987 1 0 cbr 210 ------- 1 2.1 1073741824.0 61 157
+ 0.44 2 1 cbr 210 ------- 1 2.1 1073741824.0 64 166
- 0.44 2 1 cbr 210 ------- 1 2.1 1073741824.0 64 166
r 0.440943 1 0 cbr 210 ------- 2 3.1 1073741824.0 39 131
r 0.441073 2 1 cbr 210 ------- 2 3.1 1073741824.0 42 140
+ 0.441073 1 0 cbr 210 ------- 2 3.1 1073741824.0 42 140
- 0.441073 1 0 cbr 210 ------- 2 3.1 1073741824.0 42 140