v 0.3 eval {set sim_annotation {0.29999999999999999 3 join-group 1073741824}}
+ 0.35 0 2 encap 230 ------- 0 0.2 5.0 -1 1
- 0.35 0 2 encap 230 ------- 0 0.2 5.0 -1 1
+ 0.35375 0 2 encap 230 ------- 0 0.2 5.0 -1 3
- 0.35375 0 2 encap 230 ------- 0 0.2 5.0 -1 3
+ 0.3575 0 2 encap 230 ------- 0 0.2 5.0 -1 5
- 0.3575 0 2 encap 230 ------- 0 0.2 5.0 -1 5
r 0.361227 0 2 encap 230 ------- 0 0.2 5.0 -1 1
+ 0.361227 2 5 encap 230 ------- 0 0.2 5.0 -1 1
- 0.361227 2 5 encap 230 ------- 0 0.2 5.0 -1 1
+ 0.36125 0 2 encap 230 ------- 0 0.2 5.0 -1 7
- 0.36125 0 2 encap 230 ------- 0 0.2 5.0 -1 7
r 0.364977 0 2 encap 230 ------- 0 0.2 5.0 -1 3
+ 0.364977 2 5 encap 230 ------- 0 0.2 5.0 -1 3
- 0.364977 2 5 encap 230 ------- 0 0.2 5.0 -1 3
+ 0.365 0 2 encap 230 ------- 0 0.2 5.0 -1 9
- 0.365 0 2 encap 230 ------- 0 0.2 5.0 -1 9
r 0.368727 0 2 encap 230 ------- 0 0.2 5.0 -1 5
+ 0.368727 2 5 encap 230 ------- 0 0.2 5.0 -1 5
- 0.368727 2 5 encap 230 ------- 0 0.2 5.0 -1 5
+ 0.36875 0 2 encap 230 ------- 0 0.2 5.0 -1 11
- 0.36875 0 2 encap 230 ------- 0 0.2 5.0 -1 11
r 0.372453 2 5 encap 230 ------- 0 0.2 5.0 -1 1
+ 0.372453 5 2 cbr 210 ------- 1 0.1 1073741824.0 0 0
- 0.372453 5 2 cbr 210 ------- 1 0.1 1073741824.0 0 0
r 0.372477 0 2 encap 230 ------- 0 0.2 5.0 -1 7
+ 0.372477 2 5 encap 230 ------- 0 0.2 5.0 -1 7
- 0.372477 2 5 encap 230 ------- 0 0.2 5.0 -1 7
+ 0.3725 0 2 encap 230 ------- 0 0.2 5.0 -1 13
- 0.3725 0 2 encap 230 ------- 0 0.2 5.0 -1 13
r 0.376203 2 5 encap 230 ------- 0 0.2 5.0 -1 3
+ 0.376203 5 2 cbr 210 ------- 1 0.1 1073741824.0 1 2
- 0.376203 5 2 cbr 210 ------- 1 0.1 1073741824.0 1 2
r 0.376227 0 2 encap 230 ------- 0 0.2 5.0 -1 9
+ 0.376227 2 5 encap 230 ------- 0 0.2 5.0 -1 9
- 0.376227 2 5 encap 230 ------- 0 0.2 5.0 -1 9
+ 0.37625 0 2 encap 230 ------- 0 0.2 5.0 -1 15
- 0.37625 0 2 encap 230 ------- 0 0.2 5.0 -1 15
r 0.379953 2 5 encap 230 ------- 0 0.2 5.0 -1 5
+ 0.379953 5 2 cbr 210 ------- 1 0.1 1073741824.0 2 4
- 0.379953 5 2 cbr 210 ------- 1 0.1 1073741824.0 2 4
r 0.379977 0 2 encap 230 ------- 0 0.2 5.0 -1 11
+ 0.379977 2 5 encap 230 ------- 0 0.2 5.0 -1 11
- 0.379977 2 5 encap 230 ------- 0 0.2 5.0 -1 11
+ 0.38 0 2 encap 230 ------- 0 0.2 5.0 -1 17
- 0.38 0 2 encap 230 ------- 0 0.2 5.0 -1 17
r 0.383573 5 2 cbr 210 ------- 1 0.1 1073741824.0 0 0
+ 0.383573 2 0 cbr 210 ------- 1 0.1 1073741824.0 0 0
- 0.383573 2 0 cbr 210 ------- 1 0.1 1073741824.0 0 0
r 0.383703 2 5 encap 230 ------- 0 0.2 5.0 -1 7
+ 0.383703 5 2 cbr 210 ------- 1 0.1 1073741824.0 3 6
- 0.383703 5 2 cbr 210 ------- 1 0.1 1073741824.0 3 6
r 0.383727 0 2 encap 230 ------- 0 0.2 5.0 -1 13
+ 0.383727 2 5 encap 230 ------- 0 0.2 5.0 -1 13
- 0.383727 2 5 encap 230 ------- 0 0.2 5.0 -1 13
+ 0.38375 0 2 encap 230 ------- 0 0.2 5.0 -1 19
- 0.38375 0 2 encap 230 ------- 0 0.2 5.0 -1 19
r 0.387323 5 2 cbr 210 ------- 1 0.1 1073741824.0 1 2
+ 0.387323 2 0 cbr 210 ------- 1 0.1 1073741824.0 1 2
- 0.387323 2 0 cbr 210 ------- 1 0.1 1073741824.0 1 2
r 0.387453 2 5 encap 230 ------- 0 0.2 5.0 -1 9
+ 0.387453 5 2 cbr 210 ------- 1 0.1 1073741824.0 4 8
- 0.387453 5 2 cbr 210 ------- 1 0.1 1073741824.0 4 8
r 0.387477 0 2 encap 230 ------- 0 0.2 5.0 -1 15
+ 0.387477 2 5 encap 230 ------- 0 0.2 5.0 -1 15
- 0.387477 2 5 encap 230 ------- 0 0.2 5.0 -1 15
+ 0.3875 0 2 encap 230 ------- 0 0.2 5.0 -1 21
- 0.3875 0 2 encap 230 ------- 0 0.2 5.0 -1 21
r 0.391073 5 2 cbr 210 ------- 1 0.1 1073741824.0 2 4
+ 0.391073 2 0 cbr 210 ------- 1 0.1 1073741824.0 2 4
- 0.391073 2 0 cbr 210 ------- 1 0.1 1073741824.0 2 4
r 0.391203 2 5 encap 230 ------- 0 0.2 5.0 -1 11
+ 0.391203 5 2 cbr 210 ------- 1 0.1 1073741824.0 5 10
- 0.391203 5 2 cbr 210 ------- 1 0.1 1073741824.0 5 10
r 0.391227 0 2 encap 230 ------- 0 0.2 5.0 -1 17
+ 0.391227 2 5 encap 230 ------- 0 0.2 5.0 -1 17
- 0.391227 2 5 encap 230 ------- 0 0.2 5.0 -1 17
+ 0.39125 0 2 encap 230 ------- 0 0.2 5.0 -1 23
- 0.39125 0 2 encap 230 ------- 0 0.2 5.0 -1 23
r 0.394693 2 0 cbr 210 ------- 1 0.1 1073741824.0 0 0
+ 0.394693 0 1 cbr 210 ------- 1 0.1 1073741824.0 0 0
- 0.394693 0 1 cbr 210 ------- 1 0.1 1073741824.0 0 0
r 0.394823 5 2 cbr 210 ------- 1 0.1 1073741824.0 3 6
+ 0.394823 2 0 cbr 210 ------- 1 0.1 1073741824.0 3 6
- 0.394823 2 0 cbr 210 ------- 1 0.1 1073741824.0 3 6
r 0.394953 2 5 encap 230 ------- 0 0.2 5.0 -1 13
+ 0.394953 5 2 cbr 210 ------- 1 0.1 1073741824.0 6 12
- 0.394953 5 2 cbr 210 ------- 1 0.1 1073741824.0 6 12
r 0.394977 0 2 encap 230 ------- 0 0.2 5.0 -1 19
+ 0.394977 2 5 encap 230 ------- 0 0.2 5.0 -1 19
- 0.394977 2 5 encap 230 ------- 0 0.2 5.0 -1 19
+ 0.395 0 2 encap 230 ------- 0 0.2 5.0 -1 25
- 0.395 0 2 encap 230 ------- 0 0.2 5.0 -1 25
r 0.398443 2 0 cbr 210 ------- 1 0.1 1073741824.0 1 2
+ 0.398443 0 1 cbr 210 ------- 1 0.1 1073741824.0 1 2
- 0.398443 0 1 cbr 210 ------- 1 0.1 1073741824.0 1 2
r 0.398573 5 2 cbr 210 ------- 1 0.1 1073741824.0 4 8
+ 0.398573 2 0 cbr 210 ------- 1 0.1 1073741824.0 4 8
- 0.398573 2 0 cbr 210 ------- 1 0.1 1073741824.0 4 8
r 0.398703 2 5 encap 230 ------- 0 0.2 5.0 -1 15
+ 0.398703 5 2 cbr 210 ------- 1 0.1 1073741824.0 7 14
- 0.398703 5 2 cbr 210 ------- 1 0.1 1073741824.0 7 14
r 0.398727 0 2 encap 230 ------- 0 0.2 5.0 -1 21
+ 0.398727 2 5 encap 230 ------- 0 0.2 5.0 -1 21
- 0.398727 2 5 encap 230 ------- 0 0.2 5.0 -1 21
+ 0.39875 0 2 encap 230 ------- 0 0.2 5.0 -1 27
- 0.39875 0 2 encap 230 ------- 0 0.2 5.0 -1 27
v 0.4 eval {set sim_annotation {0.40000000000000002 4 join-group 1073741824}}
r 0.402193 2 0 cbr 210 ------- 1 0.1 1073741824.0 2 4
+ 0.402193 0 1 cbr 210 ------- 1 0.1 1073741824.0 2 4
- 0.402193 0 1 cbr 210 ------- 1 0.1 1073741824.0 2 4
r 0.402323 5 2 cbr 210 ------- 1 0.1 1073741824.0 5 10
+ 0.402323 2 0 cbr 210 ------- 1 0.1 1073741824.0 5 10
- 0.402323 2 0 cbr 210 ------- 1 0.1 1073741824.0 5 10
+ 0.402323 2 4 cbr 210 ------- 1 0.1 1073741824.0 5 10
- 0.402323 2 4 cbr 210 ------- 1 0.1 1073741824.0 5 10
r 0.402453 2 5 encap 230 ------- 0 0.2 5.0 -1 17
+ 0.402453 5 2 cbr 210 ------- 1 0.1 1073741824.0 8 16
- 0.402453 5 2 cbr 210 ------- 1 0.1 1073741824.0 8 16
r 0.402477 0 2 encap 230 ------- 0 0.2 5.0 -1 23
+ 0.402477 2 5 encap 230 ------- 0 0.2 5.0 -1 23
- 0.402477 2 5 encap 230 ------- 0 0.2 5.0 -1 23
+ 0.4025 0 2 encap 230 ------- 0 0.2 5.0 -1 29
- 0.4025 0 2 encap 230 ------- 0 0.2 5.0 -1 29
r 0.405813 0 1 cbr 210 ------- 1 0.1 1073741824.0 0 0
+ 0.405813 1 3 cbr 210 ------- 1 0.1 1073741824.0 0 0
- 0.405813 1 3 cbr 210 ------- 1 0.1 1073741824.0 0 0
r 0.405943 2 0 cbr 210 ------- 1 0.1 1073741824.0 3 6
+ 0.405943 0 1 cbr 210 ------- 1 0.1 1073741824.0 3 6
- 0.405943 0 1 cbr 210 ------- 1 0.1 1073741824.0 3 6
r 0.406073 5 2 cbr 210 ------- 1 0.1 1073741824.0 6 12
+ 0.406073 2 0 cbr 210 ------- 1 0.1 1073741824.0 6 12
- 0.406073 2 0 cbr 210 ------- 1 0.1 1073741824.0 6 12
+ 0.406073 2 4 cbr 210 ------- 1 0.1 1073741824.0 6 12
- 0.406073 2 4 cbr 210 ------- 1 0.1 1073741824.0 6 12
r 0.406203 2 5 encap 230 ------- 0 0.2 5.0 -1 19
+ 0.406203 5 2 cbr 210 ------- 1 0.1 1073741824.0 9 18
- 0.406203 5 2 cbr 210 ------- 1 0.1 1073741824.0 9 18
r 0.406227 0 2 encap 230 ------- 0 0.2 5.0 -1 25
+ 0.406227 2 5 encap 230 ------- 0 0.2 5.0 -1 25
- 0.406227 2 5 encap 230 ------- 0 0.2 5.0 -1 25
+ 0.40625 0 2 encap 230 ------- 0 0.2 5.0 -1 31
- 0.40625 0 2 encap 230 ------- 0 0.2 5.0 -1 31
r 0.409563 0 1 cbr 210 ------- 1 0.1 1073741824.0 1 2
+ 0.409563 1 3 cbr 210 ------- 1 0.1 1073741824.0 1 2
- 0.409563 1 3 cbr 210 ------- 1 0.1 1073741824.0 1 2
r 0.409693 2 0 cbr 210 ------- 1 0.1 1073741824.0 4 8
+ 0.409693 0 1 cbr 210 ------- 1 0.1 1073741824.0 4 8
- 0.409693 0 1 cbr 210 ------- 1 0.1 1073741824.0 4 8
r 0.409823 5 2 cbr 210 ------- 1 0.1 1073741824.0 7 14
+ 0.409823 2 0 cbr 210 ------- 1 0.1 1073741824.0 7 14
- 0.409823 2 0 cbr 210 ------- 1 0.1 1073741824.0 7 14
+ 0.409823 2 4 cbr 210 ------- 1 0.1 1073741824.0 7 14
- 0.409823 2 4 cbr 210 ------- 1 0.1 1073741824.0 7 14
r 0.409953 2 5 encap 230 ------- 0 0.2 5.0 -1 21
+ 0.409953 5 2 cbr 210 ------- 1 0.1 1073741824.0 10 20
- 0.409953 5 2 cbr 210 ------- 1 0.1 1073741824.0 10 20
r 0.409977 0 2 encap 230 ------- 0 0.2 5.0 -1 27
+ 0.409977 2 5 encap 230 ------- 0 0.2 5.0 -1 27
- 0.409977 2 5 encap 230 ------- 0 0.2 5.0 -1 27
+ 0.41 0 2 encap 230 ------- 0 0.2 5.0 -1 33
- 0.41 0 2 encap 230 ------- 0 0.2 5.0 -1 33
r 0.413313 0 1 cbr 210 ------- 1 0.1 1073741824.0 2 4
+ 0.413313 1 3 cbr 210 ------- 1 0.1 1073741824.0 2 4
- 0.413313 1 3 cbr 210 ------- 1 0.1 1073741824.0 2 4
r 0.413443 2 0 cbr 210 ------- 1 0.1 1073741824.0 5 10
+ 0.413443 0 1 cbr 210 ------- 1 0.1 1073741824.0 5 10
- 0.413443 0 1 cbr 210 ------- 1 0.1 1073741824.0 5 10
r 0.413443 2 4 cbr 210 ------- 1 0.1 1073741824.0 5 10
r 0.413573 5 2 cbr 210 ------- 1 0.1 1073741824.0 8 16
+ 0.413573 2 0 cbr 210 ------- 1 0.1 1073741824.0 8 16
- 0.413573 2 0 cbr 210 ------- 1 0.1 1073741824.0 8 16
+ 0.413573 2 4 cbr 210 ------- 1 0.1 1073741824.0 8 16
- 0.413573 2 4 cbr 210 ------- 1 0.1 1073741824.0 8 16
r 0.413703 2 5 encap 230 ------- 0 0.2 5.0 -1 23
+ 0.413703 5 2 cbr 210 ------- 1 0.1 1073741824.0 11 22
- 0.413703 5 2 cbr 210 ------- 1 0.1 1073741824.0 11 22
r 0.413727 0 2 encap 230 ------- 0 0.2 5.0 -1 29
+ 0.413727 2 5 encap 230 ------- 0 0.2 5.0 -1 29
- 0.413727 2 5 encap 230 ------- 0 0.2 5.0 -1 29
+ 0.41375 0 2 encap 230 ------- 0 0.2 5.0 -1 35
- 0.41375 0 2 encap 230 ------- 0 0.2 5.0 -1 35
r 0.416933 1 3 cbr 210 ------- 1 0.1 1073741824.0 0 0
r 0.417063 0 1 cbr 210 ------- 1 0.1 1073741824.0 3 6
+ 0.417063 1 3 cbr 210 ------- 1 0.1 1073741824.0 3 6
- 0.417063 1 3 cbr 210 ------- 1 0.1 1073741824.0 3 6
r 0.417193 2 0 cbr 210 ------- 1 0.1 1073741824.0 6 12
+ 0.417193 0 1 cbr 210 ------- 1 0.1 1073741824.0 6 12
- 0.417193 0 1 cbr 210 ------- 1 0.1 1073741824.0 6 12
r 0.417193 2 4 cbr 210 ------- 1 0.1 1073741824.0 6 12
r 0.417323 5 2 cbr 210 ------- 1 0.1 1073741824.0 9 18
+ 0.417323 2 0 cbr 210 ------- 1 0.1 1073741824.0 9 18
- 0.417323 2 0 cbr 210 ------- 1 0.1 1073741824.0 9 18
+ 0.417323 2 4 cbr 210 ------- 1 0.1 1073741824.0 9 18
- 0.417323 2 4 cbr 210 ------- 1 0.1 1073741824.0 9 18
r 0.417453 2 5 encap 230 ------- 0 0.2 5.0 -1 25
+ 0.417453 5 2 cbr 210 ------- 1 0.1 1073741824.0 12 24
- 0.417453 5 2 cbr 210 ------- 1 0.1 1073741824.0 12 24
r 0.417477 0 2 encap 230 ------- 0 0.2 5.0 -1 31
+ 0.417477 2 5 encap 230 ------- 0 0.2 5.0 -1 31
- 0.417477 2 5 encap 230 ------- 0 0.2 5.0 -1 31
+ 0.4175 0 2 encap 230 ------- 0 0.2 5.0 -1 37
- 0.4175 0 2 encap 230 ------- 0 0.2 5.0 -1 37
r 0.420683 1 3 cbr 210 ------- 1 0.1 1073741824.0 1 2
r 0.420813 0 1 cbr 210 ------- 1 0.1 1073741824.0 4 8
+ 0.420813 1 3 cbr 210 ------- 1 0.1 1073741824.0 4 8
- 0.420813 1 3 cbr 210 ------- 1 0.1 1073741824.0 4 8
r 0.420943 2 0 cbr 210 ------- 1 0.1 1073741824.0 7 14
+ 0.420943 0 1 cbr 210 ------- 1 0.1 1073741824.0 7 14
- 0.420943 0 1 cbr 210 ------- 1 0.1 1073741824.0 7 14
r 0.420943 2 4 cbr 210 ------- 1 0.1 1073741824.0 7 14
r 0.421073 5 2 cbr 210 ------- 1 0.1 1073741824.0 10 20
+ 0.421073 2 0 cbr 210 ------- 1 0.1 1073741824.0 10 20
- 0.421073 2 0 cbr 210 ------- 1 0.1 1073741824.0 10 20
+ 0.421073 2 4 cbr 210 ------- 1 0.1 1073741824.0 10 20
- 0.421073 2 4 cbr 210 ------- 1 0.1 1073741824.0 10 20
r 0.421203 2 5 encap 230 ------- 0 0.2 5.0 -1 27
+ 0.421203 5 2 cbr 210 ------- 1 0.1 1073741824.0 13 26
- 0.421203 5 2 cbr 210 ------- 1 0.1 1073741824.0 13 26
r 0.421227 0 2 encap 230 ------- 0 0.2 5.0 -1 33
+ 0.421227 2 5 encap 230 ------- 0 0.2 5.0 -1 33
- 0.421227 2 5 encap 230 ------- 0 0.2 5.0 -1 33
+ 0.42125 0 2 encap 230 ------- 0 0.2 5.0 -1 39
- 0.42125 0 2 encap 230 ------- 0 0.2 5.0 -1 39
r 0.424433 1 3 cbr 210 ------- 1 0.1 1073741824.0 2 4
r 0.424563 0 1 cbr 210 ------- 1 0.1 1073741824.0 5 10
+ 0.424563 1 3 cbr 210 ------- 1 0.1 1073741824.0 5 10
- 0.424563 1 3 cbr 210 ------- 1 0.1 1073741824.0 5 10
r 0.424693 2 0 cbr 210 ------- 1 0.1 1073741824.0 8 16
+ 0.424693 0 1 cbr 210 ------- 1 0.1 1073741824.0 8 16
- 0.424693 0 1 cbr 210 ------- 1 0.1 1073741824.0 8 16
r 0.424693 2 4 cbr 210 ------- 1 0.1 1073741824.0 8 16
r 0.424823 5 2 cbr 210 ------- 1 0.1 1073741824.0 11 22
+ 0.424823 2 0 cbr 210 ------- 1 0.1 1073741824.0 11 22
- 0.424823 2 0 cbr 210 ------- 1 0.1 1073741824.0 11 22
+ 0.424823 2 4 cbr 210 ------- 1 0.1 1073741824.0 11 22
- 0.424823 2 4 cbr 210 ------- 1 0.1 1073741824.0 11 22
r 0.424953 2 5 encap 230 ------- 0 0.2 5.0 -1 29
+ 0.424953 5 2 cbr 210 ------- 1 0.1 1073741824.0 14 28
- 0.424953 5 2 cbr 210 ------- 1 0.1 1073741824.0 14 28
r 0.424977 0 2 encap 230 ------- 0 0.2 5.0 -1 35
+ 0.424977 2 5 encap 230 ------- 0 0.2 5.0 -1 35
- 0.424977 2 5 encap 230 ------- 0 0.2 5.0 -1 35
+ 0.425 0 2 encap 230 ------- 0 0.2 5.0 -1 41
- 0.425 0 2 encap 230 ------- 0 0.2 5.0 -1 41
r 0.428183 1 3 cbr 210 ------- 1 0.1 1073741824.0 3 6
r 0.428313 0 1 cbr 210 ------- 1 0.1 1073741824.0 6 12
+ 0.428313 1 3 cbr 210 ------- 1 0.1 1073741824.0 6 12
- 0.428313 1 3 cbr 210 ------- 1 0.1 1073741824.0 6 12
r 0.428443 2 0 cbr 210 ------- 1 0.1 1073741824.0 9 18
+ 0.428443 0 1 cbr 210 ------- 1 0.1 1073741824.0 9 18
- 0.428443 0 1 cbr 210 ------- 1 0.1 1073741824.0 9 18
r 0.428443 2 4 cbr 210 ------- 1 0.1 1073741824.0 9 18
r 0.428573 5 2 cbr 210 ------- 1 0.1 1073741824.0 12 24
+ 0.428573 2 0 cbr 210 ------- 1 0.1 1073741824.0 12 24
- 0.428573 2 0 cbr 210 ------- 1 0.1 1073741824.0 12 24
+ 0.428573 2 4 cbr 210 ------- 1 0.1 1073741824.0 12 24
- 0.428573 2 4 cbr 210 ------- 1 0.1 1073741824.0 12 24
r 0.428703 2 5 encap 230 ------- 0 0.2 5.0 -1 31
+ 0.428703 5 2 cbr 210 ------- 1 0.1 1073741824.0 15 30
- 0.428703 5 2 cbr 210 ------- 1 0.1 1073741824.0 15 30
r 0.428727 0 2 encap 230 ------- 0 0.2 5.0 -1 37
+ 0.428727 2 5 encap 230 ------- 0 0.2 5.0 -1 37
- 0.428727 2 5 encap 230 ------- 0 0.2 5.0 -1 37
+ 0.42875 0 2 encap 230 ------- 0 0.2 5.0 -1 43
- 0.42875 0 2 encap 230 ------- 0 0.2 5.0 -1 43
r 0.431933 1 3 cbr 210 ------- 1 0.1 1073741824.0 4 8
r 0.432063 0 1 cbr 210 ------- 1 0.1 1073741824.0 7 14
+ 0.432063 1 3 cbr 210 ------- 1 0.1 1073741824.0 7 14
- 0.432063 1 3 cbr 210 ------- 1 0.1 1073741824.0 7 14
r 0.432193 2 0 cbr 210 ------- 1 0.1 1073741824.0 10 20
+ 0.432193 0 1 cbr 210 ------- 1 0.1 1073741824.0 10 20
- 0.432193 0 1 cbr 210 ------- 1 0.1 1073741824.0 10 20
r 0.432193 2 4 cbr 210 ------- 1 0.1 1073741824.0 10 20
r 0.432323 5 2 cbr 210 ------- 1 0.1 1073741824.0 13 26
+ 0.432323 2 0 cbr 210 ------- 1 0.1 1073741824.0 13 26
- 0.432323 2 0 cbr 210 ------- 1 0.1 1073741824.0 13 26
+ 0.432323 2 4 cbr 210 ------- 1 0.1 1073741824.0 13 26
- 0.432323 2 4 cbr 210 ------- 1 0.1 1073741824.0 13 26
r 0.432453 2 5 encap 230 ------- 0 0.2 5.0 -1 33
+ 0.432453 5 2 cbr 210 ------- 1 0.1 1073741824.0 16 32
- 0.432453 5 2 cbr 210 ------- 1 0.1 1073741824.0 16 32
r 0.432477 0 2 encap 230 ------- 0 0.2 5.0 -1 39
+ 0.432477 2 5 encap 230 ------- 0 0.2 5.0 -1 39
- 0.432477 2 5 encap 230 ------- 0 0.2 5.0 -1 39
+ 0.4325 0 2 encap 230 ------- 0 0.2 5.0 -1 45
- 0.4325 0 2 encap 230 ------- 0 0.2 5.0 -1 45
r 0.435683 1 3 cbr 210 ------- 1 0.1 1073741824.0 5 10
r 0.435813 0 1 cbr 210 ------- 1 0.1 1073741824.0 8 16
+ 0.435813 1 3 cbr 210 ------- 1 0.1 1073741824.0 8 16
- 0.435813 1 3 cbr 210 ------- 1 0.1 1073741824.0 8 16
r 0.435943 2 0 cbr 210 ------- 1 0.1 1073741824.0 11 22
+ 0.435943 0 1 cbr 210 ------- 1 0.1 1073741824.0 11 22
- 0.435943 0 1 cbr 210 ------- 1 0.1 1073741824.0 11 22
r 0.435943 2 4 cbr 210 ------- 1 0.1 1073741824.0 11 22
r 0.436073 5 2 cbr 210 ------- 1 0.1 1073741824.0 14 28
+ 0.436073 2 0 cbr 210 ------- 1 0.1 1073741824.0 14 28
- 0.436073 2 0 cbr 210 ------- 1 0.1 1073741824.0 14 28
+ 0.436073 2 4 cbr 210 ------- 1 0.1 1073741824.0 14 28
- 0.436073 2 4 cbr 210 ------- 1 0.1 1073741824.0 14 28
r 0.436203 2 5 encap 230 ------- 0 0.2 5.0 -1 35
+ 0.436203 5 2 cbr 210 ------- 1 0.1 1073741824.0 17 34
- 0.436203 5 2 cbr 210 ------- 1 0.1 1073741824.0 17 34
r 0.436227 0 2 encap 230 ------- 0 0.2 5.0 -1 41
+ 0.436227 2 5 encap 230 ------- 0 0.2 5.0 -1 41
- 0.436227 2 5 encap 230 ------- 0 0.2 5.0 -1 41
+ 0.43625 0 2 encap 230 ------- 0 0.2 5.0 -1 47
- 0.43625 0 2 encap 230 ------- 0 0.2 5.0 -1 47
r 0.439433 1 3 cbr 210 ------- 1 0.1 1073741824.0 6 12
r 0.439563 0 1 cbr 210 ------- 1 0.1 1073741824.0 9 18
+ 0.439563 1 3 cbr 210 ------- 1 0.1 1073741824.0 9 18
- 0.439563 1 3 cbr 210 ------- 1 0.1 1073741824.0 9 18
r 0.439693 2 0 cbr 210 ------- 1 0.1 1073741824.0 12 24
+ 0.439693 0 1 cbr 210 ------- 1 0.1 1073741824.0 12 24
- 0.439693 0 1 cbr 210 ------- 1 0.1 1073741824.0 12 24
r 0.439693 2 4 cbr 210 ------- 1 0.1 1073741824.0 12 24
r 0.439823 5 2 cbr 210 ------- 1 0.1 1073741824.0 15 30
+ 0.439823 2 0 cbr 210 ------- 1 0.1 1073741824.0 15 30
- 0.439823 2 0 cbr 210 ------- 1 0.1 1073741824.0 15 30
+ 0.439823 2 4 cbr 210 ------- 1 0.1 1073741824.0 15 30
- 0.439823 2 4 cbr 210 ------- 1 0.1 1073741824.0 15 30
r 0.439953 2 5 encap 230 ------- 0 0.2 5.0 -1 37
+ 0.439953 5 2 cbr 210 ------- 1 0.1 1073741824.0 18 36
- 0.439953 5 2 cbr 210 ------- 1 0.1 1073741824.0 18 36
r 0.439977 0 2 encap 230 ------- 0 0.2 5.0 -1 43
+ 0.439977 2 5 encap 230 ------- 0 0.2 5.0 -1 43
- 0.439977 2 5 encap 230 ------- 0 0.2 5.0 -1 43
+ 0.44 0 2 encap 230 ------- 0 0.2 5.0 -1 49
- 0.44 0 2 encap 230 ------- 0 0.2 5.0 -1 49
r 0.443183 1 3 cbr 210 ------- 1 0.1 1073741824.0 7 14
r 0.443313 0 1 cbr 210 ------- 1 0.1 1073741824.0 10 20
+ 0.443313 1 3 cbr 210 ------- 1 0.1 1073741824.0 10 20
- 0.443313 1 3 cbr 210 ------- 1 0.1 1073741824.0 10 20
r 0.443443 2 0 cbr 210 ------- 1 0.1 1073741824.0 13 26
+ 0.443443 0 1 cbr 210 ------- 1 0.1 1073741824.0 13 26
- 0.443443 0 1 cbr 210 ------- 1 0.1 1073741824.0 13 26
r 0.443443 2 4 cbr 210 ------- 1 0.1 1073741824.0 13 26
r 0.443573 5 2 cbr 210 ------- 1 0.1 1073741824.0 16 32
+ 0.443573 2 0 cbr 210 ------- 1 0.1 1073741824.0 16 32
- 0.443573 2 0 cbr 210 ------- 1 0.1 1073741824.0 16 32
+ 0.443573 2 4 cbr 210 ------- 1 0.1 1073741824.0 16 32
- 0.443573 2 4 cbr 210 ------- 1 0.1 1073741824.0 16 32
r 0.443703 2 5 encap 230 ------- 0 0.2 5.0 -1 39
+ 0.443703 5 2 cbr 210 ------- 1 0.1 1073741824.0 19 38
- 0.443703 5 2 cbr 210 ------- 1 0.1 1073741824.0 19 38
r 0.443727 0 2 encap 230 ------- 0 0.2 5.0 -1 45
+ 0.443727 2 5 encap 230 ------- 0 0.2 5.0 -1 45
- 0.443727 2 5 encap 230 ------- 0 0.2 5.0 -1 45
+ 0.44375 0 2 encap 230 ------- 0 0.2 5.0 -1 51
- 0.44375 0 2 encap 230 ------- 0 0.2 5.0 -1 51
r 0.446933 1 3 cbr 210 ------- 1 0.1 1073741824.0 8 16
r 0.447063 0 1 cbr 210 ------- 1 0.1 1073741824.0 11 22
+ 0.447063 1 3 cbr 210 ------- 1 0.1 1073741824.0 11 22
- 0.447063 1 3 cbr 210 ------- 1 0.1 1073741824.0 11 22
r 0.447193 2 0 cbr 210 ------- 1 0.1 1073741824.0 14 28
+ 0.447193 0 1 cbr 210 ------- 1 0.1 1073741824.0 14 28
- 0.447193 0 1 cbr 210 ------- 1 0.1 1073741824.0 14 28
r 0.447193 2 4 cbr 210 ------- 1 0.1 1073741824.0 14 28
r 0.447323 5 2 cbr 210 ------- 1 0.1 1073741824.0 17 34
+ 0.447323 2 0 cbr 210 ------- 1 0.1 1073741824.0 17 34
- 0.447323 2 0 cbr 210 ------- 1 0.1 1073741824.0 17 34
+ 0.447323 2 4 cbr 210 ------- 1 0.1 1073741824.0 17 34
- 0.447323 2 4 cbr 210 ------- 1 0.1 1073741824.0 17 34
r 0.447453 2 5 encap 230 ------- 0 0.2 5.0 -1 41
+ 0.447453 5 2 cbr 210 ------- 1 0.1 1073741824.0 20 40
- 0.447453 5 2 cbr 210 ------- 1 0.1 1073741824.0 20 40
r 0.447477 0 2 encap 230 ------- 0 0.2 5.0 -1 47
+ 0.447477 2 5 encap 230 ------- 0 0.2 5.0 -1 47
- 0.447477 2 5 encap 230 ------- 0 0.2 5.0 -1 47
+ 0.4475 0 2 encap 230 ------- 0 0.2 5.0 -1 53
- 0.4475 0 2 encap 230 ------- 0 0.2 5.0 -1 53
r 0.450683 1 3 cbr 210 ------- 1 0.1 1073741824.0 9 18
r 0.450813 0 1 cbr 210 ------- 1 0.1 1073741824.0 12 24
+ 0.450813 1 3 cbr 210 ------- 1 0.1 1073741824.0 12 24
- 0.450813 1 3 cbr 210 ------- 1 0.1 1073741824.0 12 24
r 0.450943 2 0 cbr 210 ------- 1 0.1 1073741824.0 15 30
+ 0.450943 0 1 cbr 210 ------- 1 0.1 1073741824.0 15 30
- 0.450943 0 1 cbr 210 ------- 1 0.1 1073741824.0 15 30
r 0.450943 2 4 cbr 210 ------- 1 0.1 1073741824.0 15 30
r 0.451073 5 2 cbr 210 ------- 1 0.1 1073741824.0 18 36
+ 0.451073 2 0 cbr 210 ------- 1 0.1 1073741824.0 18 36
- 0.451073 2 0 cbr 210 ------- 1 0.1 1073741824.0 18 36
+ 0.451073 2 4 cbr 210 ------- 1 0.1 1073741824.0 18 36
- 0.451073 2 4 cbr 210 ------- 1 0.1 1073741824.0 18 36
r 0.451203 2 5 encap 230 ------- 0 0.2 5.0 -1 43
+ 0.451203 5 2 cbr 210 ------- 1 0.1 1073741824.0 21 42
- 0.451203 5 2 cbr 210 ------- 1 0.1 1073741824.0 21 42
r 0.451227 0 2 encap 230 ------- 0 0.2 5.0 -1 49
+ 0.451227 2 5 encap 230 ------- 0 0.2 5.0 -1 49
- 0.451227 2 5 encap 230 ------- 0 0.2 5.0 -1 49
+ 0.45125 0 2 encap 230 ------- 0 0.2 5.0 -1 55
- 0.45125 0 2 encap 230 ------- 0 0.2 5.0 -1 55
r 0.454433 1 3 cbr 210 ------- 1 0.1 1073741824.0 10 20
r 0.454563 0 1 cbr 210 ------- 1 0.1 1073741824.0 13 26
+ 0.454563 1 3 cbr 210 ------- 1 0.1 1073741824.0 13 26
- 0.454563 1 3 cbr 210 ------- 1 0.1 1073741824.0 13 26
r 0.454693 2 0 cbr 210 ------- 1 0.1 1073741824.0 16 32
+ 0.454693 0 1 cbr 210 ------- 1 0.1 1073741824.0 16 32
- 0.454693 0 1 cbr 210 ------- 1 0.1 1073741824.0 16 32
r 0.454693 2 4 cbr 210 ------- 1 0.1 1073741824.0 16 32
r 0.454823 5 2 cbr 210 ------- 1 0.1 1073741824.0 19 38
+ 0.454823 2 0 cbr 210 ------- 1 0.1 1073741824.0 19 38
- 0.454823 2 0 cbr 210 ------- 1 0.1 1073741824.0 19 38
+ 0.454823 2 4 cbr 210 ------- 1 0.1 1073741824.0 19 38
- 0.454823 2 4 cbr 210 ------- 1 0.1 1073741824.0 19 38
r 0.454953 2 5 encap 230 ------- 0 0.2 5.0 -1 45
+ 0.454953 5 2 cbr 210 ------- 1 0.1 1073741824.0 22 44
- 0.454953 5 2 cbr 210 ------- 1 0.1 1073741824.0 22 44
r 0.454977 0 2 encap 230 ------- 0 0.2 5.0 -1 51
+ 0.454977 2 5 encap 230 ------- 0 0.2 5.0 -1 51
- 0.454977 2 5 encap 230 ------- 0 0.2 5.0 -1 51
+ 0.455 0 2 encap 230 ------- 0 0.2 5.0 -1 57
- 0.455 0 2 encap 230 ------- 0 0.2 5.0 -1 57
r 0.458183 1 3 cbr 210 ------- 1 0.1 1073741824.0 11 22
r 0.458313 0 1 cbr 210 ------- 1 0.1 1073741824.0 14 28
+ 0.458313 1 3 cbr 210 ------- 1 0.1 1073741824.0 14 28
- 0.458313 1 3 cbr 210 ------- 1 0.1 1073741824.0 14 28
r 0.458443 2 0 cbr 210 ------- 1 0.1 1073741824.0 17 34
+ 0.458443 0 1 cbr 210 ------- 1 0.1 1073741824.0 17 34
- 0.458443 0 1 cbr 210 ------- 1 0.1 1073741824.0 17 34
r 0.458443 2 4 cbr 210 ------- 1 0.1 1073741824.0 17 34
r 0.458573 5 2 cbr 210 ------- 1 0.1 1073741824.0 20 40
+ 0.458573 2 0 cbr 210 ------- 1 0.1 1073741824.0 20 40
- 0.458573 2 0 cbr 210 ------- 1 0.1 1073741824.0 20 40
+ 0.458573 2 4 cbr 210 ------- 1 0.1 1073741824.0 20 40
- 0.458573 2 4 cbr 210 ------- 1 0.1 1073741824.0 20 40
r 0.458703 2 5 encap 230 ------- 0 0.2 5.0 -1 47
+ 0.458703 5 2 cbr 210 ------- 1 0.1 1073741824.0 23 46
- 0.458703 5 2 cbr 210 ------- 1 0.1 1073741824.0 23 46
r 0.458727 0 2 encap 230 ------- 0 0.2 5.0 -1 53
+ 0.458727 2 5 encap 230 ------- 0 0.2 5.0 -1 53
- 0.458727 2 5 encap 230 ------- 0 0.2 5.0 -1 53
+ 0.45875 0 2 encap 230 ------- 0 0.2 5.0 -1 59
- 0.45875 0 2 encap 230 ------- 0 0.2 5.0 -1 59
r 0.461933 1 3 cbr 210 ------- 1 0.1 1073741824.0 12 24
r 0.462063 0 1 cbr 210 ------- 1 0.1 1073741824.0 15 30
+ 0.462063 1 3 cbr 210 ------- 1 0.1 1073741824.0 15 30
- 0.462063 1 3 cbr 210 ------- 1 0.1 1073741824.0 15 30
r 0.462193 2 0 cbr 210 ------- 1 0.1 1073741824.0 18 36
+ 0.462193 0 1 cbr 210 ------- 1 0.1 1073741824.0 18 36
- 0.462193 0 1 cbr 210 ------- 1 0.1 1073741824.0 18 36
r 0.462193 2 4 cbr 210 ------- 1 0.1 1073741824.0 18 36
r 0.462323 5 2 cbr 210 ------- 1 0.1 1073741824.0 21 42
+ 0.462323 2 0 cbr 210 ------- 1 0.1 1073741824.0 21 42
- 0.462323 2 0 cbr 210 ------- 1 0.1 1073741824.0 21 42
+ 0.462323 2 4 cbr 210 ------- 1 0.1 1073741824.0 21 42
- 0.462323 2 4 cbr 210 ------- 1 0.1 1073741824.0 21 42
r 0.462453 2 5 encap 230 ------- 0 0.2 5.0 -1 49
+ 0.462453 5 2 cbr 210 ------- 1 0.1 1073741824.0 24 48
- 0.462453 5 2 cbr 210 ------- 1 0.1 1073741824.0 24 48
r 0.462477 0 2 encap 230 ------- 0 0.2 5.0 -1 55
+ 0.462477 2 5 encap 230 ------- 0 0.2 5.0 -1 55
- 0.462477 2 5 encap 230 ------- 0 0.2 5.0 -1 55
+ 0.4625 0 2 encap 230 ------- 0 0.2 5.0 -1 61
- 0.4625 0 2 encap 230 ------- 0 0.2 5.0 -1 61
r 0.465683 1 3 cbr 210 ------- 1 0.1 1073741824.0 13 26
r 0.465813 0 1 cbr 210 ------- 1 0.1 1073741824.0 16 32
+ 0.465813 1 3 cbr 210 ------- 1 0.1 1073741824.0 16 32
- 0.465813 1 3 cbr 210 ------- 1 0.1 1073741824.0 16 32
r 0.465943 2 0 cbr 210 ------- 1 0.1 1073741824.0 19 38
+ 0.465943 0 1 cbr 210 ------- 1 0.1 1073741824.0 19 38
- 0.465943 0 1 cbr 210 ------- 1 0.1 1073741824.0 19 38
r 0.465943 2 4 cbr 210 ------- 1 0.1 1073741824.0 19 38
r 0.466073 5 2 cbr 210 ------- 1 0.1 1073741824.0 22 44
+ 0.466073 2 0 cbr 210 ------- 1 0.1 1073741824.0 22 44
- 0.466073 2 0 cbr 210 ------- 1 0.1 1073741824.0 22 44
+ 0.466073 2 4 cbr 210 ------- 1 0.1 1073741824.0 22 44
- 0.466073 2 4 cbr 210 ------- 1 0.1 1073741824.0 22 44
r 0.466203 2 5 encap 230 ------- 0 0.2 5.0 -1 51
+ 0.466203 5 2 cbr 210 ------- 1 0.1 1073741824.0 25 50
- 0.466203 5 2 cbr 210 ------- 1 0.1 1073741824.0 25 50
r 0.466227 0 2 encap 230 ------- 0 0.2 5.0 -1 57
+ 0.466227 2 5 encap 230 ------- 0 0.2 5.0 -1 57
- 0.466227 2 5 encap 230 ------- 0 0.2 5.0 -1 57
+ 0.46625 0 2 encap 230 ------- 0 0.2 5.0 -1 63
- 0.46625 0 2 encap 230 ------- 0 0.2 5.0 -1 63
r 0.469433 1 3 cbr 210 ------- 1 0.1 1073741824.0 14 28
r 0.469563 0 1 cbr 210 ------- 1 0.1 1073741824.0 17 34
+ 0.469563 1 3 cbr 210 ------- 1 0.1 1073741824.0 17 34
- 0.469563 1 3 cbr 210 ------- 1 0.1 1073741824.0 17 34
r 0.469693 2 0 cbr 210 ------- 1 0.1 1073741824.0 20 40
+ 0.469693 0 1 cbr 210 ------- 1 0.1 1073741824.0 20 40
- 0.469693 0 1 cbr 210 ------- 1 0.1 1073741824.0 20 40
r 0.469693 2 4 cbr 210 ------- 1 0.1 1073741824.0 20 40
r 0.469823 5 2 cbr 210 ------- 1 0.1 1073741824.0 23 46
+ 0.469823 2 0 cbr 210 ------- 1 0.1 1073741824.0 23 46
- 0.469823 2 0 cbr 210 ------- 1 0.1 1073741824.0 23 46
+ 0.469823 2 4 cbr 210 ------- 1 0.1 1073741824.0 23 46
- 0.469823 2 4 cbr 210 ------- 1 0.1 1073741824.0 23 46
r 0.469953 2 5 encap 230 ------- 0 0.2 5.0 -1 53
+ 0.469953 5 2 cbr 210 ------- 1 0.1 1073741824.0 26 52
- 0.469953 5 2 cbr 210 ------- 1 0.1 1073741824.0 26 52
r 0.469977 0 2 encap 230 ------- 0 0.2 5.0 -1 59
+ 0.469977 2 5 encap 230 ------- 0 0.2 5.0 -1 59
- 0.469977 2 5 encap 230 ------- 0 0.2 5.0 -1 59
+ 0.47 0 2 encap 230 ------- 0 0.2 5.0 -1 65
- 0.47 0 2 encap 230 ------- 0 0.2 5.0 -1 65
r 0.473183 1 3 cbr 210 ------- 1 0.1 1073741824.0 15 30
r 0.473313 0 1 cbr 210 ------- 1 0.1 1073741824.0 18 36
+ 0.473313 1 3 cbr 210 ------- 1 0.1 1073741824.0 18 36
- 0.473313 1 3 cbr 210 ------- 1 0.1 1073741824.0 18 36
r 0.473443 2 0 cbr 210 ------- 1 0.1 1073741824.0 21 42
+ 0.473443 0 1 cbr 210 ------- 1 0.1 1073741824.0 21 42
- 0.473443 0 1 cbr 210 ------- 1 0.1 1073741824.0 21 42
r 0.473443 2 4 cbr 210 ------- 1 0.1 1073741824.0 21 42
r 0.473573 5 2 cbr 210 ------- 1 0.1 1073741824.0 24 48
+ 0.473573 2 0 cbr 210 ------- 1 0.1 1073741824.0 24 48
- 0.473573 2 0 cbr 210 ------- 1 0.1 1073741824.0 24 48
+ 0.473573 2 4 cbr 210 ------- 1 0.1 1073741824.0 24 48
- 0.473573 2 4 cbr 210 ------- 1 0.1 1073741824.0 24 48
r 0.473703 2 5 encap 230 ------- 0 0.2 5.0 -1 55
+ 0.473703 5 2 cbr 210 ------- 1 0.1 1073741824.0 27 54
- 0.473703 5 2 cbr 210 ------- 1 0.1 1073741824.0 27 54
r 0.473727 0 2 encap 230 ------- 0 0.2 5.0 -1 61
+ 0.473727 2 5 encap 230 ------- 0 0.2 5.0 -1 61
- 0.473727 2 5 encap 230 ------- 0 0.2 5.0 -1 61
+ 0.47375 0 2 encap 230 ------- 0 0.2 5.0 -1 67
- 0.47375 0 2 encap 230 ------- 0 0.2 5.0 -1 67
r 0.476933 1 3 cbr 210 ------- 1 0.1 1073741824.0 16 32
r 0.477063 0 1 cbr 210 ------- 1 0.1 1073741824.0 19 38
+ 0.477063 1 3 cbr 210 ------- 1 0.1 1073741824.0 19 38
- 0.477063 1 3 cbr 210 ------- 1 0.1 1073741824.0 19 38
r 0.477193 2 0 cbr 210 ------- 1 0.1 1073741824.0 22 44
+ 0.477193 0 1 cbr 210 ------- 1 0.1 1073741824.0 22 44
- 0.477193 0 1 cbr 210 ------- 1 0.1 1073741824.0 22 44
r 0.477193 2 4 cbr 210 ------- 1 0.1 1073741824.0 22 44
r 0.477323 5 2 cbr 210 ------- 1 0.1 1073741824.0 25 50
+ 0.477323 2 0 cbr 210 ------- 1 0.1 1073741824.0 25 50
- 0.477323 2 0 cbr 210 ------- 1 0.1 1073741824.0 25 50
+ 0.477323 2 4 cbr 210 ------- 1 0.1 1073741824.0 25 50
- 0.477323 2 4 cbr 210 ------- 1 0.1 1073741824.0 25 50
r 0.477453 2 5 encap 230 ------- 0 0.2 5.0 -1 57
+ 0.477453 5 2 cbr 210 ------- 1 0.1 1073741824.0 28 56
- 0.477453 5 2 cbr 210 ------- 1 0.1 1073741824.0 28 56
r 0.477477 0 2 encap 230 ------- 0 0.2 5.0 -1 63
+ 0.477477 2 5 encap 230 ------- 0 0.2 5.0 -1 63
- 0.477477 2 5 encap 230 ------- 0 0.2 5.0 -1 63
+ 0.4775 0 2 encap 230 ------- 0 0.2 5.0 -1 69
- 0.4775 0 2 encap 230 ------- 0 0.2 5.0 -1 69
r 0.480683 1 3 cbr 210 ------- 1 0.1 1073741824.0 17 34
r 0.480813 0 1 cbr 210 ------- 1 0.1 1073741824.0 20 40
+ 0.480813 1 3 cbr 210 ------- 1 0.1 1073741824.0 20 40
- 0.480813 1 3 cbr 210 ------- 1 0.1 1073741824.0 20 40
r 0.480943 2 0 cbr 210 ------- 1 0.1 1073741824.0 23 46
+ 0.480943 0 1 cbr 210 ------- 1 0.1 1073741824.0 23 46
- 0.480943 0 1 cbr 210 ------- 1 0.1 1073741824.0 23 46
r 0.480943 2 4 cbr 210 ------- 1 0.1 1073741824.0 23 46
r 0.481073 5 2 cbr 210 ------- 1 0.1 1073741824.0 26 52
+ 0.481073 2 0 cbr 210 ------- 1 0.1 1073741824.0 26 52
- 0.481073 2 0 cbr 210 ------- 1 0.1 1073741824.0 26 52
+ 0.481073 2 4 cbr 210 ------- 1 0.1 1073741824.0 26 52
- 0.481073 2 4 cbr 210 ------- 1 0.1 1073741824.0 26 52
r 0.481203 2 5 encap 230 ------- 0 0.2 5.0 -1 59
+ 0.481203 5 2 cbr 210 ------- 1 0.1 1073741824.0 29 58
- 0.481203 5 2 cbr 210 ------- 1 0.1 1073741824.0 29 58
r 0.481227 0 2 encap 230 ------- 0 0.2 5.0 -1 65
+ 0.481227 2 5 encap 230 ------- 0 0.2 5.0 -1 65
- 0.481227 2 5 encap 230 ------- 0 0.2 5.0 -1 65
+ 0.48125 0 2 encap 230 ------- 0 0.2 5.0 -1 71
- 0.48125 0 2 encap 230 ------- 0 0.2 5.0 -1 71
r 0.484433 1 3 cbr 210 ------- 1 0.1 1073741824.0 18 36
r 0.484563 0 1 cbr 210 ------- 1 0.1 1073741824.0 21 42
+ 0.484563 1 3 cbr 210 ------- 1 0.1 1073741824.0 21 42
- 0.484563 1 3 cbr 210 ------- 1 0.1 1073741824.0 21 42
r 0.484693 2 0 cbr 210 ------- 1 0.1 1073741824.0 24 48
+ 0.484693 0 1 cbr 210 ------- 1 0.1 1073741824.0 24 48