+ 1 1 0 cbr 210 ------- 0 1.1 1073741824.0 0 0
- 1 1 0 cbr 210 ------- 0 1.1 1073741824.0 0 0
+ 1 1 2 cbr 210 ------- 0 1.1 1073741824.0 0 0
- 1 1 2 cbr 210 ------- 0 1.1 1073741824.0 0 0
+ 1 1 3 cbr 210 ------- 0 1.1 1073741824.0 0 0
- 1 1 3 cbr 210 ------- 0 1.1 1073741824.0 0 0
+ 1.00375 1 0 cbr 210 ------- 0 1.1 1073741824.0 1 1
- 1.00375 1 0 cbr 210 ------- 0 1.1 1073741824.0 1 1
+ 1.00375 1 2 cbr 210 ------- 0 1.1 1073741824.0 1 1
- 1.00375 1 2 cbr 210 ------- 0 1.1 1073741824.0 1 1
+ 1.00375 1 3 cbr 210 ------- 0 1.1 1073741824.0 1 1
- 1.00375 1 3 cbr 210 ------- 0 1.1 1073741824.0 1 1
+ 1.0075 1 0 cbr 210 ------- 0 1.1 1073741824.0 2 2
- 1.0075 1 0 cbr 210 ------- 0 1.1 1073741824.0 2 2
+ 1.0075 1 2 cbr 210 ------- 0 1.1 1073741824.0 2 2
- 1.0075 1 2 cbr 210 ------- 0 1.1 1073741824.0 2 2
+ 1.0075 1 3 cbr 210 ------- 0 1.1 1073741824.0 2 2
- 1.0075 1 3 cbr 210 ------- 0 1.1 1073741824.0 2 2
r 1.01112 1 0 cbr 210 ------- 0 1.1 1073741824.0 0 0
+ 1.01112 0 1 prune 80 ------- 30 0.0 1.0 -1 3
- 1.01112 0 1 prune 80 ------- 30 0.0 1.0 -1 3
r 1.01112 1 2 cbr 210 ------- 0 1.1 1073741824.0 0 0
+ 1.01112 2 1 prune 80 ------- 30 2.0 1.0 -1 4
- 1.01112 2 1 prune 80 ------- 30 2.0 1.0 -1 4
r 1.01112 1 3 cbr 210 ------- 0 1.1 1073741824.0 0 0
+ 1.01112 3 1 prune 80 ------- 30 3.0 1.0 -1 5
- 1.01112 3 1 prune 80 ------- 30 3.0 1.0 -1 5
+ 1.01125 1 0 cbr 210 ------- 0 1.1 1073741824.0 3 6
- 1.01125 1 0 cbr 210 ------- 0 1.1 1073741824.0 3 6
+ 1.01125 1 2 cbr 210 ------- 0 1.1 1073741824.0 3 6
- 1.01125 1 2 cbr 210 ------- 0 1.1 1073741824.0 3 6
+ 1.01125 1 3 cbr 210 ------- 0 1.1 1073741824.0 3 6
- 1.01125 1 3 cbr 210 ------- 0 1.1 1073741824.0 3 6
r 1.01487 1 0 cbr 210 ------- 0 1.1 1073741824.0 1 1
+ 1.01487 0 1 prune 80 ------- 30 0.0 1.0 -1 7
- 1.01487 0 1 prune 80 ------- 30 0.0 1.0 -1 7
r 1.01487 1 2 cbr 210 ------- 0 1.1 1073741824.0 1 1
+ 1.01487 2 1 prune 80 ------- 30 2.0 1.0 -1 8
- 1.01487 2 1 prune 80 ------- 30 2.0 1.0 -1 8
r 1.01487 1 3 cbr 210 ------- 0 1.1 1073741824.0 1 1
+ 1.01487 3 1 prune 80 ------- 30 3.0 1.0 -1 9
- 1.01487 3 1 prune 80 ------- 30 3.0 1.0 -1 9
+ 1.015 1 0 cbr 210 ------- 0 1.1 1073741824.0 4 10
- 1.015 1 0 cbr 210 ------- 0 1.1 1073741824.0 4 10
+ 1.015 1 2 cbr 210 ------- 0 1.1 1073741824.0 4 10
- 1.015 1 2 cbr 210 ------- 0 1.1 1073741824.0 4 10
+ 1.015 1 3 cbr 210 ------- 0 1.1 1073741824.0 4 10
- 1.015 1 3 cbr 210 ------- 0 1.1 1073741824.0 4 10
r 1.01862 1 0 cbr 210 ------- 0 1.1 1073741824.0 2 2
+ 1.01862 0 1 prune 80 ------- 30 0.0 1.0 -1 11
- 1.01862 0 1 prune 80 ------- 30 0.0 1.0 -1 11
r 1.01862 1 2 cbr 210 ------- 0 1.1 1073741824.0 2 2
+ 1.01862 2 1 prune 80 ------- 30 2.0 1.0 -1 12
- 1.01862 2 1 prune 80 ------- 30 2.0 1.0 -1 12
r 1.01862 1 3 cbr 210 ------- 0 1.1 1073741824.0 2 2
+ 1.01862 3 1 prune 80 ------- 30 3.0 1.0 -1 13
- 1.01862 3 1 prune 80 ------- 30 3.0 1.0 -1 13
+ 1.01875 1 0 cbr 210 ------- 0 1.1 1073741824.0 5 14
- 1.01875 1 0 cbr 210 ------- 0 1.1 1073741824.0 5 14
+ 1.01875 1 2 cbr 210 ------- 0 1.1 1073741824.0 5 14
- 1.01875 1 2 cbr 210 ------- 0 1.1 1073741824.0 5 14
+ 1.01875 1 3 cbr 210 ------- 0 1.1 1073741824.0 5 14
- 1.01875 1 3 cbr 210 ------- 0 1.1 1073741824.0 5 14
r 1.021547 0 1 prune 80 ------- 30 0.0 1.0 -1 3
r 1.021547 2 1 prune 80 ------- 30 2.0 1.0 -1 4
r 1.021547 3 1 prune 80 ------- 30 3.0 1.0 -1 5
r 1.02237 1 0 cbr 210 ------- 0 1.1 1073741824.0 3 6
+ 1.02237 0 1 prune 80 ------- 30 0.0 1.0 -1 15
- 1.02237 0 1 prune 80 ------- 30 0.0 1.0 -1 15
r 1.02237 1 2 cbr 210 ------- 0 1.1 1073741824.0 3 6
+ 1.02237 2 1 prune 80 ------- 30 2.0 1.0 -1 16
- 1.02237 2 1 prune 80 ------- 30 2.0 1.0 -1 16
r 1.02237 1 3 cbr 210 ------- 0 1.1 1073741824.0 3 6
+ 1.02237 3 1 prune 80 ------- 30 3.0 1.0 -1 17
- 1.02237 3 1 prune 80 ------- 30 3.0 1.0 -1 17
r 1.025297 0 1 prune 80 ------- 30 0.0 1.0 -1 7
r 1.025297 2 1 prune 80 ------- 30 2.0 1.0 -1 8
r 1.025297 3 1 prune 80 ------- 30 3.0 1.0 -1 9
r 1.02612 1 0 cbr 210 ------- 0 1.1 1073741824.0 4 10
+ 1.02612 0 1 prune 80 ------- 30 0.0 1.0 -1 19
- 1.02612 0 1 prune 80 ------- 30 0.0 1.0 -1 19
r 1.02612 1 2 cbr 210 ------- 0 1.1 1073741824.0 4 10
+ 1.02612 2 1 prune 80 ------- 30 2.0 1.0 -1 20
- 1.02612 2 1 prune 80 ------- 30 2.0 1.0 -1 20
r 1.02612 1 3 cbr 210 ------- 0 1.1 1073741824.0 4 10
+ 1.02612 3 1 prune 80 ------- 30 3.0 1.0 -1 21
- 1.02612 3 1 prune 80 ------- 30 3.0 1.0 -1 21
r 1.029047 0 1 prune 80 ------- 30 0.0 1.0 -1 11
r 1.029047 2 1 prune 80 ------- 30 2.0 1.0 -1 12
r 1.029047 3 1 prune 80 ------- 30 3.0 1.0 -1 13
r 1.02987 1 0 cbr 210 ------- 0 1.1 1073741824.0 5 14
+ 1.02987 0 1 prune 80 ------- 30 0.0 1.0 -1 23
- 1.02987 0 1 prune 80 ------- 30 0.0 1.0 -1 23
r 1.02987 1 2 cbr 210 ------- 0 1.1 1073741824.0 5 14
+ 1.02987 2 1 prune 80 ------- 30 2.0 1.0 -1 24
- 1.02987 2 1 prune 80 ------- 30 2.0 1.0 -1 24
r 1.02987 1 3 cbr 210 ------- 0 1.1 1073741824.0 5 14
+ 1.02987 3 1 prune 80 ------- 30 3.0 1.0 -1 25
- 1.02987 3 1 prune 80 ------- 30 3.0 1.0 -1 25
r 1.032797 0 1 prune 80 ------- 30 0.0 1.0 -1 15
r 1.032797 2 1 prune 80 ------- 30 2.0 1.0 -1 16
r 1.032797 3 1 prune 80 ------- 30 3.0 1.0 -1 17
r 1.036547 0 1 prune 80 ------- 30 0.0 1.0 -1 19
r 1.036547 2 1 prune 80 ------- 30 2.0 1.0 -1 20
r 1.036547 3 1 prune 80 ------- 30 3.0 1.0 -1 21
r 1.040297 0 1 prune 80 ------- 30 0.0 1.0 -1 23
r 1.040297 2 1 prune 80 ------- 30 2.0 1.0 -1 24
r 1.040297 3 1 prune 80 ------- 30 3.0 1.0 -1 25
+ 1.1 3 1 cbr 210 ------- 1 3.1 1073741825.0 0 45
- 1.1 3 1 cbr 210 ------- 1 3.1 1073741825.0 0 45
+ 1.10375 3 1 cbr 210 ------- 1 3.1 1073741825.0 1 47
- 1.10375 3 1 cbr 210 ------- 1 3.1 1073741825.0 1 47
+ 1.1075 3 1 cbr 210 ------- 1 3.1 1073741825.0 2 49
- 1.1075 3 1 cbr 210 ------- 1 3.1 1073741825.0 2 49
r 1.11112 3 1 cbr 210 ------- 1 3.1 1073741825.0 0 45
+ 1.11112 1 0 cbr 210 ------- 1 3.1 1073741825.0 0 45
- 1.11112 1 0 cbr 210 ------- 1 3.1 1073741825.0 0 45
+ 1.11112 1 2 cbr 210 ------- 1 3.1 1073741825.0 0 45
- 1.11112 1 2 cbr 210 ------- 1 3.1 1073741825.0 0 45
+ 1.11125 3 1 cbr 210 ------- 1 3.1 1073741825.0 3 51
- 1.11125 3 1 cbr 210 ------- 1 3.1 1073741825.0 3 51
r 1.11487 3 1 cbr 210 ------- 1 3.1 1073741825.0 1 47
+ 1.11487 1 0 cbr 210 ------- 1 3.1 1073741825.0 1 47
- 1.11487 1 0 cbr 210 ------- 1 3.1 1073741825.0 1 47
+ 1.11487 1 2 cbr 210 ------- 1 3.1 1073741825.0 1 47
- 1.11487 1 2 cbr 210 ------- 1 3.1 1073741825.0 1 47
+ 1.115 3 1 cbr 210 ------- 1 3.1 1073741825.0 4 53
- 1.115 3 1 cbr 210 ------- 1 3.1 1073741825.0 4 53
r 1.11862 3 1 cbr 210 ------- 1 3.1 1073741825.0 2 49
+ 1.11862 1 0 cbr 210 ------- 1 3.1 1073741825.0 2 49
- 1.11862 1 0 cbr 210 ------- 1 3.1 1073741825.0 2 49
+ 1.11862 1 2 cbr 210 ------- 1 3.1 1073741825.0 2 49
- 1.11862 1 2 cbr 210 ------- 1 3.1 1073741825.0 2 49
+ 1.11875 3 1 cbr 210 ------- 1 3.1 1073741825.0 5 55
- 1.11875 3 1 cbr 210 ------- 1 3.1 1073741825.0 5 55
r 1.12224 1 0 cbr 210 ------- 1 3.1 1073741825.0 0 45
+ 1.12224 0 1 prune 80 ------- 30 0.0 1.0 -1 57
- 1.12224 0 1 prune 80 ------- 30 0.0 1.0 -1 57
r 1.12224 1 2 cbr 210 ------- 1 3.1 1073741825.0 0 45
+ 1.12224 2 1 prune 80 ------- 30 2.0 1.0 -1 58
- 1.12224 2 1 prune 80 ------- 30 2.0 1.0 -1 58
r 1.12237 3 1 cbr 210 ------- 1 3.1 1073741825.0 3 51
+ 1.12237 1 0 cbr 210 ------- 1 3.1 1073741825.0 3 51
- 1.12237 1 0 cbr 210 ------- 1 3.1 1073741825.0 3 51
+ 1.12237 1 2 cbr 210 ------- 1 3.1 1073741825.0 3 51
- 1.12237 1 2 cbr 210 ------- 1 3.1 1073741825.0 3 51
+ 1.1225 3 1 cbr 210 ------- 1 3.1 1073741825.0 6 59
- 1.1225 3 1 cbr 210 ------- 1 3.1 1073741825.0 6 59
r 1.12599 1 0 cbr 210 ------- 1 3.1 1073741825.0 1 47
+ 1.12599 0 1 prune 80 ------- 30 0.0 1.0 -1 61
- 1.12599 0 1 prune 80 ------- 30 0.0 1.0 -1 61
r 1.12599 1 2 cbr 210 ------- 1 3.1 1073741825.0 1 47
+ 1.12599 2 1 prune 80 ------- 30 2.0 1.0 -1 62
- 1.12599 2 1 prune 80 ------- 30 2.0 1.0 -1 62
r 1.12612 3 1 cbr 210 ------- 1 3.1 1073741825.0 4 53
+ 1.12612 1 0 cbr 210 ------- 1 3.1 1073741825.0 4 53
- 1.12612 1 0 cbr 210 ------- 1 3.1 1073741825.0 4 53
+ 1.12612 1 2 cbr 210 ------- 1 3.1 1073741825.0 4 53
- 1.12612 1 2 cbr 210 ------- 1 3.1 1073741825.0 4 53
+ 1.12625 3 1 cbr 210 ------- 1 3.1 1073741825.0 7 63
- 1.12625 3 1 cbr 210 ------- 1 3.1 1073741825.0 7 63
r 1.12974 1 0 cbr 210 ------- 1 3.1 1073741825.0 2 49
+ 1.12974 0 1 prune 80 ------- 30 0.0 1.0 -1 65
- 1.12974 0 1 prune 80 ------- 30 0.0 1.0 -1 65
r 1.12974 1 2 cbr 210 ------- 1 3.1 1073741825.0 2 49
+ 1.12974 2 1 prune 80 ------- 30 2.0 1.0 -1 66
- 1.12974 2 1 prune 80 ------- 30 2.0 1.0 -1 66
r 1.12987 3 1 cbr 210 ------- 1 3.1 1073741825.0 5 55
+ 1.12987 1 0 cbr 210 ------- 1 3.1 1073741825.0 5 55
- 1.12987 1 0 cbr 210 ------- 1 3.1 1073741825.0 5 55
+ 1.12987 1 2 cbr 210 ------- 1 3.1 1073741825.0 5 55
- 1.12987 1 2 cbr 210 ------- 1 3.1 1073741825.0 5 55
+ 1.13 3 1 cbr 210 ------- 1 3.1 1073741825.0 8 67
- 1.13 3 1 cbr 210 ------- 1 3.1 1073741825.0 8 67
r 1.132667 0 1 prune 80 ------- 30 0.0 1.0 -1 57
r 1.132667 2 1 prune 80 ------- 30 2.0 1.0 -1 58
+ 1.132667 1 3 prune 80 ------- 30 1.0 3.0 -1 69
- 1.132667 1 3 prune 80 ------- 30 1.0 3.0 -1 69
r 1.13349 1 0 cbr 210 ------- 1 3.1 1073741825.0 3 51
+ 1.13349 0 1 prune 80 ------- 30 0.0 1.0 -1 70
- 1.13349 0 1 prune 80 ------- 30 0.0 1.0 -1 70
r 1.13349 1 2 cbr 210 ------- 1 3.1 1073741825.0 3 51
+ 1.13349 2 1 prune 80 ------- 30 2.0 1.0 -1 71
- 1.13349 2 1 prune 80 ------- 30 2.0 1.0 -1 71
r 1.13362 3 1 cbr 210 ------- 1 3.1 1073741825.0 6 59
+ 1.13362 1 3 prune 80 ------- 30 1.0 3.0 -1 72
- 1.13362 1 3 prune 80 ------- 30 1.0 3.0 -1 72
+ 1.13375 3 1 cbr 210 ------- 1 3.1 1073741825.0 9 73
- 1.13375 3 1 cbr 210 ------- 1 3.1 1073741825.0 9 73
r 1.136417 0 1 prune 80 ------- 30 0.0 1.0 -1 61
r 1.136417 2 1 prune 80 ------- 30 2.0 1.0 -1 62
r 1.13724 1 0 cbr 210 ------- 1 3.1 1073741825.0 4 53
+ 1.13724 0 1 prune 80 ------- 30 0.0 1.0 -1 75
- 1.13724 0 1 prune 80 ------- 30 0.0 1.0 -1 75
r 1.13724 1 2 cbr 210 ------- 1 3.1 1073741825.0 4 53
+ 1.13724 2 1 prune 80 ------- 30 2.0 1.0 -1 76
- 1.13724 2 1 prune 80 ------- 30 2.0 1.0 -1 76
r 1.13737 3 1 cbr 210 ------- 1 3.1 1073741825.0 7 63
+ 1.13737 1 3 prune 80 ------- 30 1.0 3.0 -1 77
- 1.13737 1 3 prune 80 ------- 30 1.0 3.0 -1 77
+ 1.1375 3 1 cbr 210 ------- 1 3.1 1073741825.0 10 78
- 1.1375 3 1 cbr 210 ------- 1 3.1 1073741825.0 10 78
r 1.140167 0 1 prune 80 ------- 30 0.0 1.0 -1 65
r 1.140167 2 1 prune 80 ------- 30 2.0 1.0 -1 66
r 1.14099 1 0 cbr 210 ------- 1 3.1 1073741825.0 5 55
+ 1.14099 0 1 prune 80 ------- 30 0.0 1.0 -1 80
- 1.14099 0 1 prune 80 ------- 30 0.0 1.0 -1 80
r 1.14099 1 2 cbr 210 ------- 1 3.1 1073741825.0 5 55
+ 1.14099 2 1 prune 80 ------- 30 2.0 1.0 -1 81
- 1.14099 2 1 prune 80 ------- 30 2.0 1.0 -1 81
r 1.14112 3 1 cbr 210 ------- 1 3.1 1073741825.0 8 67
+ 1.14112 1 3 prune 80 ------- 30 1.0 3.0 -1 82
- 1.14112 1 3 prune 80 ------- 30 1.0 3.0 -1 82
+ 1.14125 3 1 cbr 210 ------- 1 3.1 1073741825.0 11 83
- 1.14125 3 1 cbr 210 ------- 1 3.1 1073741825.0 11 83
r 1.143093 1 3 prune 80 ------- 30 1.0 3.0 -1 69
r 1.143917 0 1 prune 80 ------- 30 0.0 1.0 -1 70
r 1.143917 2 1 prune 80 ------- 30 2.0 1.0 -1 71
r 1.144047 1 3 prune 80 ------- 30 1.0 3.0 -1 72
r 1.14487 3 1 cbr 210 ------- 1 3.1 1073741825.0 9 73
+ 1.14487 1 3 prune 80 ------- 30 1.0 3.0 -1 85
- 1.14487 1 3 prune 80 ------- 30 1.0 3.0 -1 85
r 1.147667 0 1 prune 80 ------- 30 0.0 1.0 -1 75
r 1.147667 2 1 prune 80 ------- 30 2.0 1.0 -1 76
r 1.147797 1 3 prune 80 ------- 30 1.0 3.0 -1 77
r 1.14862 3 1 cbr 210 ------- 1 3.1 1073741825.0 10 78
+ 1.14862 1 3 prune 80 ------- 30 1.0 3.0 -1 88
- 1.14862 1 3 prune 80 ------- 30 1.0 3.0 -1 88
r 1.151417 0 1 prune 80 ------- 30 0.0 1.0 -1 80
r 1.151417 2 1 prune 80 ------- 30 2.0 1.0 -1 81
r 1.151547 1 3 prune 80 ------- 30 1.0 3.0 -1 82
r 1.15237 3 1 cbr 210 ------- 1 3.1 1073741825.0 11 83
+ 1.15237 1 3 prune 80 ------- 30 1.0 3.0 -1 91
- 1.15237 1 3 prune 80 ------- 30 1.0 3.0 -1 91
r 1.155297 1 3 prune 80 ------- 30 1.0 3.0 -1 85
r 1.159047 1 3 prune 80 ------- 30 1.0 3.0 -1 88
r 1.162797 1 3 prune 80 ------- 30 1.0 3.0 -1 91
v 1.2 eval {set sim_annotation {1.2 2 join-group 1073741825}}
+ 1.2 2 1 graft 80 ------- 31 2.0 1.0 -1 118
- 1.2 2 1 graft 80 ------- 31 2.0 1.0 -1 118
r 1.210427 2 1 graft 80 ------- 31 2.0 1.0 -1 118
+ 1.210427 1 3 graft 80 ------- 31 1.0 3.0 -1 125
- 1.210427 1 3 graft 80 ------- 31 1.0 3.0 -1 125
r 1.220853 1 3 graft 80 ------- 31 1.0 3.0 -1 125
+ 1.22375 3 1 cbr 210 ------- 1 3.1 1073741825.0 33 132
- 1.22375 3 1 cbr 210 ------- 1 3.1 1073741825.0 33 132
+ 1.2275 3 1 cbr 210 ------- 1 3.1 1073741825.0 34 134
- 1.2275 3 1 cbr 210 ------- 1 3.1 1073741825.0 34 134
+ 1.23125 3 1 cbr 210 ------- 1 3.1 1073741825.0 35 136
- 1.23125 3 1 cbr 210 ------- 1 3.1 1073741825.0 35 136
r 1.23487 3 1 cbr 210 ------- 1 3.1 1073741825.0 33 132
+ 1.23487 1 2 cbr 210 ------- 1 3.1 1073741825.0 33 132
- 1.23487 1 2 cbr 210 ------- 1 3.1 1073741825.0 33 132
+ 1.235 3 1 cbr 210 ------- 1 3.1 1073741825.0 36 138
- 1.235 3 1 cbr 210 ------- 1 3.1 1073741825.0 36 138
r 1.23862 3 1 cbr 210 ------- 1 3.1 1073741825.0 34 134
+ 1.23862 1 2 cbr 210 ------- 1 3.1 1073741825.0 34 134
- 1.23862 1 2 cbr 210 ------- 1 3.1 1073741825.0 34 134
+ 1.23875 3 1 cbr 210 ------- 1 3.1 1073741825.0 37 140
- 1.23875 3 1 cbr 210 ------- 1 3.1 1073741825.0 37 140
r 1.24237 3 1 cbr 210 ------- 1 3.1 1073741825.0 35 136
+ 1.24237 1 2 cbr 210 ------- 1 3.1 1073741825.0 35 136
- 1.24237 1 2 cbr 210 ------- 1 3.1 1073741825.0 35 136
+ 1.2425 3 1 cbr 210 ------- 1 3.1 1073741825.0 38 142
- 1.2425 3 1 cbr 210 ------- 1 3.1 1073741825.0 38 142
r 1.24599 1 2 cbr 210 ------- 1 3.1 1073741825.0 33 132
r 1.24612 3 1 cbr 210 ------- 1 3.1 1073741825.0 36 138
+ 1.24612 1 2 cbr 210 ------- 1 3.1 1073741825.0 36 138
- 1.24612 1 2 cbr 210 ------- 1 3.1 1073741825.0 36 138
+ 1.24625 3 1 cbr 210 ------- 1 3.1 1073741825.0 39 144
- 1.24625 3 1 cbr 210 ------- 1 3.1 1073741825.0 39 144
r 1.24974 1 2 cbr 210 ------- 1 3.1 1073741825.0 34 134
r 1.24987 3 1 cbr 210 ------- 1 3.1 1073741825.0 37 140
+ 1.24987 1 2 cbr 210 ------- 1 3.1 1073741825.0 37 140
- 1.24987 1 2 cbr 210 ------- 1 3.1 1073741825.0 37 140
+ 1.25 3 1 cbr 210 ------- 1 3.1 1073741825.0 40 146
- 1.25 3 1 cbr 210 ------- 1 3.1 1073741825.0 40 146
v 1.25 eval {set sim_annotation {1.25 2 leave-group 1073741825}}
r 1.25349 1 2 cbr 210 ------- 1 3.1 1073741825.0 35 136
+ 1.25349 2 1 prune 80 ------- 30 2.0 1.0 -1 148
- 1.25349 2 1 prune 80 ------- 30 2.0 1.0 -1 148
r 1.25362 3 1 cbr 210 ------- 1 3.1 1073741825.0 38 142
+ 1.25362 1 2 cbr 210 ------- 1 3.1 1073741825.0 38 142
- 1.25362 1 2 cbr 210 ------- 1 3.1 1073741825.0 38 142
+ 1.25375 3 1 cbr 210 ------- 1 3.1 1073741825.0 41 149
- 1.25375 3 1 cbr 210 ------- 1 3.1 1073741825.0 41 149
r 1.25724 1 2 cbr 210 ------- 1 3.1 1073741825.0 36 138
+ 1.25724 2 1 prune 80 ------- 30 2.0 1.0 -1 151
- 1.25724 2 1 prune 80 ------- 30 2.0 1.0 -1 151
r 1.25737 3 1 cbr 210 ------- 1 3.1 1073741825.0 39 144
+ 1.25737 1 2 cbr 210 ------- 1 3.1 1073741825.0 39 144
- 1.25737 1 2 cbr 210 ------- 1 3.1 1073741825.0 39 144
+ 1.2575 3 1 cbr 210 ------- 1 3.1 1073741825.0 42 152
- 1.2575 3 1 cbr 210 ------- 1 3.1 1073741825.0 42 152
r 1.26099 1 2 cbr 210 ------- 1 3.1 1073741825.0 37 140
+ 1.26099 2 1 prune 80 ------- 30 2.0 1.0 -1 154
- 1.26099 2 1 prune 80 ------- 30 2.0 1.0 -1 154
r 1.26112 3 1 cbr 210 ------- 1 3.1 1073741825.0 40 146
+ 1.26112 1 2 cbr 210 ------- 1 3.1 1073741825.0 40 146
- 1.26112 1 2 cbr 210 ------- 1 3.1 1073741825.0 40 146
+ 1.26125 3 1 cbr 210 ------- 1 3.1 1073741825.0 43 155
- 1.26125 3 1 cbr 210 ------- 1 3.1 1073741825.0 43 155
r 1.263917 2 1 prune 80 ------- 30 2.0 1.0 -1 148
+ 1.263917 1 3 prune 80 ------- 30 1.0 3.0 -1 157
- 1.263917 1 3 prune 80 ------- 30 1.0 3.0 -1 157
r 1.26474 1 2 cbr 210 ------- 1 3.1 1073741825.0 38 142
+ 1.26474 2 1 prune 80 ------- 30 2.0 1.0 -1 158
- 1.26474 2 1 prune 80 ------- 30 2.0 1.0 -1 158
r 1.26487 3 1 cbr 210 ------- 1 3.1 1073741825.0 41 149
+ 1.26487 1 3 prune 80 ------- 30 1.0 3.0 -1 159
- 1.26487 1 3 prune 80 ------- 30 1.0 3.0 -1 159
+ 1.265 3 1 cbr 210 ------- 1 3.1 1073741825.0 44 160
- 1.265 3 1 cbr 210 ------- 1 3.1 1073741825.0 44 160
r 1.267667 2 1 prune 80 ------- 30 2.0 1.0 -1 151
r 1.26849 1 2 cbr 210 ------- 1 3.1 1073741825.0 39 144
+ 1.26849 2 1 prune 80 ------- 30 2.0 1.0 -1 162
- 1.26849 2 1 prune 80 ------- 30 2.0 1.0 -1 162
r 1.26862 3 1 cbr 210 ------- 1 3.1 1073741825.0 42 152
+ 1.26862 1 3 prune 80 ------- 30 1.0 3.0 -1 163
- 1.26862 1 3 prune 80 ------- 30 1.0 3.0 -1 163
+ 1.26875 3 1 cbr 210 ------- 1 3.1 1073741825.0 45 164
- 1.26875 3 1 cbr 210 ------- 1 3.1 1073741825.0 45 164
r 1.271417 2 1 prune 80 ------- 30 2.0 1.0 -1 154
r 1.27224 1 2 cbr 210 ------- 1 3.1 1073741825.0 40 146
+ 1.27224 2 1 prune 80 ------- 30 2.0 1.0 -1 166
- 1.27224 2 1 prune 80 ------- 30 2.0 1.0 -1 166
r 1.27237 3 1 cbr 210 ------- 1 3.1 1073741825.0 43 155
+ 1.27237 1 3 prune 80 ------- 30 1.0 3.0 -1 167
- 1.27237 1 3 prune 80 ------- 30 1.0 3.0 -1 167
+ 1.2725 3 1 cbr 210 ------- 1 3.1 1073741825.0 46 168
- 1.2725 3 1 cbr 210 ------- 1 3.1 1073741825.0 46 168
r 1.274343 1 3 prune 80 ------- 30 1.0 3.0 -1 157
r 1.275167 2 1 prune 80 ------- 30 2.0 1.0 -1 158
r 1.275297 1 3 prune 80 ------- 30 1.0 3.0 -1 159
r 1.27612 3 1 cbr 210 ------- 1 3.1 1073741825.0 44 160
+ 1.27612 1 3 prune 80 ------- 30 1.0 3.0 -1 170
- 1.27612 1 3 prune 80 ------- 30 1.0 3.0 -1 170
r 1.278917 2 1 prune 80 ------- 30 2.0 1.0 -1 162
r 1.279047 1 3 prune 80 ------- 30 1.0 3.0 -1 163
r 1.27987 3 1 cbr 210 ------- 1 3.1 1073741825.0 45 164
+ 1.27987 1 3 prune 80 ------- 30 1.0 3.0 -1 173
- 1.27987 1 3 prune 80 ------- 30 1.0 3.0 -1 173
r 1.282667 2 1 prune 80 ------- 30 2.0 1.0 -1 166
r 1.282797 1 3 prune 80 ------- 30 1.0 3.0 -1 167
r 1.28362 3 1 cbr 210 ------- 1 3.1 1073741825.0 46 168
+ 1.28362 1 3 prune 80 ------- 30 1.0 3.0 -1 176
- 1.28362 1 3 prune 80 ------- 30 1.0 3.0 -1 176
r 1.286547 1 3 prune 80 ------- 30 1.0 3.0 -1 170
r 1.290297 1 3 prune 80 ------- 30 1.0 3.0 -1 173
r 1.294047 1 3 prune 80 ------- 30 1.0 3.0 -1 176
v 1.3 eval {set sim_annotation {1.3 2 join-group 1073741825}}
+ 1.3 2 1 graft 80 ------- 31 2.0 1.0 -1 187
- 1.3 2 1 graft 80 ------- 31 2.0 1.0 -1 187
r 1.310427 2 1 graft 80 ------- 31 2.0 1.0 -1 187
+ 1.310427 1 3 graft 80 ------- 31 1.0 3.0 -1 193
- 1.310427 1 3 graft 80 ------- 31 1.0 3.0 -1 193
r 1.320853 1 3 graft 80 ------- 31 1.0 3.0 -1 193
+ 1.32125 3 1 cbr 210 ------- 1 3.1 1073741825.0 59 199
- 1.32125 3 1 cbr 210 ------- 1 3.1 1073741825.0 59 199
+ 1.325 3 1 cbr 210 ------- 1 3.1 1073741825.0 60 201
- 1.325 3 1 cbr 210 ------- 1 3.1 1073741825.0 60 201
+ 1.32875 3 1 cbr 210 ------- 1 3.1 1073741825.0 61 203
- 1.32875 3 1 cbr 210 ------- 1 3.1 1073741825.0 61 203
r 1.33237 3 1 cbr 210 ------- 1 3.1 1073741825.0 59 199
+ 1.33237 1 2 cbr 210 ------- 1 3.1 1073741825.0 59 199
- 1.33237 1 2 cbr 210 ------- 1 3.1 1073741825.0 59 199
+ 1.3325 3 1 cbr 210 ------- 1 3.1 1073741825.0 62 205
- 1.3325 3 1 cbr 210 ------- 1 3.1 1073741825.0 62 205
r 1.33612 3 1 cbr 210 ------- 1 3.1 1073741825.0 60 201
+ 1.33612 1 2 cbr 210 ------- 1 3.1 1073741825.0 60 201
- 1.33612 1 2 cbr 210 ------- 1 3.1 1073741825.0 60 201
+ 1.33625 3 1 cbr 210 ------- 1 3.1 1073741825.0 63 207
- 1.33625 3 1 cbr 210 ------- 1 3.1 1073741825.0 63 207
r 1.33987 3 1 cbr 210 ------- 1 3.1 1073741825.0 61 203
+ 1.33987 1 2 cbr 210 ------- 1 3.1 1073741825.0 61 203
- 1.33987 1 2 cbr 210 ------- 1 3.1 1073741825.0 61 203
+ 1.34 3 1 cbr 210 ------- 1 3.1 1073741825.0 64 209
- 1.34 3 1 cbr 210 ------- 1 3.1 1073741825.0 64 209
r 1.34349 1 2 cbr 210 ------- 1 3.1 1073741825.0 59 199
r 1.34362 3 1 cbr 210 ------- 1 3.1 1073741825.0 62 205
+ 1.34362 1 2 cbr 210 ------- 1 3.1 1073741825.0 62 205
- 1.34362 1 2 cbr 210 ------- 1 3.1 1073741825.0 62 205
+ 1.34375 3 1 cbr 210 ------- 1 3.1 1073741825.0 65 211
- 1.34375 3 1 cbr 210 ------- 1 3.1 1073741825.0 65 211
r 1.34724 1 2 cbr 210 ------- 1 3.1 1073741825.0 60 201
r 1.34737 3 1 cbr 210 ------- 1 3.1 1073741825.0 63 207
+ 1.34737 1 2 cbr 210 ------- 1 3.1 1073741825.0 63 207
- 1.34737 1 2 cbr 210 ------- 1 3.1 1073741825.0 63 207
+ 1.3475 3 1 cbr 210 ------- 1 3.1 1073741825.0 66 213
- 1.3475 3 1 cbr 210 ------- 1 3.1 1073741825.0 66 213
v 1.35 eval {set sim_annotation {1.3500000000000001 2 join-group 1073741824}}
+ 1.35 2 1 graft 80 ------- 31 2.0 1.0 -1 215
- 1.35 2 1 graft 80 ------- 31 2.0 1.0 -1 215
r 1.35099 1 2 cbr 210 ------- 1 3.1 1073741825.0 61 203
r 1.35112 3 1 cbr 210 ------- 1 3.1 1073741825.0 64 209
+ 1.35112 1 2 cbr 210 ------- 1 3.1 1073741825.0 64 209
- 1.35112 1 2 cbr 210 ------- 1 3.1 1073741825.0 64 209
+ 1.35125 3 1 cbr 210 ------- 1 3.1 1073741825.0 67 216
- 1.35125 3 1 cbr 210 ------- 1 3.1 1073741825.0 67 216
r 1.35474 1 2 cbr 210 ------- 1 3.1 1073741825.0 62 205
r 1.35487 3 1 cbr 210 ------- 1 3.1 1073741825.0 65 211
+ 1.35487 1 2 cbr 210 ------- 1 3.1 1073741825.0 65 211
- 1.35487 1 2 cbr 210 ------- 1 3.1 1073741825.0 65 211
+ 1.355 3 1 cbr 210 ------- 1 3.1 1073741825.0 68 218
- 1.355 3 1 cbr 210 ------- 1 3.1 1073741825.0 68 218
r 1.35849 1 2 cbr 210 ------- 1 3.1 1073741825.0 63 207
r 1.35862 3 1 cbr 210 ------- 1 3.1 1073741825.0 66 213
+ 1.35862 1 2 cbr 210 ------- 1 3.1 1073741825.0 66 213
- 1.35862 1 2 cbr 210 ------- 1 3.1 1073741825.0 66 213
+ 1.35875 3 1 cbr 210 ------- 1 3.1 1073741825.0 69 220
- 1.35875 3 1 cbr 210 ------- 1 3.1 1073741825.0 69 220
r 1.360427 2 1 graft 80 ------- 31 2.0 1.0 -1 215
r 1.36224 1 2 cbr 210 ------- 1 3.1 1073741825.0 64 209
r 1.36237 3 1 cbr 210 ------- 1 3.1 1073741825.0 67 216
+ 1.36237 1 2 cbr 210 ------- 1 3.1 1073741825.0 67 216
- 1.36237 1 2 cbr 210 ------- 1 3.1 1073741825.0 67 216
+ 1.3625 3 1 cbr 210 ------- 1 3.1 1073741825.0 70 222
- 1.3625 3 1 cbr 210 ------- 1 3.1 1073741825.0 70 222
+ 1.36375 1 2 cbr 210 ------- 0 1.1 1073741824.0 97 223
- 1.36375 1 2 cbr 210 ------- 0 1.1 1073741824.0 97 223
r 1.36599 1 2 cbr 210 ------- 1 3.1 1073741825.0 65 211
r 1.36612 3 1 cbr 210 ------- 1 3.1 1073741825.0 68 218
+ 1.36612 1 2 cbr 210 ------- 1 3.1 1073741825.0 68 218
- 1.36612 1 2 cbr 210 ------- 1 3.1 1073741825.0 68 218
+ 1.36625 3 1 cbr 210 ------- 1 3.1 1073741825.0 71 224
- 1.36625 3 1 cbr 210 ------- 1 3.1 1073741825.0 71 224
+ 1.3675 1 2 cbr 210 ------- 0 1.1 1073741824.0 98 225
- 1.3675 1 2 cbr 210 ------- 0 1.1 1073741824.0 98 225
r 1.36974 1 2 cbr 210 ------- 1 3.1 1073741825.0 66 213
r 1.36987 3 1 cbr 210 ------- 1 3.1 1073741825.0 69 220
+ 1.36987 1 2 cbr 210 ------- 1 3.1 1073741825.0 69 220
- 1.36987 1 2 cbr 210 ------- 1 3.1 1073741825.0 69 220
+ 1.37 3 1 cbr 210 ------- 1 3.1 1073741825.0 72 226
- 1.37 3 1 cbr 210 ------- 1 3.1 1073741825.0 72 226
+ 1.37125 1 2 cbr 210 ------- 0 1.1 1073741824.0 99 227
- 1.37125 1 2 cbr 210 ------- 0 1.1 1073741824.0 99 227
r 1.37349 1 2 cbr 210 ------- 1 3.1 1073741825.0 67 216
r 1.37362 3 1 cbr 210 ------- 1 3.1 1073741825.0 70 222
+ 1.37362 1 2 cbr 210 ------- 1 3.1 1073741825.0 70 222
- 1.37362 1 2 cbr 210 ------- 1 3.1 1073741825.0 70 222
+ 1.37375 3 1 cbr 210 ------- 1 3.1 1073741825.0 73 228
- 1.37375 3 1 cbr 210 ------- 1 3.1 1073741825.0 73 228
r 1.37487 1 2 cbr 210 ------- 0 1.1 1073741824.0 97 223
+ 1.375 1 2 cbr 210 ------- 0 1.1 1073741824.0 100 229
- 1.375 1 2 cbr 210 ------- 0 1.1 1073741824.0 100 229
r 1.37724 1 2 cbr 210 ------- 1 3.1 1073741825.0 68 218
r 1.37737 3 1 cbr 210 ------- 1 3.1 1073741825.0 71 224
+ 1.37737 1 2 cbr 210 ------- 1 3.1 1073741825.0 71 224
- 1.37737 1 2 cbr 210 ------- 1 3.1 1073741825.0 71 224
+ 1.3775 3 1 cbr 210 ------- 1 3.1 1073741825.0 74 230
- 1.3775 3 1 cbr 210 ------- 1 3.1 1073741825.0 74 230
r 1.37862 1 2 cbr 210 ------- 0 1.1 1073741824.0 98 225
+ 1.37875 1 2 cbr 210 ------- 0 1.1 1073741824.0 101 231
- 1.37875 1 2 cbr 210 ------- 0 1.1 1073741824.0 101 231
r 1.38099 1 2 cbr 210 ------- 1 3.1 1073741825.0 69 220
r 1.38112 3 1 cbr 210 ------- 1 3.1 1073741825.0 72 226
+ 1.38112 1 2 cbr 210 ------- 1 3.1 1073741825.0 72 226
- 1.38112 1 2 cbr 210 ------- 1 3.1 1073741825.0 72 226
+ 1.38125 3 1 cbr 210 ------- 1 3.1 1073741825.0 75 232
- 1.38125 3 1 cbr 210 ------- 1 3.1 1073741825.0 75 232
r 1.38237 1 2 cbr 210 ------- 0 1.1 1073741824.0 99 227
+ 1.3825 1 2 cbr 210 ------- 0 1.1 1073741824.0 102 233
- 1.3825 1 2 cbr 210 ------- 0 1.1 1073741824.0 102 233
r 1.38474 1 2 cbr 210 ------- 1 3.1 1073741825.0 70 222
r 1.38487 3 1 cbr 210 ------- 1 3.1 1073741825.0 73 228
+ 1.38487 1 2 cbr 210 ------- 1 3.1 1073741825.0 73 228
- 1.38487 1 2 cbr 210 ------- 1 3.1 1073741825.0 73 228
+ 1.385 3 1 cbr 210 ------- 1 3.1 1073741825.0 76 234
- 1.385 3 1 cbr 210 ------- 1 3.1 1073741825.0 76 234
r 1.38612 1 2 cbr 210 ------- 0 1.1 1073741824.0 100 229
+ 1.38625 1 2 cbr 210 ------- 0 1.1 1073741824.0 103 235
- 1.38625 1 2 cbr 210 ------- 0 1.1 1073741824.0 103 235
r 1.38849 1 2 cbr 210 ------- 1 3.1 1073741825.0 71 224
r 1.38862 3 1 cbr 210 ------- 1 3.1 1073741825.0 74 230
+ 1.38862 1 2 cbr 210 ------- 1 3.1 1073741825.0 74 230
- 1.38862 1 2 cbr 210 ------- 1 3.1 1073741825.0 74 230
+ 1.38875 3 1 cbr 210 ------- 1 3.1 1073741825.0 77 236
- 1.38875 3 1 cbr 210 ------- 1 3.1 1073741825.0 77 236
r 1.38987 1 2 cbr 210 ------- 0 1.1 1073741824.0 101 231
+ 1.39 1 2 cbr 210 ------- 0 1.1 1073741824.0 104 237
- 1.39 1 2 cbr 210 ------- 0 1.1 1073741824.0 104 237
r 1.39224 1 2 cbr 210 ------- 1 3.1 1073741825.0 72 226
r 1.39237 3 1 cbr 210 ------- 1 3.1 1073741825.0 75 232
+ 1.39237 1 2 cbr 210 ------- 1 3.1 1073741825.0 75 232
- 1.39237 1 2 cbr 210 ------- 1 3.1 1073741825.0 75 232
+ 1.3925 3 1 cbr 210 ------- 1 3.1 1073741825.0 78 238
- 1.3925 3 1 cbr 210 ------- 1 3.1 1073741825.0 78 238
r 1.39362 1 2 cbr 210 ------- 0 1.1 1073741824.0 102 233
+ 1.39375 1 2 cbr 210 ------- 0 1.1 1073741824.0 105 239
- 1.39375 1 2 cbr 210 ------- 0 1.1 1073741824.0 105 239
r 1.39599 1 2 cbr 210 ------- 1 3.1 1073741825.0 73 228
r 1.39612 3 1 cbr 210 ------- 1 3.1 1073741825.0 76 234
+ 1.39612 1 2 cbr 210 ------- 1 3.1 1073741825.0 76 234
- 1.39612 1 2 cbr 210 ------- 1 3.1 1073741825.0 76 234
+ 1.39625 3 1 cbr 210 ------- 1 3.1 1073741825.0 79 240
- 1.39625 3 1 cbr 210 ------- 1 3.1 1073741825.0 79 240
r 1.39737 1 2 cbr 210 ------- 0 1.1 1073741824.0 103 235
+ 1.3975 1 2 cbr 210 ------- 0 1.1 1073741824.0 106 241
- 1.3975 1 2 cbr 210 ------- 0 1.1 1073741824.0 106 241
r 1.39974 1 2 cbr 210 ------- 1 3.1 1073741825.0 74 230
r 1.39987 3 1 cbr 210 ------- 1 3.1 1073741825.0 77 236
+ 1.39987 1 2 cbr 210 ------- 1 3.1 1073741825.0 77 236
- 1.39987 1 2 cbr 210 ------- 1 3.1 1073741825.0 77 236
+ 1.4 3 1 cbr 210 ------- 1 3.1 1073741825.0 80 242
- 1.4 3 1 cbr 210 ------- 1 3.1 1073741825.0 80 242
r 1.40112 1 2 cbr 210 ------- 0 1.1 1073741824.0 104 237
+ 1.40125 1 2 cbr 210 ------- 0 1.1 1073741824.0 107 243
- 1.40125 1 2 cbr 210 ------- 0 1.1 1073741824.0 107 243
r 1.40349 1 2 cbr 210 ------- 1 3.1 1073741825.0 75 232
r 1.40362 3 1 cbr 210 ------- 1 3.1 1073741825.0 78 238
+ 1.40362 1 2 cbr 210 ------- 1 3.1 1073741825.0 78 238
- 1.40362 1 2 cbr 210 ------- 1 3.1 1073741825.0 78 238
+ 1.40375 3 1 cbr 210 ------- 1 3.1 1073741825.0 81 244
- 1.40375 3 1 cbr 210 ------- 1 3.1 1073741825.0 81 244
r 1.40487 1 2 cbr 210 ------- 0 1.1 1073741824.0 105 239
+ 1.405 1 2 cbr 210 ------- 0 1.1 1073741824.0 108 245
- 1.405 1 2 cbr 210 ------- 0 1.1 1073741824.0 108 245
r 1.40724 1 2 cbr 210 ------- 1 3.1 1073741825.0 76 234
r 1.40737 3 1 cbr 210 ------- 1 3.1 1073741825.0 79 240
+ 1.40737 1 2 cbr 210 ------- 1 3.1 1073741825.0 79 240
- 1.40737 1 2 cbr 210 ------- 1 3.1 1073741825.0 79 240
+ 1.4075 3 1 cbr 210 ------- 1 3.1 1073741825.0 82 246
- 1.4075 3 1 cbr 210 ------- 1 3.1 1073741825.0 82 246
r 1.40862 1 2 cbr 210 ------- 0 1.1 1073741824.0 106 241
+ 1.40875 1 2 cbr 210 ------- 0 1.1 1073741824.0 109 247
- 1.40875 1 2 cbr 210 ------- 0 1.1 1073741824.0 109 247
r 1.41099 1 2 cbr 210 ------- 1 3.1 1073741825.0 77 236
r 1.41112 3 1 cbr 210 ------- 1 3.1 1073741825.0 80 242
+ 1.41112 1 2 cbr 210 ------- 1 3.1 1073741825.0 80 242
- 1.41112 1 2 cbr 210 ------- 1 3.1 1073741825.0 80 242
+ 1.41125 3 1 cbr 210 ------- 1 3.1 1073741825.0 83 248
- 1.41125 3 1 cbr 210 ------- 1 3.1 1073741825.0 83 248
r 1.41237 1 2 cbr 210 ------- 0 1.1 1073741824.0 107 243
+ 1.4125 1 2 cbr 210 ------- 0 1.1 1073741824.0 110 249
- 1.4125 1 2 cbr 210 ------- 0 1.1 1073741824.0 110 249
r 1.41474 1 2 cbr 210 ------- 1 3.1 1073741825.0 78 238
r 1.41487 3 1 cbr 210 ------- 1 3.1 1073741825.0 81 244
+ 1.41487 1 2 cbr 210 ------- 1 3.1 1073741825.0 81 244
- 1.41487 1 2 cbr 210 ------- 1 3.1 1073741825.0 81 244
+ 1.415 3 1 cbr 210 ------- 1 3.1 1073741825.0 84 250
- 1.415 3 1 cbr 210 ------- 1 3.1 1073741825.0 84 250
r 1.41612 1 2 cbr 210 ------- 0 1.1 1073741824.0 108 245
+ 1.41625 1 2 cbr 210 ------- 0 1.1 1073741824.0 111 251
- 1.41625 1 2 cbr 210 ------- 0 1.1 1073741824.0 111 251
r 1.41849 1 2 cbr 210 ------- 1 3.1 1073741825.0 79 240
r 1.41862 3 1 cbr 210 ------- 1 3.1 1073741825.0 82 246
+ 1.41862 1 2 cbr 210 ------- 1 3.1 1073741825.0 82 246
- 1.41862 1 2 cbr 210 ------- 1 3.1 1073741825.0 82 246
+ 1.41875 3 1 cbr 210 ------- 1 3.1 1073741825.0 85 252
- 1.41875 3 1 cbr 210 ------- 1 3.1 1073741825.0 85 252
r 1.41987 1 2 cbr 210 ------- 0 1.1 1073741824.0 109 247
+ 1.42 1 2 cbr 210 ------- 0 1.1 1073741824.0 112 253
- 1.42 1 2 cbr 210 ------- 0 1.1 1073741824.0 112 253
r 1.42224 1 2 cbr 210 ------- 1 3.1 1073741825.0 80 242
r 1.42237 3 1 cbr 210 ------- 1 3.1 1073741825.0 83 248
+ 1.42237 1 2 cbr 210 ------- 1 3.1 1073741825.0 83 248
- 1.42237 1 2 cbr 210 ------- 1 3.1 1073741825.0 83 248
+ 1.4225 3 1 cbr 210 ------- 1 3.1 1073741825.0 86 254
- 1.4225 3 1 cbr 210 ------- 1 3.1 1073741825.0 86 254
r 1.42362 1 2 cbr 210 ------- 0 1.1 1073741824.0 110 249
+ 1.42375 1 2 cbr 210 ------- 0 1.1 1073741824.0 113 255
- 1.42375 1 2 cbr 210 ------- 0 1.1 1073741824.0 113 255
r 1.42599 1 2 cbr 210 ------- 1 3.1 1073741825.0 81 244
r 1.42612 3 1 cbr 210 ------- 1 3.1 1073741825.0 84 250