v 0.2 eval {set sim_annotation {0.20000000000000001 3 join-group 1073741824}}
+ 0.3 0 1 cbr 210 ------- 0 0.1 1073741824.0 0 0
- 0.3 0 1 cbr 210 ------- 0 0.1 1073741824.0 0 0
+ 0.3 0 2 cbr 210 ------- 0 0.1 1073741824.0 0 0
- 0.3 0 2 cbr 210 ------- 0 0.1 1073741824.0 0 0
+ 0.30375 0 1 cbr 210 ------- 0 0.1 1073741824.0 1 1
- 0.30375 0 1 cbr 210 ------- 0 0.1 1073741824.0 1 1
+ 0.30375 0 2 cbr 210 ------- 0 0.1 1073741824.0 1 1
- 0.30375 0 2 cbr 210 ------- 0 0.1 1073741824.0 1 1
+ 0.3075 0 1 cbr 210 ------- 0 0.1 1073741824.0 2 2
- 0.3075 0 1 cbr 210 ------- 0 0.1 1073741824.0 2 2
+ 0.3075 0 2 cbr 210 ------- 0 0.1 1073741824.0 2 2
- 0.3075 0 2 cbr 210 ------- 0 0.1 1073741824.0 2 2
r 0.31112 0 1 cbr 210 ------- 0 0.1 1073741824.0 0 0
+ 0.31112 1 3 cbr 210 ------- 0 0.1 1073741824.0 0 0
- 0.31112 1 3 cbr 210 ------- 0 0.1 1073741824.0 0 0
+ 0.31112 1 4 cbr 210 ------- 0 0.1 1073741824.0 0 0
- 0.31112 1 4 cbr 210 ------- 0 0.1 1073741824.0 0 0
r 0.31112 0 2 cbr 210 ------- 0 0.1 1073741824.0 0 0
+ 0.31112 2 4 cbr 210 ------- 0 0.1 1073741824.0 0 0
- 0.31112 2 4 cbr 210 ------- 0 0.1 1073741824.0 0 0
+ 0.31112 2 5 cbr 210 ------- 0 0.1 1073741824.0 0 0
- 0.31112 2 5 cbr 210 ------- 0 0.1 1073741824.0 0 0
+ 0.31125 0 1 cbr 210 ------- 0 0.1 1073741824.0 3 3
- 0.31125 0 1 cbr 210 ------- 0 0.1 1073741824.0 3 3
+ 0.31125 0 2 cbr 210 ------- 0 0.1 1073741824.0 3 3
- 0.31125 0 2 cbr 210 ------- 0 0.1 1073741824.0 3 3
r 0.31487 0 1 cbr 210 ------- 0 0.1 1073741824.0 1 1
+ 0.31487 1 3 cbr 210 ------- 0 0.1 1073741824.0 1 1
- 0.31487 1 3 cbr 210 ------- 0 0.1 1073741824.0 1 1
+ 0.31487 1 4 cbr 210 ------- 0 0.1 1073741824.0 1 1
- 0.31487 1 4 cbr 210 ------- 0 0.1 1073741824.0 1 1
r 0.31487 0 2 cbr 210 ------- 0 0.1 1073741824.0 1 1
+ 0.31487 2 4 cbr 210 ------- 0 0.1 1073741824.0 1 1
- 0.31487 2 4 cbr 210 ------- 0 0.1 1073741824.0 1 1
+ 0.31487 2 5 cbr 210 ------- 0 0.1 1073741824.0 1 1
- 0.31487 2 5 cbr 210 ------- 0 0.1 1073741824.0 1 1
+ 0.315 0 1 cbr 210 ------- 0 0.1 1073741824.0 4 4
- 0.315 0 1 cbr 210 ------- 0 0.1 1073741824.0 4 4
+ 0.315 0 2 cbr 210 ------- 0 0.1 1073741824.0 4 4
- 0.315 0 2 cbr 210 ------- 0 0.1 1073741824.0 4 4
r 0.31862 0 1 cbr 210 ------- 0 0.1 1073741824.0 2 2
+ 0.31862 1 3 cbr 210 ------- 0 0.1 1073741824.0 2 2
- 0.31862 1 3 cbr 210 ------- 0 0.1 1073741824.0 2 2
+ 0.31862 1 4 cbr 210 ------- 0 0.1 1073741824.0 2 2
- 0.31862 1 4 cbr 210 ------- 0 0.1 1073741824.0 2 2
r 0.31862 0 2 cbr 210 ------- 0 0.1 1073741824.0 2 2
+ 0.31862 2 4 cbr 210 ------- 0 0.1 1073741824.0 2 2
- 0.31862 2 4 cbr 210 ------- 0 0.1 1073741824.0 2 2
+ 0.31862 2 5 cbr 210 ------- 0 0.1 1073741824.0 2 2
- 0.31862 2 5 cbr 210 ------- 0 0.1 1073741824.0 2 2
+ 0.31875 0 1 cbr 210 ------- 0 0.1 1073741824.0 5 5
- 0.31875 0 1 cbr 210 ------- 0 0.1 1073741824.0 5 5
+ 0.31875 0 2 cbr 210 ------- 0 0.1 1073741824.0 5 5
- 0.31875 0 2 cbr 210 ------- 0 0.1 1073741824.0 5 5
r 0.32224 1 3 cbr 210 ------- 0 0.1 1073741824.0 0 0
r 0.32224 1 4 cbr 210 ------- 0 0.1 1073741824.0 0 0
+ 0.32224 4 2 cbr 210 ------- 0 0.1 1073741824.0 0 0
- 0.32224 4 2 cbr 210 ------- 0 0.1 1073741824.0 0 0
r 0.32224 2 4 cbr 210 ------- 0 0.1 1073741824.0 0 0
+ 0.32224 4 2 prune 80 ------- 30 4.0 2.0 -1 6
r 0.32224 2 5 cbr 210 ------- 0 0.1 1073741824.0 0 0
+ 0.32224 5 2 prune 80 ------- 30 5.0 2.0 -1 7
- 0.32224 5 2 prune 80 ------- 30 5.0 2.0 -1 7
r 0.32237 0 1 cbr 210 ------- 0 0.1 1073741824.0 3 3
+ 0.32237 1 3 cbr 210 ------- 0 0.1 1073741824.0 3 3
- 0.32237 1 3 cbr 210 ------- 0 0.1 1073741824.0 3 3
+ 0.32237 1 4 cbr 210 ------- 0 0.1 1073741824.0 3 3
- 0.32237 1 4 cbr 210 ------- 0 0.1 1073741824.0 3 3
r 0.32237 0 2 cbr 210 ------- 0 0.1 1073741824.0 3 3
+ 0.32237 2 4 cbr 210 ------- 0 0.1 1073741824.0 3 3
- 0.32237 2 4 cbr 210 ------- 0 0.1 1073741824.0 3 3
+ 0.32237 2 5 cbr 210 ------- 0 0.1 1073741824.0 3 3
- 0.32237 2 5 cbr 210 ------- 0 0.1 1073741824.0 3 3
+ 0.3225 0 1 cbr 210 ------- 0 0.1 1073741824.0 6 8
- 0.3225 0 1 cbr 210 ------- 0 0.1 1073741824.0 6 8
+ 0.3225 0 2 cbr 210 ------- 0 0.1 1073741824.0 6 8
- 0.3225 0 2 cbr 210 ------- 0 0.1 1073741824.0 6 8
- 0.32336 4 2 prune 80 ------- 30 4.0 2.0 -1 6
r 0.32599 1 3 cbr 210 ------- 0 0.1 1073741824.0 1 1
r 0.32599 1 4 cbr 210 ------- 0 0.1 1073741824.0 1 1
+ 0.32599 4 2 cbr 210 ------- 0 0.1 1073741824.0 1 1
- 0.32599 4 2 cbr 210 ------- 0 0.1 1073741824.0 1 1
r 0.32599 2 4 cbr 210 ------- 0 0.1 1073741824.0 1 1
+ 0.32599 4 2 prune 80 ------- 30 4.0 2.0 -1 9
r 0.32599 2 5 cbr 210 ------- 0 0.1 1073741824.0 1 1
+ 0.32599 5 2 prune 80 ------- 30 5.0 2.0 -1 10
- 0.32599 5 2 prune 80 ------- 30 5.0 2.0 -1 10
r 0.32612 0 1 cbr 210 ------- 0 0.1 1073741824.0 4 4
+ 0.32612 1 3 cbr 210 ------- 0 0.1 1073741824.0 4 4
- 0.32612 1 3 cbr 210 ------- 0 0.1 1073741824.0 4 4
+ 0.32612 1 4 cbr 210 ------- 0 0.1 1073741824.0 4 4
- 0.32612 1 4 cbr 210 ------- 0 0.1 1073741824.0 4 4
r 0.32612 0 2 cbr 210 ------- 0 0.1 1073741824.0 4 4
+ 0.32612 2 4 cbr 210 ------- 0 0.1 1073741824.0 4 4
- 0.32612 2 4 cbr 210 ------- 0 0.1 1073741824.0 4 4
+ 0.32612 2 5 cbr 210 ------- 0 0.1 1073741824.0 4 4
- 0.32612 2 5 cbr 210 ------- 0 0.1 1073741824.0 4 4
+ 0.32625 0 1 cbr 210 ------- 0 0.1 1073741824.0 7 11
- 0.32625 0 1 cbr 210 ------- 0 0.1 1073741824.0 7 11
+ 0.32625 0 2 cbr 210 ------- 0 0.1 1073741824.0 7 11
- 0.32625 0 2 cbr 210 ------- 0 0.1 1073741824.0 7 11
- 0.32711 4 2 prune 80 ------- 30 4.0 2.0 -1 9
r 0.32974 1 3 cbr 210 ------- 0 0.1 1073741824.0 2 2
r 0.32974 1 4 cbr 210 ------- 0 0.1 1073741824.0 2 2
+ 0.32974 4 2 cbr 210 ------- 0 0.1 1073741824.0 2 2
- 0.32974 4 2 cbr 210 ------- 0 0.1 1073741824.0 2 2
r 0.32974 2 4 cbr 210 ------- 0 0.1 1073741824.0 2 2
+ 0.32974 4 2 prune 80 ------- 30 4.0 2.0 -1 12
r 0.32974 2 5 cbr 210 ------- 0 0.1 1073741824.0 2 2
+ 0.32974 5 2 prune 80 ------- 30 5.0 2.0 -1 13
- 0.32974 5 2 prune 80 ------- 30 5.0 2.0 -1 13
r 0.32987 0 1 cbr 210 ------- 0 0.1 1073741824.0 5 5
+ 0.32987 1 3 cbr 210 ------- 0 0.1 1073741824.0 5 5
- 0.32987 1 3 cbr 210 ------- 0 0.1 1073741824.0 5 5
+ 0.32987 1 4 cbr 210 ------- 0 0.1 1073741824.0 5 5
- 0.32987 1 4 cbr 210 ------- 0 0.1 1073741824.0 5 5
r 0.32987 0 2 cbr 210 ------- 0 0.1 1073741824.0 5 5
+ 0.32987 2 4 cbr 210 ------- 0 0.1 1073741824.0 5 5
- 0.32987 2 4 cbr 210 ------- 0 0.1 1073741824.0 5 5
+ 0.32987 2 5 cbr 210 ------- 0 0.1 1073741824.0 5 5
- 0.32987 2 5 cbr 210 ------- 0 0.1 1073741824.0 5 5
+ 0.33 0 1 cbr 210 ------- 0 0.1 1073741824.0 8 14
- 0.33 0 1 cbr 210 ------- 0 0.1 1073741824.0 8 14
+ 0.33 0 2 cbr 210 ------- 0 0.1 1073741824.0 8 14
- 0.33 0 2 cbr 210 ------- 0 0.1 1073741824.0 8 14
- 0.33086 4 2 prune 80 ------- 30 4.0 2.0 -1 12
r 0.332667 5 2 prune 80 ------- 30 5.0 2.0 -1 7
r 0.33336 4 2 cbr 210 ------- 0 0.1 1073741824.0 0 0
+ 0.33336 2 4 prune 80 ------- 30 2.0 4.0 -1 15
- 0.33336 2 4 prune 80 ------- 30 2.0 4.0 -1 15
r 0.33349 1 3 cbr 210 ------- 0 0.1 1073741824.0 3 3
r 0.33349 1 4 cbr 210 ------- 0 0.1 1073741824.0 3 3
+ 0.33349 4 2 cbr 210 ------- 0 0.1 1073741824.0 3 3
- 0.33349 4 2 cbr 210 ------- 0 0.1 1073741824.0 3 3
r 0.33349 2 4 cbr 210 ------- 0 0.1 1073741824.0 3 3
+ 0.33349 4 2 prune 80 ------- 30 4.0 2.0 -1 16
r 0.33349 2 5 cbr 210 ------- 0 0.1 1073741824.0 3 3
+ 0.33349 5 2 prune 80 ------- 30 5.0 2.0 -1 17
- 0.33349 5 2 prune 80 ------- 30 5.0 2.0 -1 17
r 0.33362 0 1 cbr 210 ------- 0 0.1 1073741824.0 6 8
+ 0.33362 1 3 cbr 210 ------- 0 0.1 1073741824.0 6 8
- 0.33362 1 3 cbr 210 ------- 0 0.1 1073741824.0 6 8
+ 0.33362 1 4 cbr 210 ------- 0 0.1 1073741824.0 6 8
- 0.33362 1 4 cbr 210 ------- 0 0.1 1073741824.0 6 8
r 0.33362 0 2 cbr 210 ------- 0 0.1 1073741824.0 6 8
+ 0.33362 2 4 cbr 210 ------- 0 0.1 1073741824.0 6 8
+ 0.33375 0 1 cbr 210 ------- 0 0.1 1073741824.0 9 18
- 0.33375 0 1 cbr 210 ------- 0 0.1 1073741824.0 9 18
+ 0.33375 0 2 cbr 210 ------- 0 0.1 1073741824.0 9 18
- 0.33375 0 2 cbr 210 ------- 0 0.1 1073741824.0 9 18
r 0.333787 4 2 prune 80 ------- 30 4.0 2.0 -1 6
+ 0.333787 2 0 prune 80 ------- 30 2.0 0.0 -1 19
- 0.333787 2 0 prune 80 ------- 30 2.0 0.0 -1 19
- 0.333787 2 4 cbr 210 ------- 0 0.1 1073741824.0 6 8
- 0.33461 4 2 prune 80 ------- 30 4.0 2.0 -1 16
r 0.336417 5 2 prune 80 ------- 30 5.0 2.0 -1 10
r 0.33711 4 2 cbr 210 ------- 0 0.1 1073741824.0 1 1
+ 0.33711 2 4 prune 80 ------- 30 2.0 4.0 -1 20
- 0.33711 2 4 prune 80 ------- 30 2.0 4.0 -1 20
r 0.33724 1 3 cbr 210 ------- 0 0.1 1073741824.0 4 4
r 0.33724 1 4 cbr 210 ------- 0 0.1 1073741824.0 4 4
+ 0.33724 4 2 cbr 210 ------- 0 0.1 1073741824.0 4 4
- 0.33724 4 2 cbr 210 ------- 0 0.1 1073741824.0 4 4
r 0.33724 2 4 cbr 210 ------- 0 0.1 1073741824.0 4 4
+ 0.33724 4 2 prune 80 ------- 30 4.0 2.0 -1 21
r 0.33724 2 5 cbr 210 ------- 0 0.1 1073741824.0 4 4
+ 0.33724 5 2 prune 80 ------- 30 5.0 2.0 -1 22
- 0.33724 5 2 prune 80 ------- 30 5.0 2.0 -1 22
r 0.33737 0 1 cbr 210 ------- 0 0.1 1073741824.0 7 11
+ 0.33737 1 3 cbr 210 ------- 0 0.1 1073741824.0 7 11
- 0.33737 1 3 cbr 210 ------- 0 0.1 1073741824.0 7 11
+ 0.33737 1 4 cbr 210 ------- 0 0.1 1073741824.0 7 11
- 0.33737 1 4 cbr 210 ------- 0 0.1 1073741824.0 7 11
r 0.33737 0 2 cbr 210 ------- 0 0.1 1073741824.0 7 11
+ 0.33737 2 0 prune 80 ------- 30 2.0 0.0 -1 23
- 0.33737 2 0 prune 80 ------- 30 2.0 0.0 -1 23
+ 0.3375 0 1 cbr 210 ------- 0 0.1 1073741824.0 10 24
- 0.3375 0 1 cbr 210 ------- 0 0.1 1073741824.0 10 24
+ 0.3375 0 2 cbr 210 ------- 0 0.1 1073741824.0 10 24
- 0.3375 0 2 cbr 210 ------- 0 0.1 1073741824.0 10 24
r 0.337537 4 2 prune 80 ------- 30 4.0 2.0 -1 9
- 0.33836 4 2 prune 80 ------- 30 4.0 2.0 -1 21
r 0.340167 5 2 prune 80 ------- 30 5.0 2.0 -1 13
r 0.34086 4 2 cbr 210 ------- 0 0.1 1073741824.0 2 2
+ 0.34086 2 4 prune 80 ------- 30 2.0 4.0 -1 25
- 0.34086 2 4 prune 80 ------- 30 2.0 4.0 -1 25
r 0.34099 1 3 cbr 210 ------- 0 0.1 1073741824.0 5 5
r 0.34099 1 4 cbr 210 ------- 0 0.1 1073741824.0 5 5
+ 0.34099 4 2 cbr 210 ------- 0 0.1 1073741824.0 5 5
- 0.34099 4 2 cbr 210 ------- 0 0.1 1073741824.0 5 5
r 0.34099 2 4 cbr 210 ------- 0 0.1 1073741824.0 5 5
+ 0.34099 4 2 prune 80 ------- 30 4.0 2.0 -1 26
r 0.34099 2 5 cbr 210 ------- 0 0.1 1073741824.0 5 5
+ 0.34099 5 2 prune 80 ------- 30 5.0 2.0 -1 27
- 0.34099 5 2 prune 80 ------- 30 5.0 2.0 -1 27
r 0.34112 0 1 cbr 210 ------- 0 0.1 1073741824.0 8 14
+ 0.34112 1 3 cbr 210 ------- 0 0.1 1073741824.0 8 14
- 0.34112 1 3 cbr 210 ------- 0 0.1 1073741824.0 8 14
+ 0.34112 1 4 cbr 210 ------- 0 0.1 1073741824.0 8 14
- 0.34112 1 4 cbr 210 ------- 0 0.1 1073741824.0 8 14
r 0.34112 0 2 cbr 210 ------- 0 0.1 1073741824.0 8 14
+ 0.34112 2 0 prune 80 ------- 30 2.0 0.0 -1 28
- 0.34112 2 0 prune 80 ------- 30 2.0 0.0 -1 28
+ 0.34125 0 1 cbr 210 ------- 0 0.1 1073741824.0 11 29
- 0.34125 0 1 cbr 210 ------- 0 0.1 1073741824.0 11 29
+ 0.34125 0 2 cbr 210 ------- 0 0.1 1073741824.0 11 29
- 0.34125 0 2 cbr 210 ------- 0 0.1 1073741824.0 11 29
r 0.341287 4 2 prune 80 ------- 30 4.0 2.0 -1 12
- 0.34211 4 2 prune 80 ------- 30 4.0 2.0 -1 26
r 0.343787 2 4 prune 80 ------- 30 2.0 4.0 -1 15
+ 0.343787 4 1 prune 80 ------- 30 4.0 1.0 -1 30
- 0.343787 4 1 prune 80 ------- 30 4.0 1.0 -1 30
r 0.343917 5 2 prune 80 ------- 30 5.0 2.0 -1 17
r 0.344213 2 0 prune 80 ------- 30 2.0 0.0 -1 19
r 0.34461 4 2 cbr 210 ------- 0 0.1 1073741824.0 3 3
+ 0.34461 2 4 prune 80 ------- 30 2.0 4.0 -1 31
- 0.34461 2 4 prune 80 ------- 30 2.0 4.0 -1 31
r 0.34474 1 3 cbr 210 ------- 0 0.1 1073741824.0 6 8
r 0.34474 1 4 cbr 210 ------- 0 0.1 1073741824.0 6 8
+ 0.34474 4 1 prune 80 ------- 30 4.0 1.0 -1 32
- 0.34474 4 1 prune 80 ------- 30 4.0 1.0 -1 32
r 0.34487 0 1 cbr 210 ------- 0 0.1 1073741824.0 9 18
+ 0.34487 1 3 cbr 210 ------- 0 0.1 1073741824.0 9 18
- 0.34487 1 3 cbr 210 ------- 0 0.1 1073741824.0 9 18
+ 0.34487 1 4 cbr 210 ------- 0 0.1 1073741824.0 9 18
- 0.34487 1 4 cbr 210 ------- 0 0.1 1073741824.0 9 18
r 0.34487 0 2 cbr 210 ------- 0 0.1 1073741824.0 9 18
+ 0.34487 2 0 prune 80 ------- 30 2.0 0.0 -1 33
- 0.34487 2 0 prune 80 ------- 30 2.0 0.0 -1 33
r 0.344907 2 4 cbr 210 ------- 0 0.1 1073741824.0 6 8
+ 0.344907 4 2 prune 80 ------- 30 4.0 2.0 -1 34
- 0.344907 4 2 prune 80 ------- 30 4.0 2.0 -1 34
+ 0.345 0 1 cbr 210 ------- 0 0.1 1073741824.0 12 35
- 0.345 0 1 cbr 210 ------- 0 0.1 1073741824.0 12 35
r 0.345037 4 2 prune 80 ------- 30 4.0 2.0 -1 16
r 0.347537 2 4 prune 80 ------- 30 2.0 4.0 -1 20
r 0.347667 5 2 prune 80 ------- 30 5.0 2.0 -1 22
r 0.347797 2 0 prune 80 ------- 30 2.0 0.0 -1 23
r 0.34836 4 2 cbr 210 ------- 0 0.1 1073741824.0 4 4
+ 0.34836 2 4 prune 80 ------- 30 2.0 4.0 -1 36
- 0.34836 2 4 prune 80 ------- 30 2.0 4.0 -1 36
r 0.34849 1 3 cbr 210 ------- 0 0.1 1073741824.0 7 11
r 0.34849 1 4 cbr 210 ------- 0 0.1 1073741824.0 7 11
+ 0.34849 4 1 prune 80 ------- 30 4.0 1.0 -1 37
- 0.34849 4 1 prune 80 ------- 30 4.0 1.0 -1 37
r 0.34862 0 1 cbr 210 ------- 0 0.1 1073741824.0 10 24
+ 0.34862 1 3 cbr 210 ------- 0 0.1 1073741824.0 10 24
- 0.34862 1 3 cbr 210 ------- 0 0.1 1073741824.0 10 24
+ 0.34862 1 4 cbr 210 ------- 0 0.1 1073741824.0 10 24
- 0.34862 1 4 cbr 210 ------- 0 0.1 1073741824.0 10 24
r 0.34862 0 2 cbr 210 ------- 0 0.1 1073741824.0 10 24
+ 0.34862 2 0 prune 80 ------- 30 2.0 0.0 -1 38
- 0.34862 2 0 prune 80 ------- 30 2.0 0.0 -1 38
+ 0.34875 0 1 cbr 210 ------- 0 0.1 1073741824.0 13 39
- 0.34875 0 1 cbr 210 ------- 0 0.1 1073741824.0 13 39
r 0.348787 4 2 prune 80 ------- 30 4.0 2.0 -1 21
r 0.351287 2 4 prune 80 ------- 30 2.0 4.0 -1 25
r 0.351417 5 2 prune 80 ------- 30 5.0 2.0 -1 27
r 0.351547 2 0 prune 80 ------- 30 2.0 0.0 -1 28
r 0.35211 4 2 cbr 210 ------- 0 0.1 1073741824.0 5 5
+ 0.35211 2 4 prune 80 ------- 30 2.0 4.0 -1 40
- 0.35211 2 4 prune 80 ------- 30 2.0 4.0 -1 40
r 0.35224 1 3 cbr 210 ------- 0 0.1 1073741824.0 8 14
r 0.35224 1 4 cbr 210 ------- 0 0.1 1073741824.0 8 14
+ 0.35224 4 1 prune 80 ------- 30 4.0 1.0 -1 41
- 0.35224 4 1 prune 80 ------- 30 4.0 1.0 -1 41
r 0.35237 0 1 cbr 210 ------- 0 0.1 1073741824.0 11 29
+ 0.35237 1 3 cbr 210 ------- 0 0.1 1073741824.0 11 29
- 0.35237 1 3 cbr 210 ------- 0 0.1 1073741824.0 11 29
+ 0.35237 1 4 cbr 210 ------- 0 0.1 1073741824.0 11 29
- 0.35237 1 4 cbr 210 ------- 0 0.1 1073741824.0 11 29
r 0.35237 0 2 cbr 210 ------- 0 0.1 1073741824.0 11 29
+ 0.35237 2 0 prune 80 ------- 30 2.0 0.0 -1 42
- 0.35237 2 0 prune 80 ------- 30 2.0 0.0 -1 42
+ 0.3525 0 1 cbr 210 ------- 0 0.1 1073741824.0 14 43
- 0.3525 0 1 cbr 210 ------- 0 0.1 1073741824.0 14 43
r 0.352537 4 2 prune 80 ------- 30 4.0 2.0 -1 26
r 0.354213 4 1 prune 80 ------- 30 4.0 1.0 -1 30
r 0.355037 2 4 prune 80 ------- 30 2.0 4.0 -1 31
r 0.355167 4 1 prune 80 ------- 30 4.0 1.0 -1 32
r 0.355297 2 0 prune 80 ------- 30 2.0 0.0 -1 33
r 0.355333 4 2 prune 80 ------- 30 4.0 2.0 -1 34
r 0.35599 1 3 cbr 210 ------- 0 0.1 1073741824.0 9 18
r 0.35599 1 4 cbr 210 ------- 0 0.1 1073741824.0 9 18
+ 0.35599 4 1 prune 80 ------- 30 4.0 1.0 -1 44
- 0.35599 4 1 prune 80 ------- 30 4.0 1.0 -1 44
r 0.35612 0 1 cbr 210 ------- 0 0.1 1073741824.0 12 35
+ 0.35612 1 3 cbr 210 ------- 0 0.1 1073741824.0 12 35
- 0.35612 1 3 cbr 210 ------- 0 0.1 1073741824.0 12 35
+ 0.35625 0 1 cbr 210 ------- 0 0.1 1073741824.0 15 45
- 0.35625 0 1 cbr 210 ------- 0 0.1 1073741824.0 15 45
r 0.358787 2 4 prune 80 ------- 30 2.0 4.0 -1 36
r 0.358917 4 1 prune 80 ------- 30 4.0 1.0 -1 37
r 0.359047 2 0 prune 80 ------- 30 2.0 0.0 -1 38
r 0.35974 1 3 cbr 210 ------- 0 0.1 1073741824.0 10 24
r 0.35974 1 4 cbr 210 ------- 0 0.1 1073741824.0 10 24
+ 0.35974 4 1 prune 80 ------- 30 4.0 1.0 -1 46
- 0.35974 4 1 prune 80 ------- 30 4.0 1.0 -1 46
r 0.35987 0 1 cbr 210 ------- 0 0.1 1073741824.0 13 39
+ 0.35987 1 3 cbr 210 ------- 0 0.1 1073741824.0 13 39
- 0.35987 1 3 cbr 210 ------- 0 0.1 1073741824.0 13 39
+ 0.36 0 1 cbr 210 ------- 0 0.1 1073741824.0 16 47
- 0.36 0 1 cbr 210 ------- 0 0.1 1073741824.0 16 47
r 0.362537 2 4 prune 80 ------- 30 2.0 4.0 -1 40
r 0.362667 4 1 prune 80 ------- 30 4.0 1.0 -1 41
r 0.362797 2 0 prune 80 ------- 30 2.0 0.0 -1 42
r 0.36349 1 3 cbr 210 ------- 0 0.1 1073741824.0 11 29
r 0.36349 1 4 cbr 210 ------- 0 0.1 1073741824.0 11 29
+ 0.36349 4 1 prune 80 ------- 30 4.0 1.0 -1 48
- 0.36349 4 1 prune 80 ------- 30 4.0 1.0 -1 48
r 0.36362 0 1 cbr 210 ------- 0 0.1 1073741824.0 14 43
+ 0.36362 1 3 cbr 210 ------- 0 0.1 1073741824.0 14 43
- 0.36362 1 3 cbr 210 ------- 0 0.1 1073741824.0 14 43
+ 0.36375 0 1 cbr 210 ------- 0 0.1 1073741824.0 17 49
- 0.36375 0 1 cbr 210 ------- 0 0.1 1073741824.0 17 49
r 0.366417 4 1 prune 80 ------- 30 4.0 1.0 -1 44
r 0.36724 1 3 cbr 210 ------- 0 0.1 1073741824.0 12 35
r 0.36737 0 1 cbr 210 ------- 0 0.1 1073741824.0 15 45
+ 0.36737 1 3 cbr 210 ------- 0 0.1 1073741824.0 15 45
- 0.36737 1 3 cbr 210 ------- 0 0.1 1073741824.0 15 45
+ 0.3675 0 1 cbr 210 ------- 0 0.1 1073741824.0 18 50
- 0.3675 0 1 cbr 210 ------- 0 0.1 1073741824.0 18 50
r 0.370167 4 1 prune 80 ------- 30 4.0 1.0 -1 46
r 0.37099 1 3 cbr 210 ------- 0 0.1 1073741824.0 13 39
r 0.37112 0 1 cbr 210 ------- 0 0.1 1073741824.0 16 47
+ 0.37112 1 3 cbr 210 ------- 0 0.1 1073741824.0 16 47
- 0.37112 1 3 cbr 210 ------- 0 0.1 1073741824.0 16 47
+ 0.37125 0 1 cbr 210 ------- 0 0.1 1073741824.0 19 51
- 0.37125 0 1 cbr 210 ------- 0 0.1 1073741824.0 19 51
r 0.373917 4 1 prune 80 ------- 30 4.0 1.0 -1 48
r 0.37474 1 3 cbr 210 ------- 0 0.1 1073741824.0 14 43
r 0.37487 0 1 cbr 210 ------- 0 0.1 1073741824.0 17 49
+ 0.37487 1 3 cbr 210 ------- 0 0.1 1073741824.0 17 49
- 0.37487 1 3 cbr 210 ------- 0 0.1 1073741824.0 17 49
+ 0.375 0 1 cbr 210 ------- 0 0.1 1073741824.0 20 52
- 0.375 0 1 cbr 210 ------- 0 0.1 1073741824.0 20 52
r 0.37849 1 3 cbr 210 ------- 0 0.1 1073741824.0 15 45
r 0.37862 0 1 cbr 210 ------- 0 0.1 1073741824.0 18 50
+ 0.37862 1 3 cbr 210 ------- 0 0.1 1073741824.0 18 50
- 0.37862 1 3 cbr 210 ------- 0 0.1 1073741824.0 18 50
+ 0.37875 0 1 cbr 210 ------- 0 0.1 1073741824.0 21 53
- 0.37875 0 1 cbr 210 ------- 0 0.1 1073741824.0 21 53
r 0.38224 1 3 cbr 210 ------- 0 0.1 1073741824.0 16 47
r 0.38237 0 1 cbr 210 ------- 0 0.1 1073741824.0 19 51
+ 0.38237 1 3 cbr 210 ------- 0 0.1 1073741824.0 19 51
- 0.38237 1 3 cbr 210 ------- 0 0.1 1073741824.0 19 51
+ 0.3825 0 1 cbr 210 ------- 0 0.1 1073741824.0 22 54
- 0.3825 0 1 cbr 210 ------- 0 0.1 1073741824.0 22 54
r 0.38599 1 3 cbr 210 ------- 0 0.1 1073741824.0 17 49
r 0.38612 0 1 cbr 210 ------- 0 0.1 1073741824.0 20 52
+ 0.38612 1 3 cbr 210 ------- 0 0.1 1073741824.0 20 52
- 0.38612 1 3 cbr 210 ------- 0 0.1 1073741824.0 20 52
+ 0.38625 0 1 cbr 210 ------- 0 0.1 1073741824.0 23 55
- 0.38625 0 1 cbr 210 ------- 0 0.1 1073741824.0 23 55
r 0.38974 1 3 cbr 210 ------- 0 0.1 1073741824.0 18 50
r 0.38987 0 1 cbr 210 ------- 0 0.1 1073741824.0 21 53
+ 0.38987 1 3 cbr 210 ------- 0 0.1 1073741824.0 21 53
- 0.38987 1 3 cbr 210 ------- 0 0.1 1073741824.0 21 53
+ 0.39 0 1 cbr 210 ------- 0 0.1 1073741824.0 24 56
- 0.39 0 1 cbr 210 ------- 0 0.1 1073741824.0 24 56
r 0.39349 1 3 cbr 210 ------- 0 0.1 1073741824.0 19 51
r 0.39362 0 1 cbr 210 ------- 0 0.1 1073741824.0 22 54
+ 0.39362 1 3 cbr 210 ------- 0 0.1 1073741824.0 22 54
- 0.39362 1 3 cbr 210 ------- 0 0.1 1073741824.0 22 54
+ 0.39375 0 1 cbr 210 ------- 0 0.1 1073741824.0 25 57
- 0.39375 0 1 cbr 210 ------- 0 0.1 1073741824.0 25 57
r 0.39724 1 3 cbr 210 ------- 0 0.1 1073741824.0 20 52
r 0.39737 0 1 cbr 210 ------- 0 0.1 1073741824.0 23 55
+ 0.39737 1 3 cbr 210 ------- 0 0.1 1073741824.0 23 55
- 0.39737 1 3 cbr 210 ------- 0 0.1 1073741824.0 23 55
+ 0.3975 0 1 cbr 210 ------- 0 0.1 1073741824.0 26 58
- 0.3975 0 1 cbr 210 ------- 0 0.1 1073741824.0 26 58
v 0.4 eval {set sim_annotation {0.40000000000000002 4 join-group 1073741824}}
+ 0.4 4 1 graft 80 ------- 31 4.0 1.0 -1 59
- 0.4 4 1 graft 80 ------- 31 4.0 1.0 -1 59
r 0.40099 1 3 cbr 210 ------- 0 0.1 1073741824.0 21 53
r 0.40112 0 1 cbr 210 ------- 0 0.1 1073741824.0 24 56
+ 0.40112 1 3 cbr 210 ------- 0 0.1 1073741824.0 24 56
- 0.40112 1 3 cbr 210 ------- 0 0.1 1073741824.0 24 56
+ 0.40125 0 1 cbr 210 ------- 0 0.1 1073741824.0 27 60
- 0.40125 0 1 cbr 210 ------- 0 0.1 1073741824.0 27 60
r 0.40474 1 3 cbr 210 ------- 0 0.1 1073741824.0 22 54
r 0.40487 0 1 cbr 210 ------- 0 0.1 1073741824.0 25 57
+ 0.40487 1 3 cbr 210 ------- 0 0.1 1073741824.0 25 57
- 0.40487 1 3 cbr 210 ------- 0 0.1 1073741824.0 25 57
+ 0.405 0 1 cbr 210 ------- 0 0.1 1073741824.0 28 61
- 0.405 0 1 cbr 210 ------- 0 0.1 1073741824.0 28 61
r 0.40849 1 3 cbr 210 ------- 0 0.1 1073741824.0 23 55
r 0.40862 0 1 cbr 210 ------- 0 0.1 1073741824.0 26 58
+ 0.40862 1 3 cbr 210 ------- 0 0.1 1073741824.0 26 58
- 0.40862 1 3 cbr 210 ------- 0 0.1 1073741824.0 26 58
+ 0.40875 0 1 cbr 210 ------- 0 0.1 1073741824.0 29 62
- 0.40875 0 1 cbr 210 ------- 0 0.1 1073741824.0 29 62
r 0.410427 4 1 graft 80 ------- 31 4.0 1.0 -1 59
r 0.41224 1 3 cbr 210 ------- 0 0.1 1073741824.0 24 56
r 0.41237 0 1 cbr 210 ------- 0 0.1 1073741824.0 27 60
+ 0.41237 1 3 cbr 210 ------- 0 0.1 1073741824.0 27 60
- 0.41237 1 3 cbr 210 ------- 0 0.1 1073741824.0 27 60
+ 0.41237 1 4 cbr 210 ------- 0 0.1 1073741824.0 27 60
- 0.41237 1 4 cbr 210 ------- 0 0.1 1073741824.0 27 60
+ 0.4125 0 1 cbr 210 ------- 0 0.1 1073741824.0 30 63
- 0.4125 0 1 cbr 210 ------- 0 0.1 1073741824.0 30 63
r 0.41599 1 3 cbr 210 ------- 0 0.1 1073741824.0 25 57
r 0.41612 0 1 cbr 210 ------- 0 0.1 1073741824.0 28 61
+ 0.41612 1 3 cbr 210 ------- 0 0.1 1073741824.0 28 61
- 0.41612 1 3 cbr 210 ------- 0 0.1 1073741824.0 28 61
+ 0.41612 1 4 cbr 210 ------- 0 0.1 1073741824.0 28 61
- 0.41612 1 4 cbr 210 ------- 0 0.1 1073741824.0 28 61
+ 0.41625 0 1 cbr 210 ------- 0 0.1 1073741824.0 31 64
- 0.41625 0 1 cbr 210 ------- 0 0.1 1073741824.0 31 64
r 0.41974 1 3 cbr 210 ------- 0 0.1 1073741824.0 26 58
r 0.41987 0 1 cbr 210 ------- 0 0.1 1073741824.0 29 62
+ 0.41987 1 3 cbr 210 ------- 0 0.1 1073741824.0 29 62
- 0.41987 1 3 cbr 210 ------- 0 0.1 1073741824.0 29 62
+ 0.41987 1 4 cbr 210 ------- 0 0.1 1073741824.0 29 62
- 0.41987 1 4 cbr 210 ------- 0 0.1 1073741824.0 29 62
+ 0.42 0 1 cbr 210 ------- 0 0.1 1073741824.0 32 65
- 0.42 0 1 cbr 210 ------- 0 0.1 1073741824.0 32 65
r 0.42349 1 3 cbr 210 ------- 0 0.1 1073741824.0 27 60
r 0.42349 1 4 cbr 210 ------- 0 0.1 1073741824.0 27 60
r 0.42362 0 1 cbr 210 ------- 0 0.1 1073741824.0 30 63
+ 0.42362 1 3 cbr 210 ------- 0 0.1 1073741824.0 30 63
- 0.42362 1 3 cbr 210 ------- 0 0.1 1073741824.0 30 63
+ 0.42362 1 4 cbr 210 ------- 0 0.1 1073741824.0 30 63
- 0.42362 1 4 cbr 210 ------- 0 0.1 1073741824.0 30 63
+ 0.42375 0 1 cbr 210 ------- 0 0.1 1073741824.0 33 66
- 0.42375 0 1 cbr 210 ------- 0 0.1 1073741824.0 33 66
r 0.42724 1 3 cbr 210 ------- 0 0.1 1073741824.0 28 61
r 0.42724 1 4 cbr 210 ------- 0 0.1 1073741824.0 28 61
r 0.42737 0 1 cbr 210 ------- 0 0.1 1073741824.0 31 64
+ 0.42737 1 3 cbr 210 ------- 0 0.1 1073741824.0 31 64
- 0.42737 1 3 cbr 210 ------- 0 0.1 1073741824.0 31 64
+ 0.42737 1 4 cbr 210 ------- 0 0.1 1073741824.0 31 64
- 0.42737 1 4 cbr 210 ------- 0 0.1 1073741824.0 31 64
+ 0.4275 0 1 cbr 210 ------- 0 0.1 1073741824.0 34 67
- 0.4275 0 1 cbr 210 ------- 0 0.1 1073741824.0 34 67
r 0.43099 1 3 cbr 210 ------- 0 0.1 1073741824.0 29 62
r 0.43099 1 4 cbr 210 ------- 0 0.1 1073741824.0 29 62
r 0.43112 0 1 cbr 210 ------- 0 0.1 1073741824.0 32 65
+ 0.43112 1 3 cbr 210 ------- 0 0.1 1073741824.0 32 65
- 0.43112 1 3 cbr 210 ------- 0 0.1 1073741824.0 32 65
+ 0.43112 1 4 cbr 210 ------- 0 0.1 1073741824.0 32 65
- 0.43112 1 4 cbr 210 ------- 0 0.1 1073741824.0 32 65
+ 0.43125 0 1 cbr 210 ------- 0 0.1 1073741824.0 35 68
- 0.43125 0 1 cbr 210 ------- 0 0.1 1073741824.0 35 68
r 0.43474 1 3 cbr 210 ------- 0 0.1 1073741824.0 30 63
r 0.43474 1 4 cbr 210 ------- 0 0.1 1073741824.0 30 63
r 0.43487 0 1 cbr 210 ------- 0 0.1 1073741824.0 33 66
+ 0.43487 1 3 cbr 210 ------- 0 0.1 1073741824.0 33 66
- 0.43487 1 3 cbr 210 ------- 0 0.1 1073741824.0 33 66
+ 0.43487 1 4 cbr 210 ------- 0 0.1 1073741824.0 33 66
- 0.43487 1 4 cbr 210 ------- 0 0.1 1073741824.0 33 66
+ 0.435 0 1 cbr 210 ------- 0 0.1 1073741824.0 36 69
- 0.435 0 1 cbr 210 ------- 0 0.1 1073741824.0 36 69
r 0.43849 1 3 cbr 210 ------- 0 0.1 1073741824.0 31 64
r 0.43849 1 4 cbr 210 ------- 0 0.1 1073741824.0 31 64
r 0.43862 0 1 cbr 210 ------- 0 0.1 1073741824.0 34 67
+ 0.43862 1 3 cbr 210 ------- 0 0.1 1073741824.0 34 67
- 0.43862 1 3 cbr 210 ------- 0 0.1 1073741824.0 34 67
+ 0.43862 1 4 cbr 210 ------- 0 0.1 1073741824.0 34 67
- 0.43862 1 4 cbr 210 ------- 0 0.1 1073741824.0 34 67
+ 0.43875 0 1 cbr 210 ------- 0 0.1 1073741824.0 37 70
- 0.43875 0 1 cbr 210 ------- 0 0.1 1073741824.0 37 70
r 0.44224 1 3 cbr 210 ------- 0 0.1 1073741824.0 32 65
r 0.44224 1 4 cbr 210 ------- 0 0.1 1073741824.0 32 65
r 0.44237 0 1 cbr 210 ------- 0 0.1 1073741824.0 35 68
+ 0.44237 1 3 cbr 210 ------- 0 0.1 1073741824.0 35 68
- 0.44237 1 3 cbr 210 ------- 0 0.1 1073741824.0 35 68
+ 0.44237 1 4 cbr 210 ------- 0 0.1 1073741824.0 35 68
- 0.44237 1 4 cbr 210 ------- 0 0.1 1073741824.0 35 68
+ 0.4425 0 1 cbr 210 ------- 0 0.1 1073741824.0 38 71
- 0.4425 0 1 cbr 210 ------- 0 0.1 1073741824.0 38 71
r 0.44599 1 3 cbr 210 ------- 0 0.1 1073741824.0 33 66
r 0.44599 1 4 cbr 210 ------- 0 0.1 1073741824.0 33 66
r 0.44612 0 1 cbr 210 ------- 0 0.1 1073741824.0 36 69
+ 0.44612 1 3 cbr 210 ------- 0 0.1 1073741824.0 36 69
- 0.44612 1 3 cbr 210 ------- 0 0.1 1073741824.0 36 69
+ 0.44612 1 4 cbr 210 ------- 0 0.1 1073741824.0 36 69
- 0.44612 1 4 cbr 210 ------- 0 0.1 1073741824.0 36 69
+ 0.44625 0 1 cbr 210 ------- 0 0.1 1073741824.0 39 72
- 0.44625 0 1 cbr 210 ------- 0 0.1 1073741824.0 39 72
r 0.44974 1 3 cbr 210 ------- 0 0.1 1073741824.0 34 67
r 0.44974 1 4 cbr 210 ------- 0 0.1 1073741824.0 34 67
r 0.44987 0 1 cbr 210 ------- 0 0.1 1073741824.0 37 70
+ 0.44987 1 3 cbr 210 ------- 0 0.1 1073741824.0 37 70
- 0.44987 1 3 cbr 210 ------- 0 0.1 1073741824.0 37 70
+ 0.44987 1 4 cbr 210 ------- 0 0.1 1073741824.0 37 70
- 0.44987 1 4 cbr 210 ------- 0 0.1 1073741824.0 37 70
+ 0.45 0 1 cbr 210 ------- 0 0.1 1073741824.0 40 73
- 0.45 0 1 cbr 210 ------- 0 0.1 1073741824.0 40 73
r 0.45349 1 3 cbr 210 ------- 0 0.1 1073741824.0 35 68
r 0.45349 1 4 cbr 210 ------- 0 0.1 1073741824.0 35 68
r 0.45362 0 1 cbr 210 ------- 0 0.1 1073741824.0 38 71
+ 0.45362 1 3 cbr 210 ------- 0 0.1 1073741824.0 38 71
- 0.45362 1 3 cbr 210 ------- 0 0.1 1073741824.0 38 71
+ 0.45362 1 4 cbr 210 ------- 0 0.1 1073741824.0 38 71
- 0.45362 1 4 cbr 210 ------- 0 0.1 1073741824.0 38 71
+ 0.45375 0 1 cbr 210 ------- 0 0.1 1073741824.0 41 74
- 0.45375 0 1 cbr 210 ------- 0 0.1 1073741824.0 41 74
r 0.45724 1 3 cbr 210 ------- 0 0.1 1073741824.0 36 69
r 0.45724 1 4 cbr 210 ------- 0 0.1 1073741824.0 36 69
r 0.45737 0 1 cbr 210 ------- 0 0.1 1073741824.0 39 72
+ 0.45737 1 3 cbr 210 ------- 0 0.1 1073741824.0 39 72
- 0.45737 1 3 cbr 210 ------- 0 0.1 1073741824.0 39 72
+ 0.45737 1 4 cbr 210 ------- 0 0.1 1073741824.0 39 72
- 0.45737 1 4 cbr 210 ------- 0 0.1 1073741824.0 39 72
+ 0.4575 0 1 cbr 210 ------- 0 0.1 1073741824.0 42 75
- 0.4575 0 1 cbr 210 ------- 0 0.1 1073741824.0 42 75
r 0.46099 1 3 cbr 210 ------- 0 0.1 1073741824.0 37 70
r 0.46099 1 4 cbr 210 ------- 0 0.1 1073741824.0 37 70
r 0.46112 0 1 cbr 210 ------- 0 0.1 1073741824.0 40 73
+ 0.46112 1 3 cbr 210 ------- 0 0.1 1073741824.0 40 73
- 0.46112 1 3 cbr 210 ------- 0 0.1 1073741824.0 40 73
+ 0.46112 1 4 cbr 210 ------- 0 0.1 1073741824.0 40 73
- 0.46112 1 4 cbr 210 ------- 0 0.1 1073741824.0 40 73
+ 0.46125 0 1 cbr 210 ------- 0 0.1 1073741824.0 43 76
- 0.46125 0 1 cbr 210 ------- 0 0.1 1073741824.0 43 76
r 0.46474 1 3 cbr 210 ------- 0 0.1 1073741824.0 38 71
r 0.46474 1 4 cbr 210 ------- 0 0.1 1073741824.0 38 71
r 0.46487 0 1 cbr 210 ------- 0 0.1 1073741824.0 41 74
+ 0.46487 1 3 cbr 210 ------- 0 0.1 1073741824.0 41 74
- 0.46487 1 3 cbr 210 ------- 0 0.1 1073741824.0 41 74
+ 0.46487 1 4 cbr 210 ------- 0 0.1 1073741824.0 41 74
- 0.46487 1 4 cbr 210 ------- 0 0.1 1073741824.0 41 74
+ 0.465 0 1 cbr 210 ------- 0 0.1 1073741824.0 44 77
- 0.465 0 1 cbr 210 ------- 0 0.1 1073741824.0 44 77
r 0.46849 1 3 cbr 210 ------- 0 0.1 1073741824.0 39 72
r 0.46849 1 4 cbr 210 ------- 0 0.1 1073741824.0 39 72
r 0.46862 0 1 cbr 210 ------- 0 0.1 1073741824.0 42 75
+ 0.46862 1 3 cbr 210 ------- 0 0.1 1073741824.0 42 75
- 0.46862 1 3 cbr 210 ------- 0 0.1 1073741824.0 42 75
+ 0.46862 1 4 cbr 210 ------- 0 0.1 1073741824.0 42 75
- 0.46862 1 4 cbr 210 ------- 0 0.1 1073741824.0 42 75
+ 0.46875 0 1 cbr 210 ------- 0 0.1 1073741824.0 45 78
- 0.46875 0 1 cbr 210 ------- 0 0.1 1073741824.0 45 78
r 0.47224 1 3 cbr 210 ------- 0 0.1 1073741824.0 40 73
r 0.47224 1 4 cbr 210 ------- 0 0.1 1073741824.0 40 73
r 0.47237 0 1 cbr 210 ------- 0 0.1 1073741824.0 43 76
+ 0.47237 1 3 cbr 210 ------- 0 0.1 1073741824.0 43 76
- 0.47237 1 3 cbr 210 ------- 0 0.1 1073741824.0 43 76
+ 0.47237 1 4 cbr 210 ------- 0 0.1 1073741824.0 43 76
- 0.47237 1 4 cbr 210 ------- 0 0.1 1073741824.0 43 76
+ 0.4725 0 1 cbr 210 ------- 0 0.1 1073741824.0 46 79
- 0.4725 0 1 cbr 210 ------- 0 0.1 1073741824.0 46 79
r 0.47599 1 3 cbr 210 ------- 0 0.1 1073741824.0 41 74
r 0.47599 1 4 cbr 210 ------- 0 0.1 1073741824.0 41 74
r 0.47612 0 1 cbr 210 ------- 0 0.1 1073741824.0 44 77
+ 0.47612 1 3 cbr 210 ------- 0 0.1 1073741824.0 44 77
- 0.47612 1 3 cbr 210 ------- 0 0.1 1073741824.0 44 77
+ 0.47612 1 4 cbr 210 ------- 0 0.1 1073741824.0 44 77
- 0.47612 1 4 cbr 210 ------- 0 0.1 1073741824.0 44 77
+ 0.47625 0 1 cbr 210 ------- 0 0.1 1073741824.0 47 80
- 0.47625 0 1 cbr 210 ------- 0 0.1 1073741824.0 47 80
r 0.47974 1 3 cbr 210 ------- 0 0.1 1073741824.0 42 75
r 0.47974 1 4 cbr 210 ------- 0 0.1 1073741824.0 42 75
r 0.47987 0 1 cbr 210 ------- 0 0.1 1073741824.0 45 78
+ 0.47987 1 3 cbr 210 ------- 0 0.1 1073741824.0 45 78
- 0.47987 1 3 cbr 210 ------- 0 0.1 1073741824.0 45 78
+ 0.47987 1 4 cbr 210 ------- 0 0.1 1073741824.0 45 78
- 0.47987 1 4 cbr 210 ------- 0 0.1 1073741824.0 45 78
+ 0.48 0 1 cbr 210 ------- 0 0.1 1073741824.0 48 81
- 0.48 0 1 cbr 210 ------- 0 0.1 1073741824.0 48 81
r 0.48349 1 3 cbr 210 ------- 0 0.1 1073741824.0 43 76