+ 0.1 0 1 cbr 210 ------- 0 0.1 1073741824.0 0 0
- 0.1 0 1 cbr 210 ------- 0 0.1 1073741824.0 0 0
+ 0.1 0 2 cbr 210 ------- 0 0.1 1073741824.0 0 0
- 0.1 0 2 cbr 210 ------- 0 0.1 1073741824.0 0 0
+ 0.10375 0 1 cbr 210 ------- 0 0.1 1073741824.0 1 1
- 0.10375 0 1 cbr 210 ------- 0 0.1 1073741824.0 1 1
+ 0.10375 0 2 cbr 210 ------- 0 0.1 1073741824.0 1 1
- 0.10375 0 2 cbr 210 ------- 0 0.1 1073741824.0 1 1
+ 0.1075 0 1 cbr 210 ------- 0 0.1 1073741824.0 2 2
- 0.1075 0 1 cbr 210 ------- 0 0.1 1073741824.0 2 2
+ 0.1075 0 2 cbr 210 ------- 0 0.1 1073741824.0 2 2
- 0.1075 0 2 cbr 210 ------- 0 0.1 1073741824.0 2 2
r 0.11112 0 1 cbr 210 ------- 0 0.1 1073741824.0 0 0
+ 0.11112 1 3 cbr 210 ------- 0 0.1 1073741824.0 0 0
- 0.11112 1 3 cbr 210 ------- 0 0.1 1073741824.0 0 0
+ 0.11112 1 4 cbr 210 ------- 0 0.1 1073741824.0 0 0
- 0.11112 1 4 cbr 210 ------- 0 0.1 1073741824.0 0 0
r 0.11112 0 2 cbr 210 ------- 0 0.1 1073741824.0 0 0
+ 0.11112 2 4 cbr 210 ------- 0 0.1 1073741824.0 0 0
- 0.11112 2 4 cbr 210 ------- 0 0.1 1073741824.0 0 0
+ 0.11112 2 5 cbr 210 ------- 0 0.1 1073741824.0 0 0
- 0.11112 2 5 cbr 210 ------- 0 0.1 1073741824.0 0 0
+ 0.11125 0 1 cbr 210 ------- 0 0.1 1073741824.0 3 3
- 0.11125 0 1 cbr 210 ------- 0 0.1 1073741824.0 3 3
+ 0.11125 0 2 cbr 210 ------- 0 0.1 1073741824.0 3 3
- 0.11125 0 2 cbr 210 ------- 0 0.1 1073741824.0 3 3
r 0.11487 0 1 cbr 210 ------- 0 0.1 1073741824.0 1 1
+ 0.11487 1 3 cbr 210 ------- 0 0.1 1073741824.0 1 1
- 0.11487 1 3 cbr 210 ------- 0 0.1 1073741824.0 1 1
+ 0.11487 1 4 cbr 210 ------- 0 0.1 1073741824.0 1 1
- 0.11487 1 4 cbr 210 ------- 0 0.1 1073741824.0 1 1
r 0.11487 0 2 cbr 210 ------- 0 0.1 1073741824.0 1 1
+ 0.11487 2 4 cbr 210 ------- 0 0.1 1073741824.0 1 1
- 0.11487 2 4 cbr 210 ------- 0 0.1 1073741824.0 1 1
+ 0.11487 2 5 cbr 210 ------- 0 0.1 1073741824.0 1 1
- 0.11487 2 5 cbr 210 ------- 0 0.1 1073741824.0 1 1
+ 0.115 0 1 cbr 210 ------- 0 0.1 1073741824.0 4 4
- 0.115 0 1 cbr 210 ------- 0 0.1 1073741824.0 4 4
+ 0.115 0 2 cbr 210 ------- 0 0.1 1073741824.0 4 4
- 0.115 0 2 cbr 210 ------- 0 0.1 1073741824.0 4 4
r 0.11862 0 1 cbr 210 ------- 0 0.1 1073741824.0 2 2
+ 0.11862 1 3 cbr 210 ------- 0 0.1 1073741824.0 2 2
- 0.11862 1 3 cbr 210 ------- 0 0.1 1073741824.0 2 2
+ 0.11862 1 4 cbr 210 ------- 0 0.1 1073741824.0 2 2
- 0.11862 1 4 cbr 210 ------- 0 0.1 1073741824.0 2 2
r 0.11862 0 2 cbr 210 ------- 0 0.1 1073741824.0 2 2
+ 0.11862 2 4 cbr 210 ------- 0 0.1 1073741824.0 2 2
- 0.11862 2 4 cbr 210 ------- 0 0.1 1073741824.0 2 2
+ 0.11862 2 5 cbr 210 ------- 0 0.1 1073741824.0 2 2
- 0.11862 2 5 cbr 210 ------- 0 0.1 1073741824.0 2 2
+ 0.11875 0 1 cbr 210 ------- 0 0.1 1073741824.0 5 5
- 0.11875 0 1 cbr 210 ------- 0 0.1 1073741824.0 5 5
+ 0.11875 0 2 cbr 210 ------- 0 0.1 1073741824.0 5 5
- 0.11875 0 2 cbr 210 ------- 0 0.1 1073741824.0 5 5
r 0.12224 1 3 cbr 210 ------- 0 0.1 1073741824.0 0 0
+ 0.12224 3 1 prune 80 ------- 30 3.0 1.0 -1 6
- 0.12224 3 1 prune 80 ------- 30 3.0 1.0 -1 6
r 0.12224 1 4 cbr 210 ------- 0 0.1 1073741824.0 0 0
+ 0.12224 4 2 cbr 210 ------- 0 0.1 1073741824.0 0 0
- 0.12224 4 2 cbr 210 ------- 0 0.1 1073741824.0 0 0
r 0.12224 2 4 cbr 210 ------- 0 0.1 1073741824.0 0 0
+ 0.12224 4 2 prune 80 ------- 30 4.0 2.0 -1 7
r 0.12224 2 5 cbr 210 ------- 0 0.1 1073741824.0 0 0
+ 0.12224 5 2 prune 80 ------- 30 5.0 2.0 -1 8
- 0.12224 5 2 prune 80 ------- 30 5.0 2.0 -1 8
r 0.12237 0 1 cbr 210 ------- 0 0.1 1073741824.0 3 3
+ 0.12237 1 3 cbr 210 ------- 0 0.1 1073741824.0 3 3
- 0.12237 1 3 cbr 210 ------- 0 0.1 1073741824.0 3 3
+ 0.12237 1 4 cbr 210 ------- 0 0.1 1073741824.0 3 3
- 0.12237 1 4 cbr 210 ------- 0 0.1 1073741824.0 3 3
r 0.12237 0 2 cbr 210 ------- 0 0.1 1073741824.0 3 3
+ 0.12237 2 4 cbr 210 ------- 0 0.1 1073741824.0 3 3
- 0.12237 2 4 cbr 210 ------- 0 0.1 1073741824.0 3 3
+ 0.12237 2 5 cbr 210 ------- 0 0.1 1073741824.0 3 3
- 0.12237 2 5 cbr 210 ------- 0 0.1 1073741824.0 3 3
+ 0.1225 0 1 cbr 210 ------- 0 0.1 1073741824.0 6 9
- 0.1225 0 1 cbr 210 ------- 0 0.1 1073741824.0 6 9
+ 0.1225 0 2 cbr 210 ------- 0 0.1 1073741824.0 6 9
- 0.1225 0 2 cbr 210 ------- 0 0.1 1073741824.0 6 9
- 0.12336 4 2 prune 80 ------- 30 4.0 2.0 -1 7
r 0.12599 1 3 cbr 210 ------- 0 0.1 1073741824.0 1 1
+ 0.12599 3 1 prune 80 ------- 30 3.0 1.0 -1 10
- 0.12599 3 1 prune 80 ------- 30 3.0 1.0 -1 10
r 0.12599 1 4 cbr 210 ------- 0 0.1 1073741824.0 1 1
+ 0.12599 4 2 cbr 210 ------- 0 0.1 1073741824.0 1 1
- 0.12599 4 2 cbr 210 ------- 0 0.1 1073741824.0 1 1
r 0.12599 2 4 cbr 210 ------- 0 0.1 1073741824.0 1 1
+ 0.12599 4 2 prune 80 ------- 30 4.0 2.0 -1 11
r 0.12599 2 5 cbr 210 ------- 0 0.1 1073741824.0 1 1
+ 0.12599 5 2 prune 80 ------- 30 5.0 2.0 -1 12
- 0.12599 5 2 prune 80 ------- 30 5.0 2.0 -1 12
r 0.12612 0 1 cbr 210 ------- 0 0.1 1073741824.0 4 4
+ 0.12612 1 3 cbr 210 ------- 0 0.1 1073741824.0 4 4
- 0.12612 1 3 cbr 210 ------- 0 0.1 1073741824.0 4 4
+ 0.12612 1 4 cbr 210 ------- 0 0.1 1073741824.0 4 4
- 0.12612 1 4 cbr 210 ------- 0 0.1 1073741824.0 4 4
r 0.12612 0 2 cbr 210 ------- 0 0.1 1073741824.0 4 4
+ 0.12612 2 4 cbr 210 ------- 0 0.1 1073741824.0 4 4
- 0.12612 2 4 cbr 210 ------- 0 0.1 1073741824.0 4 4
+ 0.12612 2 5 cbr 210 ------- 0 0.1 1073741824.0 4 4
- 0.12612 2 5 cbr 210 ------- 0 0.1 1073741824.0 4 4
+ 0.12625 0 1 cbr 210 ------- 0 0.1 1073741824.0 7 13
- 0.12625 0 1 cbr 210 ------- 0 0.1 1073741824.0 7 13
+ 0.12625 0 2 cbr 210 ------- 0 0.1 1073741824.0 7 13
- 0.12625 0 2 cbr 210 ------- 0 0.1 1073741824.0 7 13
- 0.12711 4 2 prune 80 ------- 30 4.0 2.0 -1 11
r 0.12974 1 3 cbr 210 ------- 0 0.1 1073741824.0 2 2
+ 0.12974 3 1 prune 80 ------- 30 3.0 1.0 -1 14
- 0.12974 3 1 prune 80 ------- 30 3.0 1.0 -1 14
r 0.12974 1 4 cbr 210 ------- 0 0.1 1073741824.0 2 2
+ 0.12974 4 2 cbr 210 ------- 0 0.1 1073741824.0 2 2
- 0.12974 4 2 cbr 210 ------- 0 0.1 1073741824.0 2 2
r 0.12974 2 4 cbr 210 ------- 0 0.1 1073741824.0 2 2
+ 0.12974 4 2 prune 80 ------- 30 4.0 2.0 -1 15
r 0.12974 2 5 cbr 210 ------- 0 0.1 1073741824.0 2 2
+ 0.12974 5 2 prune 80 ------- 30 5.0 2.0 -1 16
- 0.12974 5 2 prune 80 ------- 30 5.0 2.0 -1 16
r 0.12987 0 1 cbr 210 ------- 0 0.1 1073741824.0 5 5
+ 0.12987 1 3 cbr 210 ------- 0 0.1 1073741824.0 5 5
- 0.12987 1 3 cbr 210 ------- 0 0.1 1073741824.0 5 5
+ 0.12987 1 4 cbr 210 ------- 0 0.1 1073741824.0 5 5
- 0.12987 1 4 cbr 210 ------- 0 0.1 1073741824.0 5 5
r 0.12987 0 2 cbr 210 ------- 0 0.1 1073741824.0 5 5
+ 0.12987 2 4 cbr 210 ------- 0 0.1 1073741824.0 5 5
- 0.12987 2 4 cbr 210 ------- 0 0.1 1073741824.0 5 5
+ 0.12987 2 5 cbr 210 ------- 0 0.1 1073741824.0 5 5
- 0.12987 2 5 cbr 210 ------- 0 0.1 1073741824.0 5 5
+ 0.13 0 1 cbr 210 ------- 0 0.1 1073741824.0 8 17
- 0.13 0 1 cbr 210 ------- 0 0.1 1073741824.0 8 17
+ 0.13 0 2 cbr 210 ------- 0 0.1 1073741824.0 8 17
- 0.13 0 2 cbr 210 ------- 0 0.1 1073741824.0 8 17
- 0.13086 4 2 prune 80 ------- 30 4.0 2.0 -1 15
r 0.132667 3 1 prune 80 ------- 30 3.0 1.0 -1 6
r 0.132667 5 2 prune 80 ------- 30 5.0 2.0 -1 8
r 0.13336 4 2 cbr 210 ------- 0 0.1 1073741824.0 0 0
+ 0.13336 2 4 prune 80 ------- 30 2.0 4.0 -1 18
- 0.13336 2 4 prune 80 ------- 30 2.0 4.0 -1 18
r 0.13349 1 3 cbr 210 ------- 0 0.1 1073741824.0 3 3
+ 0.13349 3 1 prune 80 ------- 30 3.0 1.0 -1 19
- 0.13349 3 1 prune 80 ------- 30 3.0 1.0 -1 19
r 0.13349 1 4 cbr 210 ------- 0 0.1 1073741824.0 3 3
+ 0.13349 4 2 cbr 210 ------- 0 0.1 1073741824.0 3 3
- 0.13349 4 2 cbr 210 ------- 0 0.1 1073741824.0 3 3
r 0.13349 2 4 cbr 210 ------- 0 0.1 1073741824.0 3 3
+ 0.13349 4 2 prune 80 ------- 30 4.0 2.0 -1 20
r 0.13349 2 5 cbr 210 ------- 0 0.1 1073741824.0 3 3
+ 0.13349 5 2 prune 80 ------- 30 5.0 2.0 -1 21
- 0.13349 5 2 prune 80 ------- 30 5.0 2.0 -1 21
r 0.13362 0 1 cbr 210 ------- 0 0.1 1073741824.0 6 9
+ 0.13362 1 4 cbr 210 ------- 0 0.1 1073741824.0 6 9
- 0.13362 1 4 cbr 210 ------- 0 0.1 1073741824.0 6 9
r 0.13362 0 2 cbr 210 ------- 0 0.1 1073741824.0 6 9
+ 0.13362 2 4 cbr 210 ------- 0 0.1 1073741824.0 6 9
+ 0.13375 0 1 cbr 210 ------- 0 0.1 1073741824.0 9 22
- 0.13375 0 1 cbr 210 ------- 0 0.1 1073741824.0 9 22
+ 0.13375 0 2 cbr 210 ------- 0 0.1 1073741824.0 9 22
- 0.13375 0 2 cbr 210 ------- 0 0.1 1073741824.0 9 22
r 0.133787 4 2 prune 80 ------- 30 4.0 2.0 -1 7
+ 0.133787 2 0 prune 80 ------- 30 2.0 0.0 -1 23
- 0.133787 2 0 prune 80 ------- 30 2.0 0.0 -1 23
- 0.133787 2 4 cbr 210 ------- 0 0.1 1073741824.0 6 9
- 0.13461 4 2 prune 80 ------- 30 4.0 2.0 -1 20
r 0.136417 3 1 prune 80 ------- 30 3.0 1.0 -1 10
r 0.136417 5 2 prune 80 ------- 30 5.0 2.0 -1 12
r 0.13711 4 2 cbr 210 ------- 0 0.1 1073741824.0 1 1
+ 0.13711 2 4 prune 80 ------- 30 2.0 4.0 -1 24
- 0.13711 2 4 prune 80 ------- 30 2.0 4.0 -1 24
r 0.13724 1 3 cbr 210 ------- 0 0.1 1073741824.0 4 4
+ 0.13724 3 1 prune 80 ------- 30 3.0 1.0 -1 25
- 0.13724 3 1 prune 80 ------- 30 3.0 1.0 -1 25
r 0.13724 1 4 cbr 210 ------- 0 0.1 1073741824.0 4 4
+ 0.13724 4 2 cbr 210 ------- 0 0.1 1073741824.0 4 4
- 0.13724 4 2 cbr 210 ------- 0 0.1 1073741824.0 4 4
r 0.13724 2 4 cbr 210 ------- 0 0.1 1073741824.0 4 4
+ 0.13724 4 2 prune 80 ------- 30 4.0 2.0 -1 26
r 0.13724 2 5 cbr 210 ------- 0 0.1 1073741824.0 4 4
+ 0.13724 5 2 prune 80 ------- 30 5.0 2.0 -1 27
- 0.13724 5 2 prune 80 ------- 30 5.0 2.0 -1 27
r 0.13737 0 1 cbr 210 ------- 0 0.1 1073741824.0 7 13
+ 0.13737 1 4 cbr 210 ------- 0 0.1 1073741824.0 7 13
- 0.13737 1 4 cbr 210 ------- 0 0.1 1073741824.0 7 13
r 0.13737 0 2 cbr 210 ------- 0 0.1 1073741824.0 7 13
+ 0.13737 2 0 prune 80 ------- 30 2.0 0.0 -1 28
- 0.13737 2 0 prune 80 ------- 30 2.0 0.0 -1 28
+ 0.1375 0 1 cbr 210 ------- 0 0.1 1073741824.0 10 29
- 0.1375 0 1 cbr 210 ------- 0 0.1 1073741824.0 10 29
+ 0.1375 0 2 cbr 210 ------- 0 0.1 1073741824.0 10 29
- 0.1375 0 2 cbr 210 ------- 0 0.1 1073741824.0 10 29
r 0.137537 4 2 prune 80 ------- 30 4.0 2.0 -1 11
- 0.13836 4 2 prune 80 ------- 30 4.0 2.0 -1 26
r 0.140167 3 1 prune 80 ------- 30 3.0 1.0 -1 14
r 0.140167 5 2 prune 80 ------- 30 5.0 2.0 -1 16
r 0.14086 4 2 cbr 210 ------- 0 0.1 1073741824.0 2 2
+ 0.14086 2 4 prune 80 ------- 30 2.0 4.0 -1 30
- 0.14086 2 4 prune 80 ------- 30 2.0 4.0 -1 30
r 0.14099 1 3 cbr 210 ------- 0 0.1 1073741824.0 5 5
+ 0.14099 3 1 prune 80 ------- 30 3.0 1.0 -1 31
- 0.14099 3 1 prune 80 ------- 30 3.0 1.0 -1 31
r 0.14099 1 4 cbr 210 ------- 0 0.1 1073741824.0 5 5
+ 0.14099 4 2 cbr 210 ------- 0 0.1 1073741824.0 5 5
- 0.14099 4 2 cbr 210 ------- 0 0.1 1073741824.0 5 5
r 0.14099 2 4 cbr 210 ------- 0 0.1 1073741824.0 5 5
+ 0.14099 4 2 prune 80 ------- 30 4.0 2.0 -1 32
r 0.14099 2 5 cbr 210 ------- 0 0.1 1073741824.0 5 5
+ 0.14099 5 2 prune 80 ------- 30 5.0 2.0 -1 33
- 0.14099 5 2 prune 80 ------- 30 5.0 2.0 -1 33
r 0.14112 0 1 cbr 210 ------- 0 0.1 1073741824.0 8 17
+ 0.14112 1 4 cbr 210 ------- 0 0.1 1073741824.0 8 17
- 0.14112 1 4 cbr 210 ------- 0 0.1 1073741824.0 8 17
r 0.14112 0 2 cbr 210 ------- 0 0.1 1073741824.0 8 17
+ 0.14112 2 0 prune 80 ------- 30 2.0 0.0 -1 34
- 0.14112 2 0 prune 80 ------- 30 2.0 0.0 -1 34
+ 0.14125 0 1 cbr 210 ------- 0 0.1 1073741824.0 11 35
- 0.14125 0 1 cbr 210 ------- 0 0.1 1073741824.0 11 35
+ 0.14125 0 2 cbr 210 ------- 0 0.1 1073741824.0 11 35
- 0.14125 0 2 cbr 210 ------- 0 0.1 1073741824.0 11 35
r 0.141287 4 2 prune 80 ------- 30 4.0 2.0 -1 15
- 0.14211 4 2 prune 80 ------- 30 4.0 2.0 -1 32
r 0.143787 2 4 prune 80 ------- 30 2.0 4.0 -1 18
+ 0.143787 4 1 prune 80 ------- 30 4.0 1.0 -1 36
- 0.143787 4 1 prune 80 ------- 30 4.0 1.0 -1 36
r 0.143917 3 1 prune 80 ------- 30 3.0 1.0 -1 19
r 0.143917 5 2 prune 80 ------- 30 5.0 2.0 -1 21
r 0.144213 2 0 prune 80 ------- 30 2.0 0.0 -1 23
r 0.14461 4 2 cbr 210 ------- 0 0.1 1073741824.0 3 3
+ 0.14461 2 4 prune 80 ------- 30 2.0 4.0 -1 37
- 0.14461 2 4 prune 80 ------- 30 2.0 4.0 -1 37
r 0.14474 1 4 cbr 210 ------- 0 0.1 1073741824.0 6 9
+ 0.14474 4 1 prune 80 ------- 30 4.0 1.0 -1 38
- 0.14474 4 1 prune 80 ------- 30 4.0 1.0 -1 38
r 0.14487 0 1 cbr 210 ------- 0 0.1 1073741824.0 9 22
+ 0.14487 1 4 cbr 210 ------- 0 0.1 1073741824.0 9 22
- 0.14487 1 4 cbr 210 ------- 0 0.1 1073741824.0 9 22
r 0.14487 0 2 cbr 210 ------- 0 0.1 1073741824.0 9 22
+ 0.14487 2 0 prune 80 ------- 30 2.0 0.0 -1 39
- 0.14487 2 0 prune 80 ------- 30 2.0 0.0 -1 39
r 0.144907 2 4 cbr 210 ------- 0 0.1 1073741824.0 6 9
+ 0.144907 4 2 prune 80 ------- 30 4.0 2.0 -1 40
- 0.144907 4 2 prune 80 ------- 30 4.0 2.0 -1 40
+ 0.145 0 1 cbr 210 ------- 0 0.1 1073741824.0 12 41
- 0.145 0 1 cbr 210 ------- 0 0.1 1073741824.0 12 41
r 0.145037 4 2 prune 80 ------- 30 4.0 2.0 -1 20
r 0.147537 2 4 prune 80 ------- 30 2.0 4.0 -1 24
r 0.147667 3 1 prune 80 ------- 30 3.0 1.0 -1 25
r 0.147667 5 2 prune 80 ------- 30 5.0 2.0 -1 27
r 0.147797 2 0 prune 80 ------- 30 2.0 0.0 -1 28
r 0.14836 4 2 cbr 210 ------- 0 0.1 1073741824.0 4 4
+ 0.14836 2 4 prune 80 ------- 30 2.0 4.0 -1 42
- 0.14836 2 4 prune 80 ------- 30 2.0 4.0 -1 42
r 0.14849 1 4 cbr 210 ------- 0 0.1 1073741824.0 7 13
+ 0.14849 4 1 prune 80 ------- 30 4.0 1.0 -1 43
- 0.14849 4 1 prune 80 ------- 30 4.0 1.0 -1 43
r 0.14862 0 1 cbr 210 ------- 0 0.1 1073741824.0 10 29
+ 0.14862 1 4 cbr 210 ------- 0 0.1 1073741824.0 10 29
- 0.14862 1 4 cbr 210 ------- 0 0.1 1073741824.0 10 29
r 0.14862 0 2 cbr 210 ------- 0 0.1 1073741824.0 10 29
+ 0.14862 2 0 prune 80 ------- 30 2.0 0.0 -1 44
- 0.14862 2 0 prune 80 ------- 30 2.0 0.0 -1 44
+ 0.14875 0 1 cbr 210 ------- 0 0.1 1073741824.0 13 45
- 0.14875 0 1 cbr 210 ------- 0 0.1 1073741824.0 13 45
r 0.148787 4 2 prune 80 ------- 30 4.0 2.0 -1 26
r 0.151287 2 4 prune 80 ------- 30 2.0 4.0 -1 30
r 0.151417 3 1 prune 80 ------- 30 3.0 1.0 -1 31
r 0.151417 5 2 prune 80 ------- 30 5.0 2.0 -1 33
r 0.151547 2 0 prune 80 ------- 30 2.0 0.0 -1 34
r 0.15211 4 2 cbr 210 ------- 0 0.1 1073741824.0 5 5
+ 0.15211 2 4 prune 80 ------- 30 2.0 4.0 -1 46
- 0.15211 2 4 prune 80 ------- 30 2.0 4.0 -1 46
r 0.15224 1 4 cbr 210 ------- 0 0.1 1073741824.0 8 17
+ 0.15224 4 1 prune 80 ------- 30 4.0 1.0 -1 47
- 0.15224 4 1 prune 80 ------- 30 4.0 1.0 -1 47
r 0.15237 0 1 cbr 210 ------- 0 0.1 1073741824.0 11 35
+ 0.15237 1 4 cbr 210 ------- 0 0.1 1073741824.0 11 35
- 0.15237 1 4 cbr 210 ------- 0 0.1 1073741824.0 11 35
r 0.15237 0 2 cbr 210 ------- 0 0.1 1073741824.0 11 35
+ 0.15237 2 0 prune 80 ------- 30 2.0 0.0 -1 48
- 0.15237 2 0 prune 80 ------- 30 2.0 0.0 -1 48
+ 0.1525 0 1 cbr 210 ------- 0 0.1 1073741824.0 14 49
- 0.1525 0 1 cbr 210 ------- 0 0.1 1073741824.0 14 49
r 0.152537 4 2 prune 80 ------- 30 4.0 2.0 -1 32
r 0.154213 4 1 prune 80 ------- 30 4.0 1.0 -1 36
+ 0.154213 1 0 prune 80 ------- 30 1.0 0.0 -1 50
- 0.154213 1 0 prune 80 ------- 30 1.0 0.0 -1 50
r 0.155037 2 4 prune 80 ------- 30 2.0 4.0 -1 37
r 0.155167 4 1 prune 80 ------- 30 4.0 1.0 -1 38
r 0.155297 2 0 prune 80 ------- 30 2.0 0.0 -1 39
r 0.155333 4 2 prune 80 ------- 30 4.0 2.0 -1 40
r 0.15599 1 4 cbr 210 ------- 0 0.1 1073741824.0 9 22
+ 0.15599 4 1 prune 80 ------- 30 4.0 1.0 -1 51
- 0.15599 4 1 prune 80 ------- 30 4.0 1.0 -1 51
r 0.15612 0 1 cbr 210 ------- 0 0.1 1073741824.0 12 41
+ 0.15612 1 0 prune 80 ------- 30 1.0 0.0 -1 52
- 0.15612 1 0 prune 80 ------- 30 1.0 0.0 -1 52
+ 0.15625 0 1 cbr 210 ------- 0 0.1 1073741824.0 15 53
- 0.15625 0 1 cbr 210 ------- 0 0.1 1073741824.0 15 53
r 0.158787 2 4 prune 80 ------- 30 2.0 4.0 -1 42
r 0.158917 4 1 prune 80 ------- 30 4.0 1.0 -1 43
r 0.159047 2 0 prune 80 ------- 30 2.0 0.0 -1 44
r 0.15974 1 4 cbr 210 ------- 0 0.1 1073741824.0 10 29
+ 0.15974 4 1 prune 80 ------- 30 4.0 1.0 -1 54
- 0.15974 4 1 prune 80 ------- 30 4.0 1.0 -1 54
r 0.15987 0 1 cbr 210 ------- 0 0.1 1073741824.0 13 45
+ 0.15987 1 0 prune 80 ------- 30 1.0 0.0 -1 55
- 0.15987 1 0 prune 80 ------- 30 1.0 0.0 -1 55
+ 0.16 0 1 cbr 210 ------- 0 0.1 1073741824.0 16 56
- 0.16 0 1 cbr 210 ------- 0 0.1 1073741824.0 16 56
r 0.162537 2 4 prune 80 ------- 30 2.0 4.0 -1 46
r 0.162667 4 1 prune 80 ------- 30 4.0 1.0 -1 47
r 0.162797 2 0 prune 80 ------- 30 2.0 0.0 -1 48
r 0.16349 1 4 cbr 210 ------- 0 0.1 1073741824.0 11 35
+ 0.16349 4 1 prune 80 ------- 30 4.0 1.0 -1 57
- 0.16349 4 1 prune 80 ------- 30 4.0 1.0 -1 57
r 0.16362 0 1 cbr 210 ------- 0 0.1 1073741824.0 14 49
+ 0.16362 1 0 prune 80 ------- 30 1.0 0.0 -1 58
- 0.16362 1 0 prune 80 ------- 30 1.0 0.0 -1 58
+ 0.16375 0 1 cbr 210 ------- 0 0.1 1073741824.0 17 59
- 0.16375 0 1 cbr 210 ------- 0 0.1 1073741824.0 17 59
r 0.16464 1 0 prune 80 ------- 30 1.0 0.0 -1 50
r 0.166417 4 1 prune 80 ------- 30 4.0 1.0 -1 51
r 0.166547 1 0 prune 80 ------- 30 1.0 0.0 -1 52
r 0.16737 0 1 cbr 210 ------- 0 0.1 1073741824.0 15 53
+ 0.16737 1 0 prune 80 ------- 30 1.0 0.0 -1 60
- 0.16737 1 0 prune 80 ------- 30 1.0 0.0 -1 60
r 0.170167 4 1 prune 80 ------- 30 4.0 1.0 -1 54
r 0.170297 1 0 prune 80 ------- 30 1.0 0.0 -1 55
r 0.17112 0 1 cbr 210 ------- 0 0.1 1073741824.0 16 56
+ 0.17112 1 0 prune 80 ------- 30 1.0 0.0 -1 62
- 0.17112 1 0 prune 80 ------- 30 1.0 0.0 -1 62
r 0.173917 4 1 prune 80 ------- 30 4.0 1.0 -1 57
r 0.174047 1 0 prune 80 ------- 30 1.0 0.0 -1 58
r 0.17487 0 1 cbr 210 ------- 0 0.1 1073741824.0 17 59
+ 0.17487 1 0 prune 80 ------- 30 1.0 0.0 -1 64
- 0.17487 1 0 prune 80 ------- 30 1.0 0.0 -1 64
r 0.177797 1 0 prune 80 ------- 30 1.0 0.0 -1 60
r 0.181547 1 0 prune 80 ------- 30 1.0 0.0 -1 62
r 0.185297 1 0 prune 80 ------- 30 1.0 0.0 -1 64
v 0.2 eval {set sim_annotation {0.20000000000000001 3 join-group 1073741824}}
+ 0.2 3 1 graft 80 ------- 31 3.0 1.0 -1 72
- 0.2 3 1 graft 80 ------- 31 3.0 1.0 -1 72
r 0.210427 3 1 graft 80 ------- 31 3.0 1.0 -1 72
+ 0.210427 1 0 graft 80 ------- 31 1.0 0.0 -1 76
- 0.210427 1 0 graft 80 ------- 31 1.0 0.0 -1 76
r 0.220853 1 0 graft 80 ------- 31 1.0 0.0 -1 76
+ 0.22375 0 1 cbr 210 ------- 0 0.1 1073741824.0 33 80
- 0.22375 0 1 cbr 210 ------- 0 0.1 1073741824.0 33 80
+ 0.2275 0 1 cbr 210 ------- 0 0.1 1073741824.0 34 81
- 0.2275 0 1 cbr 210 ------- 0 0.1 1073741824.0 34 81
+ 0.23125 0 1 cbr 210 ------- 0 0.1 1073741824.0 35 82
- 0.23125 0 1 cbr 210 ------- 0 0.1 1073741824.0 35 82
r 0.23487 0 1 cbr 210 ------- 0 0.1 1073741824.0 33 80
+ 0.23487 1 3 cbr 210 ------- 0 0.1 1073741824.0 33 80
- 0.23487 1 3 cbr 210 ------- 0 0.1 1073741824.0 33 80
+ 0.235 0 1 cbr 210 ------- 0 0.1 1073741824.0 36 83
- 0.235 0 1 cbr 210 ------- 0 0.1 1073741824.0 36 83
r 0.23862 0 1 cbr 210 ------- 0 0.1 1073741824.0 34 81
+ 0.23862 1 3 cbr 210 ------- 0 0.1 1073741824.0 34 81
- 0.23862 1 3 cbr 210 ------- 0 0.1 1073741824.0 34 81
+ 0.23875 0 1 cbr 210 ------- 0 0.1 1073741824.0 37 84
- 0.23875 0 1 cbr 210 ------- 0 0.1 1073741824.0 37 84
r 0.24237 0 1 cbr 210 ------- 0 0.1 1073741824.0 35 82
+ 0.24237 1 3 cbr 210 ------- 0 0.1 1073741824.0 35 82
- 0.24237 1 3 cbr 210 ------- 0 0.1 1073741824.0 35 82
+ 0.2425 0 1 cbr 210 ------- 0 0.1 1073741824.0 38 85
- 0.2425 0 1 cbr 210 ------- 0 0.1 1073741824.0 38 85
r 0.24599 1 3 cbr 210 ------- 0 0.1 1073741824.0 33 80
r 0.24612 0 1 cbr 210 ------- 0 0.1 1073741824.0 36 83
+ 0.24612 1 3 cbr 210 ------- 0 0.1 1073741824.0 36 83
- 0.24612 1 3 cbr 210 ------- 0 0.1 1073741824.0 36 83
+ 0.24625 0 1 cbr 210 ------- 0 0.1 1073741824.0 39 86
- 0.24625 0 1 cbr 210 ------- 0 0.1 1073741824.0 39 86
r 0.24974 1 3 cbr 210 ------- 0 0.1 1073741824.0 34 81
r 0.24987 0 1 cbr 210 ------- 0 0.1 1073741824.0 37 84
+ 0.24987 1 3 cbr 210 ------- 0 0.1 1073741824.0 37 84
- 0.24987 1 3 cbr 210 ------- 0 0.1 1073741824.0 37 84
+ 0.25 0 1 cbr 210 ------- 0 0.1 1073741824.0 40 87
- 0.25 0 1 cbr 210 ------- 0 0.1 1073741824.0 40 87
r 0.25349 1 3 cbr 210 ------- 0 0.1 1073741824.0 35 82
r 0.25362 0 1 cbr 210 ------- 0 0.1 1073741824.0 38 85
+ 0.25362 1 3 cbr 210 ------- 0 0.1 1073741824.0 38 85
- 0.25362 1 3 cbr 210 ------- 0 0.1 1073741824.0 38 85
+ 0.25375 0 1 cbr 210 ------- 0 0.1 1073741824.0 41 88
- 0.25375 0 1 cbr 210 ------- 0 0.1 1073741824.0 41 88
r 0.25724 1 3 cbr 210 ------- 0 0.1 1073741824.0 36 83
r 0.25737 0 1 cbr 210 ------- 0 0.1 1073741824.0 39 86
+ 0.25737 1 3 cbr 210 ------- 0 0.1 1073741824.0 39 86
- 0.25737 1 3 cbr 210 ------- 0 0.1 1073741824.0 39 86
+ 0.2575 0 1 cbr 210 ------- 0 0.1 1073741824.0 42 89
- 0.2575 0 1 cbr 210 ------- 0 0.1 1073741824.0 42 89
r 0.26099 1 3 cbr 210 ------- 0 0.1 1073741824.0 37 84
r 0.26112 0 1 cbr 210 ------- 0 0.1 1073741824.0 40 87
+ 0.26112 1 3 cbr 210 ------- 0 0.1 1073741824.0 40 87
- 0.26112 1 3 cbr 210 ------- 0 0.1 1073741824.0 40 87
+ 0.26125 0 1 cbr 210 ------- 0 0.1 1073741824.0 43 90
- 0.26125 0 1 cbr 210 ------- 0 0.1 1073741824.0 43 90
r 0.26474 1 3 cbr 210 ------- 0 0.1 1073741824.0 38 85
r 0.26487 0 1 cbr 210 ------- 0 0.1 1073741824.0 41 88
+ 0.26487 1 3 cbr 210 ------- 0 0.1 1073741824.0 41 88
- 0.26487 1 3 cbr 210 ------- 0 0.1 1073741824.0 41 88
+ 0.265 0 1 cbr 210 ------- 0 0.1 1073741824.0 44 91
- 0.265 0 1 cbr 210 ------- 0 0.1 1073741824.0 44 91
r 0.26849 1 3 cbr 210 ------- 0 0.1 1073741824.0 39 86
r 0.26862 0 1 cbr 210 ------- 0 0.1 1073741824.0 42 89
+ 0.26862 1 3 cbr 210 ------- 0 0.1 1073741824.0 42 89
- 0.26862 1 3 cbr 210 ------- 0 0.1 1073741824.0 42 89
+ 0.26875 0 1 cbr 210 ------- 0 0.1 1073741824.0 45 92
- 0.26875 0 1 cbr 210 ------- 0 0.1 1073741824.0 45 92
r 0.27224 1 3 cbr 210 ------- 0 0.1 1073741824.0 40 87
r 0.27237 0 1 cbr 210 ------- 0 0.1 1073741824.0 43 90
+ 0.27237 1 3 cbr 210 ------- 0 0.1 1073741824.0 43 90
- 0.27237 1 3 cbr 210 ------- 0 0.1 1073741824.0 43 90
+ 0.2725 0 1 cbr 210 ------- 0 0.1 1073741824.0 46 93
- 0.2725 0 1 cbr 210 ------- 0 0.1 1073741824.0 46 93
r 0.27599 1 3 cbr 210 ------- 0 0.1 1073741824.0 41 88
r 0.27612 0 1 cbr 210 ------- 0 0.1 1073741824.0 44 91
+ 0.27612 1 3 cbr 210 ------- 0 0.1 1073741824.0 44 91
- 0.27612 1 3 cbr 210 ------- 0 0.1 1073741824.0 44 91
+ 0.27625 0 1 cbr 210 ------- 0 0.1 1073741824.0 47 94
- 0.27625 0 1 cbr 210 ------- 0 0.1 1073741824.0 47 94
r 0.27974 1 3 cbr 210 ------- 0 0.1 1073741824.0 42 89
r 0.27987 0 1 cbr 210 ------- 0 0.1 1073741824.0 45 92
+ 0.27987 1 3 cbr 210 ------- 0 0.1 1073741824.0 45 92
- 0.27987 1 3 cbr 210 ------- 0 0.1 1073741824.0 45 92
+ 0.28 0 1 cbr 210 ------- 0 0.1 1073741824.0 48 95
- 0.28 0 1 cbr 210 ------- 0 0.1 1073741824.0 48 95
r 0.28349 1 3 cbr 210 ------- 0 0.1 1073741824.0 43 90
r 0.28362 0 1 cbr 210 ------- 0 0.1 1073741824.0 46 93
+ 0.28362 1 3 cbr 210 ------- 0 0.1 1073741824.0 46 93
- 0.28362 1 3 cbr 210 ------- 0 0.1 1073741824.0 46 93
+ 0.28375 0 1 cbr 210 ------- 0 0.1 1073741824.0 49 96
- 0.28375 0 1 cbr 210 ------- 0 0.1 1073741824.0 49 96
r 0.28724 1 3 cbr 210 ------- 0 0.1 1073741824.0 44 91
r 0.28737 0 1 cbr 210 ------- 0 0.1 1073741824.0 47 94
+ 0.28737 1 3 cbr 210 ------- 0 0.1 1073741824.0 47 94
- 0.28737 1 3 cbr 210 ------- 0 0.1 1073741824.0 47 94
+ 0.2875 0 1 cbr 210 ------- 0 0.1 1073741824.0 50 97
- 0.2875 0 1 cbr 210 ------- 0 0.1 1073741824.0 50 97
r 0.29099 1 3 cbr 210 ------- 0 0.1 1073741824.0 45 92
r 0.29112 0 1 cbr 210 ------- 0 0.1 1073741824.0 48 95
+ 0.29112 1 3 cbr 210 ------- 0 0.1 1073741824.0 48 95
- 0.29112 1 3 cbr 210 ------- 0 0.1 1073741824.0 48 95
+ 0.29125 0 1 cbr 210 ------- 0 0.1 1073741824.0 51 98
- 0.29125 0 1 cbr 210 ------- 0 0.1 1073741824.0 51 98
r 0.29474 1 3 cbr 210 ------- 0 0.1 1073741824.0 46 93
r 0.29487 0 1 cbr 210 ------- 0 0.1 1073741824.0 49 96
+ 0.29487 1 3 cbr 210 ------- 0 0.1 1073741824.0 49 96
- 0.29487 1 3 cbr 210 ------- 0 0.1 1073741824.0 49 96
+ 0.295 0 1 cbr 210 ------- 0 0.1 1073741824.0 52 99
- 0.295 0 1 cbr 210 ------- 0 0.1 1073741824.0 52 99
r 0.29849 1 3 cbr 210 ------- 0 0.1 1073741824.0 47 94
r 0.29862 0 1 cbr 210 ------- 0 0.1 1073741824.0 50 97
+ 0.29862 1 3 cbr 210 ------- 0 0.1 1073741824.0 50 97
- 0.29862 1 3 cbr 210 ------- 0 0.1 1073741824.0 50 97
+ 0.29875 0 1 cbr 210 ------- 0 0.1 1073741824.0 53 100
- 0.29875 0 1 cbr 210 ------- 0 0.1 1073741824.0 53 100
r 0.30224 1 3 cbr 210 ------- 0 0.1 1073741824.0 48 95
r 0.30237 0 1 cbr 210 ------- 0 0.1 1073741824.0 51 98
+ 0.30237 1 3 cbr 210 ------- 0 0.1 1073741824.0 51 98
- 0.30237 1 3 cbr 210 ------- 0 0.1 1073741824.0 51 98
+ 0.3025 0 1 cbr 210 ------- 0 0.1 1073741824.0 54 101
- 0.3025 0 1 cbr 210 ------- 0 0.1 1073741824.0 54 101
r 0.30599 1 3 cbr 210 ------- 0 0.1 1073741824.0 49 96
r 0.30612 0 1 cbr 210 ------- 0 0.1 1073741824.0 52 99
+ 0.30612 1 3 cbr 210 ------- 0 0.1 1073741824.0 52 99
- 0.30612 1 3 cbr 210 ------- 0 0.1 1073741824.0 52 99
+ 0.30625 0 1 cbr 210 ------- 0 0.1 1073741824.0 55 102
- 0.30625 0 1 cbr 210 ------- 0 0.1 1073741824.0 55 102
r 0.30974 1 3 cbr 210 ------- 0 0.1 1073741824.0 50 97
r 0.30987 0 1 cbr 210 ------- 0 0.1 1073741824.0 53 100
+ 0.30987 1 3 cbr 210 ------- 0 0.1 1073741824.0 53 100
- 0.30987 1 3 cbr 210 ------- 0 0.1 1073741824.0 53 100
+ 0.31 0 1 cbr 210 ------- 0 0.1 1073741824.0 56 103
- 0.31 0 1 cbr 210 ------- 0 0.1 1073741824.0 56 103
r 0.31349 1 3 cbr 210 ------- 0 0.1 1073741824.0 51 98
r 0.31362 0 1 cbr 210 ------- 0 0.1 1073741824.0 54 101
+ 0.31362 1 3 cbr 210 ------- 0 0.1 1073741824.0 54 101
- 0.31362 1 3 cbr 210 ------- 0 0.1 1073741824.0 54 101
+ 0.31375 0 1 cbr 210 ------- 0 0.1 1073741824.0 57 104
- 0.31375 0 1 cbr 210 ------- 0 0.1 1073741824.0 57 104
r 0.31724 1 3 cbr 210 ------- 0 0.1 1073741824.0 52 99
r 0.31737 0 1 cbr 210 ------- 0 0.1 1073741824.0 55 102
+ 0.31737 1 3 cbr 210 ------- 0 0.1 1073741824.0 55 102
- 0.31737 1 3 cbr 210 ------- 0 0.1 1073741824.0 55 102
+ 0.3175 0 1 cbr 210 ------- 0 0.1 1073741824.0 58 105
- 0.3175 0 1 cbr 210 ------- 0 0.1 1073741824.0 58 105
r 0.32099 1 3 cbr 210 ------- 0 0.1 1073741824.0 53 100
r 0.32112 0 1 cbr 210 ------- 0 0.1 1073741824.0 56 103
+ 0.32112 1 3 cbr 210 ------- 0 0.1 1073741824.0 56 103
- 0.32112 1 3 cbr 210 ------- 0 0.1 1073741824.0 56 103
+ 0.32125 0 1 cbr 210 ------- 0 0.1 1073741824.0 59 106
- 0.32125 0 1 cbr 210 ------- 0 0.1 1073741824.0 59 106
r 0.32474 1 3 cbr 210 ------- 0 0.1 1073741824.0 54 101
r 0.32487 0 1 cbr 210 ------- 0 0.1 1073741824.0 57 104
+ 0.32487 1 3 cbr 210 ------- 0 0.1 1073741824.0 57 104
- 0.32487 1 3 cbr 210 ------- 0 0.1 1073741824.0 57 104
+ 0.325 0 1 cbr 210 ------- 0 0.1 1073741824.0 60 107
- 0.325 0 1 cbr 210 ------- 0 0.1 1073741824.0 60 107
r 0.32849 1 3 cbr 210 ------- 0 0.1 1073741824.0 55 102
r 0.32862 0 1 cbr 210 ------- 0 0.1 1073741824.0 58 105
+ 0.32862 1 3 cbr 210 ------- 0 0.1 1073741824.0 58 105
- 0.32862 1 3 cbr 210 ------- 0 0.1 1073741824.0 58 105
+ 0.32875 0 1 cbr 210 ------- 0 0.1 1073741824.0 61 108
- 0.32875 0 1 cbr 210 ------- 0 0.1 1073741824.0 61 108
r 0.33224 1 3 cbr 210 ------- 0 0.1 1073741824.0 56 103
r 0.33237 0 1 cbr 210 ------- 0 0.1 1073741824.0 59 106
+ 0.33237 1 3 cbr 210 ------- 0 0.1 1073741824.0 59 106
- 0.33237 1 3 cbr 210 ------- 0 0.1 1073741824.0 59 106
+ 0.3325 0 1 cbr 210 ------- 0 0.1 1073741824.0 62 109
- 0.3325 0 1 cbr 210 ------- 0 0.1 1073741824.0 62 109
r 0.33599 1 3 cbr 210 ------- 0 0.1 1073741824.0 57 104
r 0.33612 0 1 cbr 210 ------- 0 0.1 1073741824.0 60 107
+ 0.33612 1 3 cbr 210 ------- 0 0.1 1073741824.0 60 107
- 0.33612 1 3 cbr 210 ------- 0 0.1 1073741824.0 60 107
+ 0.33625 0 1 cbr 210 ------- 0 0.1 1073741824.0 63 110
- 0.33625 0 1 cbr 210 ------- 0 0.1 1073741824.0 63 110
r 0.33974 1 3 cbr 210 ------- 0 0.1 1073741824.0 58 105
r 0.33987 0 1 cbr 210 ------- 0 0.1 1073741824.0 61 108
+ 0.33987 1 3 cbr 210 ------- 0 0.1 1073741824.0 61 108
- 0.33987 1 3 cbr 210 ------- 0 0.1 1073741824.0 61 108
+ 0.34 0 1 cbr 210 ------- 0 0.1 1073741824.0 64 111
- 0.34 0 1 cbr 210 ------- 0 0.1 1073741824.0 64 111
r 0.34349 1 3 cbr 210 ------- 0 0.1 1073741824.0 59 106
r 0.34362 0 1 cbr 210 ------- 0 0.1 1073741824.0 62 109
+ 0.34362 1 3 cbr 210 ------- 0 0.1 1073741824.0 62 109
- 0.34362 1 3 cbr 210 ------- 0 0.1 1073741824.0 62 109
+ 0.34375 0 1 cbr 210 ------- 0 0.1 1073741824.0 65 112
- 0.34375 0 1 cbr 210 ------- 0 0.1 1073741824.0 65 112
r 0.34724 1 3 cbr 210 ------- 0 0.1 1073741824.0 60 107
r 0.34737 0 1 cbr 210 ------- 0 0.1 1073741824.0 63 110
+ 0.34737 1 3 cbr 210 ------- 0 0.1 1073741824.0 63 110
- 0.34737 1 3 cbr 210 ------- 0 0.1 1073741824.0 63 110
+ 0.3475 0 1 cbr 210 ------- 0 0.1 1073741824.0 66 113
- 0.3475 0 1 cbr 210 ------- 0 0.1 1073741824.0 66 113
r 0.35099 1 3 cbr 210 ------- 0 0.1 1073741824.0 61 108
r 0.35112 0 1 cbr 210 ------- 0 0.1 1073741824.0 64 111
+ 0.35112 1 3 cbr 210 ------- 0 0.1 1073741824.0 64 111
- 0.35112 1 3 cbr 210 ------- 0 0.1 1073741824.0 64 111
+ 0.35125 0 1 cbr 210 ------- 0 0.1 1073741824.0 67 114
- 0.35125 0 1 cbr 210 ------- 0 0.1 1073741824.0 67 114
r 0.35474 1 3 cbr 210 ------- 0 0.1 1073741824.0 62 109
r 0.35487 0 1 cbr 210 ------- 0 0.1 1073741824.0 65 112
+ 0.35487 1 3 cbr 210 ------- 0 0.1 1073741824.0 65 112
- 0.35487 1 3 cbr 210 ------- 0 0.1 1073741824.0 65 112
+ 0.355 0 1 cbr 210 ------- 0 0.1 1073741824.0 68 115
- 0.355 0 1 cbr 210 ------- 0 0.1 1073741824.0 68 115
r 0.35849 1 3 cbr 210 ------- 0 0.1 1073741824.0 63 110
r 0.35862 0 1 cbr 210 ------- 0 0.1 1073741824.0 66 113
+ 0.35862 1 3 cbr 210 ------- 0 0.1 1073741824.0 66 113
- 0.35862 1 3 cbr 210 ------- 0 0.1 1073741824.0 66 113
+ 0.35875 0 1 cbr 210 ------- 0 0.1 1073741824.0 69 116
- 0.35875 0 1 cbr 210 ------- 0 0.1 1073741824.0 69 116
r 0.36224 1 3 cbr 210 ------- 0 0.1 1073741824.0 64 111
r 0.36237 0 1 cbr 210 ------- 0 0.1 1073741824.0 67 114
+ 0.36237 1 3 cbr 210 ------- 0 0.1 1073741824.0 67 114
- 0.36237 1 3 cbr 210 ------- 0 0.1 1073741824.0 67 114
+ 0.3625 0 1 cbr 210 ------- 0 0.1 1073741824.0 70 117
- 0.3625 0 1 cbr 210 ------- 0 0.1 1073741824.0 70 117
r 0.36599 1 3 cbr 210 ------- 0 0.1 1073741824.0 65 112
r 0.36612 0 1 cbr 210 ------- 0 0.1 1073741824.0 68 115
+ 0.36612 1 3 cbr 210 ------- 0 0.1 1073741824.0 68 115
- 0.36612 1 3 cbr 210 ------- 0 0.1 1073741824.0 68 115
+ 0.36625 0 1 cbr 210 ------- 0 0.1 1073741824.0 71 118
- 0.36625 0 1 cbr 210 ------- 0 0.1 1073741824.0 71 118
r 0.36974 1 3 cbr 210 ------- 0 0.1 1073741824.0 66 113
r 0.36987 0 1 cbr 210 ------- 0 0.1 1073741824.0 69 116
+ 0.36987 1 3 cbr 210 ------- 0 0.1 1073741824.0 69 116
- 0.36987 1 3 cbr 210 ------- 0 0.1 1073741824.0 69 116
+ 0.37 0 1 cbr 210 ------- 0 0.1 1073741824.0 72 119
- 0.37 0 1 cbr 210 ------- 0 0.1 1073741824.0 72 119