+ 0.1 3 1 encap 230 ------- 32 3.2 0.1 -1 1
- 0.1 3 1 encap 230 ------- 32 3.2 0.1 -1 1
r 0.111227 3 1 encap 230 ------- 32 3.2 0.1 -1 1
+ 0.111227 1 0 encap 230 ------- 32 3.2 0.1 -1 1
- 0.111227 1 0 encap 230 ------- 32 3.2 0.1 -1 1
r 0.122453 1 0 encap 230 ------- 32 3.2 0.1 -1 1
+ 0.13 3 1 encap 230 ------- 32 3.2 0.1 -1 3
- 0.13 3 1 encap 230 ------- 32 3.2 0.1 -1 3
r 0.141227 3 1 encap 230 ------- 32 3.2 0.1 -1 3
+ 0.141227 1 0 encap 230 ------- 32 3.2 0.1 -1 3
- 0.141227 1 0 encap 230 ------- 32 3.2 0.1 -1 3
r 0.152453 1 0 encap 230 ------- 32 3.2 0.1 -1 3
+ 0.16 3 1 encap 230 ------- 32 3.2 0.1 -1 5
- 0.16 3 1 encap 230 ------- 32 3.2 0.1 -1 5
r 0.171227 3 1 encap 230 ------- 32 3.2 0.1 -1 5
+ 0.171227 1 0 encap 230 ------- 32 3.2 0.1 -1 5
- 0.171227 1 0 encap 230 ------- 32 3.2 0.1 -1 5
r 0.182453 1 0 encap 230 ------- 32 3.2 0.1 -1 5
+ 0.19 3 1 encap 230 ------- 32 3.2 0.1 -1 7
- 0.19 3 1 encap 230 ------- 32 3.2 0.1 -1 7
+ 0.2 2 0 graft 80 ------- 31 2.1 0.0 -1 8
- 0.2 2 0 graft 80 ------- 31 2.1 0.0 -1 8
v 0.2 eval {set sim_annotation {0.20000000000000001 2 join-group 1073741824}}
r 0.201227 3 1 encap 230 ------- 32 3.2 0.1 -1 7
+ 0.201227 1 0 encap 230 ------- 32 3.2 0.1 -1 7
- 0.201227 1 0 encap 230 ------- 32 3.2 0.1 -1 7
r 0.210427 2 0 graft 80 ------- 31 2.1 0.0 -1 8
r 0.212453 1 0 encap 230 ------- 32 3.2 0.1 -1 7
+ 0.212453 0 2 cbr 210 ------- 0 3.0 1073741824.0 3 6
- 0.212453 0 2 cbr 210 ------- 0 3.0 1073741824.0 3 6
+ 0.22 3 1 encap 230 ------- 32 3.2 0.1 -1 10
- 0.22 3 1 encap 230 ------- 32 3.2 0.1 -1 10
r 0.223573 0 2 cbr 210 ------- 0 3.0 1073741824.0 3 6
r 0.231227 3 1 encap 230 ------- 32 3.2 0.1 -1 10
+ 0.231227 1 0 encap 230 ------- 32 3.2 0.1 -1 10
- 0.231227 1 0 encap 230 ------- 32 3.2 0.1 -1 10
r 0.242453 1 0 encap 230 ------- 32 3.2 0.1 -1 10
+ 0.242453 0 2 cbr 210 ------- 0 3.0 1073741824.0 4 9
- 0.242453 0 2 cbr 210 ------- 0 3.0 1073741824.0 4 9
+ 0.25 3 1 encap 230 ------- 32 3.2 0.1 -1 12
- 0.25 3 1 encap 230 ------- 32 3.2 0.1 -1 12
r 0.253573 0 2 cbr 210 ------- 0 3.0 1073741824.0 4 9
r 0.261227 3 1 encap 230 ------- 32 3.2 0.1 -1 12
+ 0.261227 1 0 encap 230 ------- 32 3.2 0.1 -1 12
- 0.261227 1 0 encap 230 ------- 32 3.2 0.1 -1 12
r 0.272453 1 0 encap 230 ------- 32 3.2 0.1 -1 12
+ 0.272453 0 2 cbr 210 ------- 0 3.0 1073741824.0 5 11
- 0.272453 0 2 cbr 210 ------- 0 3.0 1073741824.0 5 11
+ 0.28 3 1 encap 230 ------- 32 3.2 0.1 -1 14
- 0.28 3 1 encap 230 ------- 32 3.2 0.1 -1 14
r 0.283573 0 2 cbr 210 ------- 0 3.0 1073741824.0 5 11
r 0.291227 3 1 encap 230 ------- 32 3.2 0.1 -1 14
+ 0.291227 1 0 encap 230 ------- 32 3.2 0.1 -1 14
- 0.291227 1 0 encap 230 ------- 32 3.2 0.1 -1 14
r 0.302453 1 0 encap 230 ------- 32 3.2 0.1 -1 14
+ 0.302453 0 2 cbr 210 ------- 0 3.0 1073741824.0 6 13
- 0.302453 0 2 cbr 210 ------- 0 3.0 1073741824.0 6 13
+ 0.31 3 1 encap 230 ------- 32 3.2 0.1 -1 16
- 0.31 3 1 encap 230 ------- 32 3.2 0.1 -1 16
r 0.313573 0 2 cbr 210 ------- 0 3.0 1073741824.0 6 13
r 0.321227 3 1 encap 230 ------- 32 3.2 0.1 -1 16
+ 0.321227 1 0 encap 230 ------- 32 3.2 0.1 -1 16
- 0.321227 1 0 encap 230 ------- 32 3.2 0.1 -1 16
r 0.332453 1 0 encap 230 ------- 32 3.2 0.1 -1 16
+ 0.332453 0 2 cbr 210 ------- 0 3.0 1073741824.0 7 15
- 0.332453 0 2 cbr 210 ------- 0 3.0 1073741824.0 7 15
+ 0.34 3 1 encap 230 ------- 32 3.2 0.1 -1 18
- 0.34 3 1 encap 230 ------- 32 3.2 0.1 -1 18
r 0.343573 0 2 cbr 210 ------- 0 3.0 1073741824.0 7 15
r 0.351227 3 1 encap 230 ------- 32 3.2 0.1 -1 18
+ 0.351227 1 0 encap 230 ------- 32 3.2 0.1 -1 18
- 0.351227 1 0 encap 230 ------- 32 3.2 0.1 -1 18
r 0.362453 1 0 encap 230 ------- 32 3.2 0.1 -1 18
+ 0.362453 0 2 cbr 210 ------- 0 3.0 1073741824.0 8 17
- 0.362453 0 2 cbr 210 ------- 0 3.0 1073741824.0 8 17
+ 0.37 3 1 encap 230 ------- 32 3.2 0.1 -1 20
- 0.37 3 1 encap 230 ------- 32 3.2 0.1 -1 20
r 0.373573 0 2 cbr 210 ------- 0 3.0 1073741824.0 8 17
r 0.381227 3 1 encap 230 ------- 32 3.2 0.1 -1 20
+ 0.381227 1 0 encap 230 ------- 32 3.2 0.1 -1 20
- 0.381227 1 0 encap 230 ------- 32 3.2 0.1 -1 20
r 0.392453 1 0 encap 230 ------- 32 3.2 0.1 -1 20
+ 0.392453 0 2 cbr 210 ------- 0 3.0 1073741824.0 9 19
- 0.392453 0 2 cbr 210 ------- 0 3.0 1073741824.0 9 19
+ 0.4 4 1 graft 80 ------- 31 4.1 1.0 -1 21
- 0.4 4 1 graft 80 ------- 31 4.1 1.0 -1 21
v 0.4 eval {set sim_annotation {0.40000000000000002 4 join-group 1073741824}}
+ 0.4 3 1 encap 230 ------- 32 3.2 0.1 -1 23
- 0.4 3 1 encap 230 ------- 32 3.2 0.1 -1 23
r 0.403573 0 2 cbr 210 ------- 0 3.0 1073741824.0 9 19
r 0.410427 4 1 graft 80 ------- 31 4.1 1.0 -1 21
+ 0.410427 1 0 graft 80 ------- 31 1.0 0.0 -1 24
- 0.410427 1 0 graft 80 ------- 31 1.0 0.0 -1 24
r 0.411227 3 1 encap 230 ------- 32 3.2 0.1 -1 23
+ 0.411227 1 0 encap 230 ------- 32 3.2 0.1 -1 23
- 0.411227 1 0 encap 230 ------- 32 3.2 0.1 -1 23
r 0.420853 1 0 graft 80 ------- 31 1.0 0.0 -1 24
r 0.422453 1 0 encap 230 ------- 32 3.2 0.1 -1 23
+ 0.422453 0 2 cbr 210 ------- 0 3.0 1073741824.0 10 22
- 0.422453 0 2 cbr 210 ------- 0 3.0 1073741824.0 10 22
+ 0.422453 0 1 cbr 210 ------- 0 3.0 1073741824.0 10 22
- 0.422453 0 1 cbr 210 ------- 0 3.0 1073741824.0 10 22
+ 0.43 3 1 encap 230 ------- 32 3.2 0.1 -1 26
- 0.43 3 1 encap 230 ------- 32 3.2 0.1 -1 26
r 0.433573 0 2 cbr 210 ------- 0 3.0 1073741824.0 10 22
r 0.433573 0 1 cbr 210 ------- 0 3.0 1073741824.0 10 22
+ 0.433573 1 4 cbr 210 ------- 0 3.0 1073741824.0 10 22
- 0.433573 1 4 cbr 210 ------- 0 3.0 1073741824.0 10 22
r 0.441227 3 1 encap 230 ------- 32 3.2 0.1 -1 26
+ 0.441227 1 0 encap 230 ------- 32 3.2 0.1 -1 26
- 0.441227 1 0 encap 230 ------- 32 3.2 0.1 -1 26
r 0.444693 1 4 cbr 210 ------- 0 3.0 1073741824.0 10 22
r 0.452453 1 0 encap 230 ------- 32 3.2 0.1 -1 26
+ 0.452453 0 2 cbr 210 ------- 0 3.0 1073741824.0 11 25
- 0.452453 0 2 cbr 210 ------- 0 3.0 1073741824.0 11 25
+ 0.452453 0 1 cbr 210 ------- 0 3.0 1073741824.0 11 25
- 0.452453 0 1 cbr 210 ------- 0 3.0 1073741824.0 11 25
+ 0.46 3 1 encap 230 ------- 32 3.2 0.1 -1 28
- 0.46 3 1 encap 230 ------- 32 3.2 0.1 -1 28
r 0.463573 0 2 cbr 210 ------- 0 3.0 1073741824.0 11 25
r 0.463573 0 1 cbr 210 ------- 0 3.0 1073741824.0 11 25
+ 0.463573 1 4 cbr 210 ------- 0 3.0 1073741824.0 11 25
- 0.463573 1 4 cbr 210 ------- 0 3.0 1073741824.0 11 25
r 0.471227 3 1 encap 230 ------- 32 3.2 0.1 -1 28
+ 0.471227 1 0 encap 230 ------- 32 3.2 0.1 -1 28
- 0.471227 1 0 encap 230 ------- 32 3.2 0.1 -1 28
r 0.474693 1 4 cbr 210 ------- 0 3.0 1073741824.0 11 25
r 0.482453 1 0 encap 230 ------- 32 3.2 0.1 -1 28
+ 0.482453 0 2 cbr 210 ------- 0 3.0 1073741824.0 12 27
- 0.482453 0 2 cbr 210 ------- 0 3.0 1073741824.0 12 27
+ 0.482453 0 1 cbr 210 ------- 0 3.0 1073741824.0 12 27
- 0.482453 0 1 cbr 210 ------- 0 3.0 1073741824.0 12 27
+ 0.49 3 1 encap 230 ------- 32 3.2 0.1 -1 30
- 0.49 3 1 encap 230 ------- 32 3.2 0.1 -1 30
r 0.493573 0 2 cbr 210 ------- 0 3.0 1073741824.0 12 27
r 0.493573 0 1 cbr 210 ------- 0 3.0 1073741824.0 12 27
+ 0.493573 1 4 cbr 210 ------- 0 3.0 1073741824.0 12 27
- 0.493573 1 4 cbr 210 ------- 0 3.0 1073741824.0 12 27
r 0.501227 3 1 encap 230 ------- 32 3.2 0.1 -1 30
+ 0.501227 1 0 encap 230 ------- 32 3.2 0.1 -1 30
- 0.501227 1 0 encap 230 ------- 32 3.2 0.1 -1 30
r 0.504693 1 4 cbr 210 ------- 0 3.0 1073741824.0 12 27
r 0.512453 1 0 encap 230 ------- 32 3.2 0.1 -1 30
+ 0.512453 0 2 cbr 210 ------- 0 3.0 1073741824.0 13 29
- 0.512453 0 2 cbr 210 ------- 0 3.0 1073741824.0 13 29
+ 0.512453 0 1 cbr 210 ------- 0 3.0 1073741824.0 13 29
- 0.512453 0 1 cbr 210 ------- 0 3.0 1073741824.0 13 29
+ 0.52 3 1 encap 230 ------- 32 3.2 0.1 -1 32
- 0.52 3 1 encap 230 ------- 32 3.2 0.1 -1 32
r 0.523573 0 2 cbr 210 ------- 0 3.0 1073741824.0 13 29
r 0.523573 0 1 cbr 210 ------- 0 3.0 1073741824.0 13 29
+ 0.523573 1 4 cbr 210 ------- 0 3.0 1073741824.0 13 29
- 0.523573 1 4 cbr 210 ------- 0 3.0 1073741824.0 13 29
r 0.531227 3 1 encap 230 ------- 32 3.2 0.1 -1 32
+ 0.531227 1 0 encap 230 ------- 32 3.2 0.1 -1 32
- 0.531227 1 0 encap 230 ------- 32 3.2 0.1 -1 32
r 0.534693 1 4 cbr 210 ------- 0 3.0 1073741824.0 13 29
r 0.542453 1 0 encap 230 ------- 32 3.2 0.1 -1 32
+ 0.542453 0 2 cbr 210 ------- 0 3.0 1073741824.0 14 31
- 0.542453 0 2 cbr 210 ------- 0 3.0 1073741824.0 14 31
+ 0.542453 0 1 cbr 210 ------- 0 3.0 1073741824.0 14 31
- 0.542453 0 1 cbr 210 ------- 0 3.0 1073741824.0 14 31
+ 0.55 3 1 encap 230 ------- 32 3.2 0.1 -1 34
- 0.55 3 1 encap 230 ------- 32 3.2 0.1 -1 34
r 0.553573 0 2 cbr 210 ------- 0 3.0 1073741824.0 14 31
r 0.553573 0 1 cbr 210 ------- 0 3.0 1073741824.0 14 31
+ 0.553573 1 4 cbr 210 ------- 0 3.0 1073741824.0 14 31
- 0.553573 1 4 cbr 210 ------- 0 3.0 1073741824.0 14 31
r 0.561227 3 1 encap 230 ------- 32 3.2 0.1 -1 34
+ 0.561227 1 0 encap 230 ------- 32 3.2 0.1 -1 34
- 0.561227 1 0 encap 230 ------- 32 3.2 0.1 -1 34
r 0.564693 1 4 cbr 210 ------- 0 3.0 1073741824.0 14 31
r 0.572453 1 0 encap 230 ------- 32 3.2 0.1 -1 34
+ 0.572453 0 2 cbr 210 ------- 0 3.0 1073741824.0 15 33
- 0.572453 0 2 cbr 210 ------- 0 3.0 1073741824.0 15 33
+ 0.572453 0 1 cbr 210 ------- 0 3.0 1073741824.0 15 33
- 0.572453 0 1 cbr 210 ------- 0 3.0 1073741824.0 15 33
+ 0.58 3 1 encap 230 ------- 32 3.2 0.1 -1 36
- 0.58 3 1 encap 230 ------- 32 3.2 0.1 -1 36
r 0.583573 0 2 cbr 210 ------- 0 3.0 1073741824.0 15 33
r 0.583573 0 1 cbr 210 ------- 0 3.0 1073741824.0 15 33
+ 0.583573 1 4 cbr 210 ------- 0 3.0 1073741824.0 15 33
- 0.583573 1 4 cbr 210 ------- 0 3.0 1073741824.0 15 33
r 0.591227 3 1 encap 230 ------- 32 3.2 0.1 -1 36
+ 0.591227 1 0 encap 230 ------- 32 3.2 0.1 -1 36
- 0.591227 1 0 encap 230 ------- 32 3.2 0.1 -1 36
r 0.594693 1 4 cbr 210 ------- 0 3.0 1073741824.0 15 33
v 0.6 eval {set sim_annotation {0.59999999999999998 2 leave-group 1073741824}}
+ 0.6 2 0 prune 80 ------- 30 2.1 0.0 -1 37
- 0.6 2 0 prune 80 ------- 30 2.1 0.0 -1 37
r 0.602453 1 0 encap 230 ------- 32 3.2 0.1 -1 36
+ 0.602453 0 2 cbr 210 ------- 0 3.0 1073741824.0 16 35
- 0.602453 0 2 cbr 210 ------- 0 3.0 1073741824.0 16 35
+ 0.602453 0 1 cbr 210 ------- 0 3.0 1073741824.0 16 35
- 0.602453 0 1 cbr 210 ------- 0 3.0 1073741824.0 16 35
+ 0.61 3 1 encap 230 ------- 32 3.2 0.1 -1 39
- 0.61 3 1 encap 230 ------- 32 3.2 0.1 -1 39
r 0.610427 2 0 prune 80 ------- 30 2.1 0.0 -1 37
r 0.613573 0 2 cbr 210 ------- 0 3.0 1073741824.0 16 35
+ 0.613573 2 0 prune 80 ------- 30 2.1 0.0 -1 40
- 0.613573 2 0 prune 80 ------- 30 2.1 0.0 -1 40
r 0.613573 0 1 cbr 210 ------- 0 3.0 1073741824.0 16 35
+ 0.613573 1 4 cbr 210 ------- 0 3.0 1073741824.0 16 35
- 0.613573 1 4 cbr 210 ------- 0 3.0 1073741824.0 16 35
r 0.621227 3 1 encap 230 ------- 32 3.2 0.1 -1 39
+ 0.621227 1 0 encap 230 ------- 32 3.2 0.1 -1 39
- 0.621227 1 0 encap 230 ------- 32 3.2 0.1 -1 39
r 0.624 2 0 prune 80 ------- 30 2.1 0.0 -1 40
r 0.624693 1 4 cbr 210 ------- 0 3.0 1073741824.0 16 35
r 0.632453 1 0 encap 230 ------- 32 3.2 0.1 -1 39
+ 0.632453 0 1 cbr 210 ------- 0 3.0 1073741824.0 17 38
- 0.632453 0 1 cbr 210 ------- 0 3.0 1073741824.0 17 38
+ 0.64 3 1 encap 230 ------- 32 3.2 0.1 -1 42
- 0.64 3 1 encap 230 ------- 32 3.2 0.1 -1 42
r 0.643573 0 1 cbr 210 ------- 0 3.0 1073741824.0 17 38
+ 0.643573 1 4 cbr 210 ------- 0 3.0 1073741824.0 17 38
- 0.643573 1 4 cbr 210 ------- 0 3.0 1073741824.0 17 38
r 0.651227 3 1 encap 230 ------- 32 3.2 0.1 -1 42
+ 0.651227 1 0 encap 230 ------- 32 3.2 0.1 -1 42
- 0.651227 1 0 encap 230 ------- 32 3.2 0.1 -1 42
r 0.654693 1 4 cbr 210 ------- 0 3.0 1073741824.0 17 38
r 0.662453 1 0 encap 230 ------- 32 3.2 0.1 -1 42
+ 0.662453 0 1 cbr 210 ------- 0 3.0 1073741824.0 18 41
- 0.662453 0 1 cbr 210 ------- 0 3.0 1073741824.0 18 41
+ 0.67 3 1 encap 230 ------- 32 3.2 0.1 -1 44
- 0.67 3 1 encap 230 ------- 32 3.2 0.1 -1 44
r 0.673573 0 1 cbr 210 ------- 0 3.0 1073741824.0 18 41
+ 0.673573 1 4 cbr 210 ------- 0 3.0 1073741824.0 18 41
- 0.673573 1 4 cbr 210 ------- 0 3.0 1073741824.0 18 41
r 0.681227 3 1 encap 230 ------- 32 3.2 0.1 -1 44
+ 0.681227 1 0 encap 230 ------- 32 3.2 0.1 -1 44
- 0.681227 1 0 encap 230 ------- 32 3.2 0.1 -1 44
r 0.684693 1 4 cbr 210 ------- 0 3.0 1073741824.0 18 41
r 0.692453 1 0 encap 230 ------- 32 3.2 0.1 -1 44
+ 0.692453 0 1 cbr 210 ------- 0 3.0 1073741824.0 19 43
- 0.692453 0 1 cbr 210 ------- 0 3.0 1073741824.0 19 43
+ 0.7 5 2 graft 80 ------- 31 5.1 2.1 -1 45
- 0.7 5 2 graft 80 ------- 31 5.1 2.1 -1 45
v 0.7 eval {set sim_annotation {0.69999999999999996 5 join-group 1073741824}}
+ 0.7 3 1 encap 230 ------- 32 3.2 0.1 -1 47
- 0.7 3 1 encap 230 ------- 32 3.2 0.1 -1 47
r 0.703573 0 1 cbr 210 ------- 0 3.0 1073741824.0 19 43
+ 0.703573 1 4 cbr 210 ------- 0 3.0 1073741824.0 19 43
- 0.703573 1 4 cbr 210 ------- 0 3.0 1073741824.0 19 43
r 0.710427 5 2 graft 80 ------- 31 5.1 2.1 -1 45
+ 0.710427 2 0 graft 80 ------- 31 2.1 0.0 -1 48
- 0.710427 2 0 graft 80 ------- 31 2.1 0.0 -1 48
r 0.711227 3 1 encap 230 ------- 32 3.2 0.1 -1 47
+ 0.711227 1 0 encap 230 ------- 32 3.2 0.1 -1 47
- 0.711227 1 0 encap 230 ------- 32 3.2 0.1 -1 47
r 0.714693 1 4 cbr 210 ------- 0 3.0 1073741824.0 19 43
r 0.720853 2 0 graft 80 ------- 31 2.1 0.0 -1 48
r 0.722453 1 0 encap 230 ------- 32 3.2 0.1 -1 47
+ 0.722453 0 1 cbr 210 ------- 0 3.0 1073741824.0 20 46
- 0.722453 0 1 cbr 210 ------- 0 3.0 1073741824.0 20 46
+ 0.722453 0 2 cbr 210 ------- 0 3.0 1073741824.0 20 46
- 0.722453 0 2 cbr 210 ------- 0 3.0 1073741824.0 20 46
+ 0.73 3 1 encap 230 ------- 32 3.2 0.1 -1 50
- 0.73 3 1 encap 230 ------- 32 3.2 0.1 -1 50
r 0.733573 0 1 cbr 210 ------- 0 3.0 1073741824.0 20 46
+ 0.733573 1 4 cbr 210 ------- 0 3.0 1073741824.0 20 46
- 0.733573 1 4 cbr 210 ------- 0 3.0 1073741824.0 20 46
r 0.733573 0 2 cbr 210 ------- 0 3.0 1073741824.0 20 46
+ 0.733573 2 5 cbr 210 ------- 0 3.0 1073741824.0 20 46
- 0.733573 2 5 cbr 210 ------- 0 3.0 1073741824.0 20 46
r 0.741227 3 1 encap 230 ------- 32 3.2 0.1 -1 50
+ 0.741227 1 0 encap 230 ------- 32 3.2 0.1 -1 50
- 0.741227 1 0 encap 230 ------- 32 3.2 0.1 -1 50
r 0.744693 1 4 cbr 210 ------- 0 3.0 1073741824.0 20 46
r 0.744693 2 5 cbr 210 ------- 0 3.0 1073741824.0 20 46
r 0.752453 1 0 encap 230 ------- 32 3.2 0.1 -1 50
+ 0.752453 0 1 cbr 210 ------- 0 3.0 1073741824.0 21 49
- 0.752453 0 1 cbr 210 ------- 0 3.0 1073741824.0 21 49
+ 0.752453 0 2 cbr 210 ------- 0 3.0 1073741824.0 21 49
- 0.752453 0 2 cbr 210 ------- 0 3.0 1073741824.0 21 49
+ 0.76 3 1 encap 230 ------- 32 3.2 0.1 -1 52
- 0.76 3 1 encap 230 ------- 32 3.2 0.1 -1 52
r 0.763573 0 1 cbr 210 ------- 0 3.0 1073741824.0 21 49
+ 0.763573 1 4 cbr 210 ------- 0 3.0 1073741824.0 21 49
- 0.763573 1 4 cbr 210 ------- 0 3.0 1073741824.0 21 49
r 0.763573 0 2 cbr 210 ------- 0 3.0 1073741824.0 21 49
+ 0.763573 2 5 cbr 210 ------- 0 3.0 1073741824.0 21 49
- 0.763573 2 5 cbr 210 ------- 0 3.0 1073741824.0 21 49
r 0.771227 3 1 encap 230 ------- 32 3.2 0.1 -1 52
+ 0.771227 1 0 encap 230 ------- 32 3.2 0.1 -1 52
- 0.771227 1 0 encap 230 ------- 32 3.2 0.1 -1 52
r 0.774693 1 4 cbr 210 ------- 0 3.0 1073741824.0 21 49
r 0.774693 2 5 cbr 210 ------- 0 3.0 1073741824.0 21 49
r 0.782453 1 0 encap 230 ------- 32 3.2 0.1 -1 52
+ 0.782453 0 1 cbr 210 ------- 0 3.0 1073741824.0 22 51
- 0.782453 0 1 cbr 210 ------- 0 3.0 1073741824.0 22 51
+ 0.782453 0 2 cbr 210 ------- 0 3.0 1073741824.0 22 51
- 0.782453 0 2 cbr 210 ------- 0 3.0 1073741824.0 22 51
+ 0.79 3 1 encap 230 ------- 32 3.2 0.1 -1 54
- 0.79 3 1 encap 230 ------- 32 3.2 0.1 -1 54
r 0.793573 0 1 cbr 210 ------- 0 3.0 1073741824.0 22 51
+ 0.793573 1 4 cbr 210 ------- 0 3.0 1073741824.0 22 51
- 0.793573 1 4 cbr 210 ------- 0 3.0 1073741824.0 22 51
r 0.793573 0 2 cbr 210 ------- 0 3.0 1073741824.0 22 51
+ 0.793573 2 5 cbr 210 ------- 0 3.0 1073741824.0 22 51
- 0.793573 2 5 cbr 210 ------- 0 3.0 1073741824.0 22 51
v 0.8 eval {set sim_annotation {0.80000000000000004 2 join-group 1073741824}}
r 0.801227 3 1 encap 230 ------- 32 3.2 0.1 -1 54
+ 0.801227 1 0 encap 230 ------- 32 3.2 0.1 -1 54
- 0.801227 1 0 encap 230 ------- 32 3.2 0.1 -1 54
r 0.804693 1 4 cbr 210 ------- 0 3.0 1073741824.0 22 51
r 0.804693 2 5 cbr 210 ------- 0 3.0 1073741824.0 22 51
r 0.812453 1 0 encap 230 ------- 32 3.2 0.1 -1 54
+ 0.812453 0 1 cbr 210 ------- 0 3.0 1073741824.0 23 53
- 0.812453 0 1 cbr 210 ------- 0 3.0 1073741824.0 23 53
+ 0.812453 0 2 cbr 210 ------- 0 3.0 1073741824.0 23 53
- 0.812453 0 2 cbr 210 ------- 0 3.0 1073741824.0 23 53
+ 0.82 3 1 encap 230 ------- 32 3.2 0.1 -1 56
- 0.82 3 1 encap 230 ------- 32 3.2 0.1 -1 56
r 0.823573 0 1 cbr 210 ------- 0 3.0 1073741824.0 23 53
+ 0.823573 1 4 cbr 210 ------- 0 3.0 1073741824.0 23 53
- 0.823573 1 4 cbr 210 ------- 0 3.0 1073741824.0 23 53
r 0.823573 0 2 cbr 210 ------- 0 3.0 1073741824.0 23 53
+ 0.823573 2 5 cbr 210 ------- 0 3.0 1073741824.0 23 53
- 0.823573 2 5 cbr 210 ------- 0 3.0 1073741824.0 23 53
r 0.831227 3 1 encap 230 ------- 32 3.2 0.1 -1 56
+ 0.831227 1 0 encap 230 ------- 32 3.2 0.1 -1 56
- 0.831227 1 0 encap 230 ------- 32 3.2 0.1 -1 56
r 0.834693 1 4 cbr 210 ------- 0 3.0 1073741824.0 23 53
r 0.834693 2 5 cbr 210 ------- 0 3.0 1073741824.0 23 53
r 0.842453 1 0 encap 230 ------- 32 3.2 0.1 -1 56
+ 0.842453 0 1 cbr 210 ------- 0 3.0 1073741824.0 24 55
- 0.842453 0 1 cbr 210 ------- 0 3.0 1073741824.0 24 55
+ 0.842453 0 2 cbr 210 ------- 0 3.0 1073741824.0 24 55
- 0.842453 0 2 cbr 210 ------- 0 3.0 1073741824.0 24 55
+ 0.85 3 1 encap 230 ------- 32 3.2 0.1 -1 58
- 0.85 3 1 encap 230 ------- 32 3.2 0.1 -1 58
r 0.853573 0 1 cbr 210 ------- 0 3.0 1073741824.0 24 55
+ 0.853573 1 4 cbr 210 ------- 0 3.0 1073741824.0 24 55
- 0.853573 1 4 cbr 210 ------- 0 3.0 1073741824.0 24 55
r 0.853573 0 2 cbr 210 ------- 0 3.0 1073741824.0 24 55
+ 0.853573 2 5 cbr 210 ------- 0 3.0 1073741824.0 24 55
- 0.853573 2 5 cbr 210 ------- 0 3.0 1073741824.0 24 55
r 0.861227 3 1 encap 230 ------- 32 3.2 0.1 -1 58
+ 0.861227 1 0 encap 230 ------- 32 3.2 0.1 -1 58
- 0.861227 1 0 encap 230 ------- 32 3.2 0.1 -1 58
r 0.864693 1 4 cbr 210 ------- 0 3.0 1073741824.0 24 55
r 0.864693 2 5 cbr 210 ------- 0 3.0 1073741824.0 24 55
r 0.872453 1 0 encap 230 ------- 32 3.2 0.1 -1 58
+ 0.872453 0 1 cbr 210 ------- 0 3.0 1073741824.0 25 57
- 0.872453 0 1 cbr 210 ------- 0 3.0 1073741824.0 25 57
+ 0.872453 0 2 cbr 210 ------- 0 3.0 1073741824.0 25 57
- 0.872453 0 2 cbr 210 ------- 0 3.0 1073741824.0 25 57
+ 0.88 3 1 encap 230 ------- 32 3.2 0.1 -1 60
- 0.88 3 1 encap 230 ------- 32 3.2 0.1 -1 60
r 0.883573 0 1 cbr 210 ------- 0 3.0 1073741824.0 25 57
+ 0.883573 1 4 cbr 210 ------- 0 3.0 1073741824.0 25 57
- 0.883573 1 4 cbr 210 ------- 0 3.0 1073741824.0 25 57
r 0.883573 0 2 cbr 210 ------- 0 3.0 1073741824.0 25 57
+ 0.883573 2 5 cbr 210 ------- 0 3.0 1073741824.0 25 57
- 0.883573 2 5 cbr 210 ------- 0 3.0 1073741824.0 25 57
r 0.891227 3 1 encap 230 ------- 32 3.2 0.1 -1 60
+ 0.891227 1 0 encap 230 ------- 32 3.2 0.1 -1 60
- 0.891227 1 0 encap 230 ------- 32 3.2 0.1 -1 60
r 0.894693 1 4 cbr 210 ------- 0 3.0 1073741824.0 25 57
r 0.894693 2 5 cbr 210 ------- 0 3.0 1073741824.0 25 57
r 0.902453 1 0 encap 230 ------- 32 3.2 0.1 -1 60
+ 0.902453 0 1 cbr 210 ------- 0 3.0 1073741824.0 26 59
- 0.902453 0 1 cbr 210 ------- 0 3.0 1073741824.0 26 59
+ 0.902453 0 2 cbr 210 ------- 0 3.0 1073741824.0 26 59
- 0.902453 0 2 cbr 210 ------- 0 3.0 1073741824.0 26 59
+ 0.91 3 1 encap 230 ------- 32 3.2 0.1 -1 62
- 0.91 3 1 encap 230 ------- 32 3.2 0.1 -1 62
r 0.913573 0 1 cbr 210 ------- 0 3.0 1073741824.0 26 59
+ 0.913573 1 4 cbr 210 ------- 0 3.0 1073741824.0 26 59
- 0.913573 1 4 cbr 210 ------- 0 3.0 1073741824.0 26 59
r 0.913573 0 2 cbr 210 ------- 0 3.0 1073741824.0 26 59
+ 0.913573 2 5 cbr 210 ------- 0 3.0 1073741824.0 26 59
- 0.913573 2 5 cbr 210 ------- 0 3.0 1073741824.0 26 59
r 0.921227 3 1 encap 230 ------- 32 3.2 0.1 -1 62
+ 0.921227 1 0 encap 230 ------- 32 3.2 0.1 -1 62
- 0.921227 1 0 encap 230 ------- 32 3.2 0.1 -1 62
r 0.924693 1 4 cbr 210 ------- 0 3.0 1073741824.0 26 59
r 0.924693 2 5 cbr 210 ------- 0 3.0 1073741824.0 26 59
r 0.932453 1 0 encap 230 ------- 32 3.2 0.1 -1 62
+ 0.932453 0 1 cbr 210 ------- 0 3.0 1073741824.0 27 61
- 0.932453 0 1 cbr 210 ------- 0 3.0 1073741824.0 27 61
+ 0.932453 0 2 cbr 210 ------- 0 3.0 1073741824.0 27 61
- 0.932453 0 2 cbr 210 ------- 0 3.0 1073741824.0 27 61
+ 0.94 3 1 encap 230 ------- 32 3.2 0.1 -1 64
- 0.94 3 1 encap 230 ------- 32 3.2 0.1 -1 64
r 0.943573 0 1 cbr 210 ------- 0 3.0 1073741824.0 27 61
+ 0.943573 1 4 cbr 210 ------- 0 3.0 1073741824.0 27 61
- 0.943573 1 4 cbr 210 ------- 0 3.0 1073741824.0 27 61
r 0.943573 0 2 cbr 210 ------- 0 3.0 1073741824.0 27 61
+ 0.943573 2 5 cbr 210 ------- 0 3.0 1073741824.0 27 61
- 0.943573 2 5 cbr 210 ------- 0 3.0 1073741824.0 27 61
r 0.951227 3 1 encap 230 ------- 32 3.2 0.1 -1 64
+ 0.951227 1 0 encap 230 ------- 32 3.2 0.1 -1 64
- 0.951227 1 0 encap 230 ------- 32 3.2 0.1 -1 64
r 0.954693 1 4 cbr 210 ------- 0 3.0 1073741824.0 27 61
r 0.954693 2 5 cbr 210 ------- 0 3.0 1073741824.0 27 61
r 0.962453 1 0 encap 230 ------- 32 3.2 0.1 -1 64
+ 0.962453 0 1 cbr 210 ------- 0 3.0 1073741824.0 28 63
- 0.962453 0 1 cbr 210 ------- 0 3.0 1073741824.0 28 63
+ 0.962453 0 2 cbr 210 ------- 0 3.0 1073741824.0 28 63
- 0.962453 0 2 cbr 210 ------- 0 3.0 1073741824.0 28 63
+ 0.97 3 1 encap 230 ------- 32 3.2 0.1 -1 66
- 0.97 3 1 encap 230 ------- 32 3.2 0.1 -1 66
r 0.973573 0 1 cbr 210 ------- 0 3.0 1073741824.0 28 63
+ 0.973573 1 4 cbr 210 ------- 0 3.0 1073741824.0 28 63
- 0.973573 1 4 cbr 210 ------- 0 3.0 1073741824.0 28 63
r 0.973573 0 2 cbr 210 ------- 0 3.0 1073741824.0 28 63
+ 0.973573 2 5 cbr 210 ------- 0 3.0 1073741824.0 28 63
- 0.973573 2 5 cbr 210 ------- 0 3.0 1073741824.0 28 63
r 0.981227 3 1 encap 230 ------- 32 3.2 0.1 -1 66
+ 0.981227 1 0 encap 230 ------- 32 3.2 0.1 -1 66
- 0.981227 1 0 encap 230 ------- 32 3.2 0.1 -1 66
r 0.984693 1 4 cbr 210 ------- 0 3.0 1073741824.0 28 63
r 0.984693 2 5 cbr 210 ------- 0 3.0 1073741824.0 28 63
r 0.992453 1 0 encap 230 ------- 32 3.2 0.1 -1 66
+ 0.992453 0 1 cbr 210 ------- 0 3.0 1073741824.0 29 65
- 0.992453 0 1 cbr 210 ------- 0 3.0 1073741824.0 29 65
+ 0.992453 0 2 cbr 210 ------- 0 3.0 1073741824.0 29 65
- 0.992453 0 2 cbr 210 ------- 0 3.0 1073741824.0 29 65
+ 1 3 1 encap 230 ------- 32 3.2 0.1 -1 68
- 1 3 1 encap 230 ------- 32 3.2 0.1 -1 68
r 1.003573 0 1 cbr 210 ------- 0 3.0 1073741824.0 29 65
+ 1.003573 1 4 cbr 210 ------- 0 3.0 1073741824.0 29 65
- 1.003573 1 4 cbr 210 ------- 0 3.0 1073741824.0 29 65
r 1.003573 0 2 cbr 210 ------- 0 3.0 1073741824.0 29 65
+ 1.003573 2 5 cbr 210 ------- 0 3.0 1073741824.0 29 65
- 1.003573 2 5 cbr 210 ------- 0 3.0 1073741824.0 29 65
r 1.011227 3 1 encap 230 ------- 32 3.2 0.1 -1 68
+ 1.011227 1 0 encap 230 ------- 32 3.2 0.1 -1 68
- 1.011227 1 0 encap 230 ------- 32 3.2 0.1 -1 68
r 1.014693 1 4 cbr 210 ------- 0 3.0 1073741824.0 29 65
r 1.014693 2 5 cbr 210 ------- 0 3.0 1073741824.0 29 65
r 1.022453 1 0 encap 230 ------- 32 3.2 0.1 -1 68
+ 1.022453 0 1 cbr 210 ------- 0 3.0 1073741824.0 30 67
- 1.022453 0 1 cbr 210 ------- 0 3.0 1073741824.0 30 67
+ 1.022453 0 2 cbr 210 ------- 0 3.0 1073741824.0 30 67
- 1.022453 0 2 cbr 210 ------- 0 3.0 1073741824.0 30 67
+ 1.03 3 1 encap 230 ------- 32 3.2 0.1 -1 70
- 1.03 3 1 encap 230 ------- 32 3.2 0.1 -1 70
r 1.033573 0 1 cbr 210 ------- 0 3.0 1073741824.0 30 67
+ 1.033573 1 4 cbr 210 ------- 0 3.0 1073741824.0 30 67
- 1.033573 1 4 cbr 210 ------- 0 3.0 1073741824.0 30 67
r 1.033573 0 2 cbr 210 ------- 0 3.0 1073741824.0 30 67
+ 1.033573 2 5 cbr 210 ------- 0 3.0 1073741824.0 30 67
- 1.033573 2 5 cbr 210 ------- 0 3.0 1073741824.0 30 67
r 1.041227 3 1 encap 230 ------- 32 3.2 0.1 -1 70
+ 1.041227 1 0 encap 230 ------- 32 3.2 0.1 -1 70
- 1.041227 1 0 encap 230 ------- 32 3.2 0.1 -1 70
r 1.044693 1 4 cbr 210 ------- 0 3.0 1073741824.0 30 67
r 1.044693 2 5 cbr 210 ------- 0 3.0 1073741824.0 30 67
r 1.052453 1 0 encap 230 ------- 32 3.2 0.1 -1 70
+ 1.052453 0 1 cbr 210 ------- 0 3.0 1073741824.0 31 69
- 1.052453 0 1 cbr 210 ------- 0 3.0 1073741824.0 31 69
+ 1.052453 0 2 cbr 210 ------- 0 3.0 1073741824.0 31 69
- 1.052453 0 2 cbr 210 ------- 0 3.0 1073741824.0 31 69
+ 1.06 3 1 encap 230 ------- 32 3.2 0.1 -1 72
- 1.06 3 1 encap 230 ------- 32 3.2 0.1 -1 72
r 1.063573 0 1 cbr 210 ------- 0 3.0 1073741824.0 31 69
+ 1.063573 1 4 cbr 210 ------- 0 3.0 1073741824.0 31 69
- 1.063573 1 4 cbr 210 ------- 0 3.0 1073741824.0 31 69
r 1.063573 0 2 cbr 210 ------- 0 3.0 1073741824.0 31 69
+ 1.063573 2 5 cbr 210 ------- 0 3.0 1073741824.0 31 69
- 1.063573 2 5 cbr 210 ------- 0 3.0 1073741824.0 31 69
r 1.071227 3 1 encap 230 ------- 32 3.2 0.1 -1 72
+ 1.071227 1 0 encap 230 ------- 32 3.2 0.1 -1 72
- 1.071227 1 0 encap 230 ------- 32 3.2 0.1 -1 72
r 1.074693 1 4 cbr 210 ------- 0 3.0 1073741824.0 31 69
r 1.074693 2 5 cbr 210 ------- 0 3.0 1073741824.0 31 69
r 1.082453 1 0 encap 230 ------- 32 3.2 0.1 -1 72
+ 1.082453 0 1 cbr 210 ------- 0 3.0 1073741824.0 32 71
- 1.082453 0 1 cbr 210 ------- 0 3.0 1073741824.0 32 71
+ 1.082453 0 2 cbr 210 ------- 0 3.0 1073741824.0 32 71
- 1.082453 0 2 cbr 210 ------- 0 3.0 1073741824.0 32 71
+ 1.09 3 1 encap 230 ------- 32 3.2 0.1 -1 74
- 1.09 3 1 encap 230 ------- 32 3.2 0.1 -1 74
r 1.093573 0 1 cbr 210 ------- 0 3.0 1073741824.0 32 71
+ 1.093573 1 4 cbr 210 ------- 0 3.0 1073741824.0 32 71
- 1.093573 1 4 cbr 210 ------- 0 3.0 1073741824.0 32 71
r 1.093573 0 2 cbr 210 ------- 0 3.0 1073741824.0 32 71
+ 1.093573 2 5 cbr 210 ------- 0 3.0 1073741824.0 32 71
- 1.093573 2 5 cbr 210 ------- 0 3.0 1073741824.0 32 71
r 1.101227 3 1 encap 230 ------- 32 3.2 0.1 -1 74
+ 1.101227 1 0 encap 230 ------- 32 3.2 0.1 -1 74
- 1.101227 1 0 encap 230 ------- 32 3.2 0.1 -1 74
r 1.104693 1 4 cbr 210 ------- 0 3.0 1073741824.0 32 71
r 1.104693 2 5 cbr 210 ------- 0 3.0 1073741824.0 32 71
r 1.112453 1 0 encap 230 ------- 32 3.2 0.1 -1 74
+ 1.112453 0 1 cbr 210 ------- 0 3.0 1073741824.0 33 73
- 1.112453 0 1 cbr 210 ------- 0 3.0 1073741824.0 33 73
+ 1.112453 0 2 cbr 210 ------- 0 3.0 1073741824.0 33 73
- 1.112453 0 2 cbr 210 ------- 0 3.0 1073741824.0 33 73
+ 1.12 3 1 encap 230 ------- 32 3.2 0.1 -1 76
- 1.12 3 1 encap 230 ------- 32 3.2 0.1 -1 76
r 1.123573 0 1 cbr 210 ------- 0 3.0 1073741824.0 33 73
+ 1.123573 1 4 cbr 210 ------- 0 3.0 1073741824.0 33 73
- 1.123573 1 4 cbr 210 ------- 0 3.0 1073741824.0 33 73
r 1.123573 0 2 cbr 210 ------- 0 3.0 1073741824.0 33 73
+ 1.123573 2 5 cbr 210 ------- 0 3.0 1073741824.0 33 73
- 1.123573 2 5 cbr 210 ------- 0 3.0 1073741824.0 33 73
r 1.131227 3 1 encap 230 ------- 32 3.2 0.1 -1 76
+ 1.131227 1 0 encap 230 ------- 32 3.2 0.1 -1 76
- 1.131227 1 0 encap 230 ------- 32 3.2 0.1 -1 76
r 1.134693 1 4 cbr 210 ------- 0 3.0 1073741824.0 33 73
r 1.134693 2 5 cbr 210 ------- 0 3.0 1073741824.0 33 73
r 1.142453 1 0 encap 230 ------- 32 3.2 0.1 -1 76
+ 1.142453 0 1 cbr 210 ------- 0 3.0 1073741824.0 34 75
- 1.142453 0 1 cbr 210 ------- 0 3.0 1073741824.0 34 75
+ 1.142453 0 2 cbr 210 ------- 0 3.0 1073741824.0 34 75
- 1.142453 0 2 cbr 210 ------- 0 3.0 1073741824.0 34 75
+ 1.15 3 1 encap 230 ------- 32 3.2 0.1 -1 78
- 1.15 3 1 encap 230 ------- 32 3.2 0.1 -1 78
r 1.153573 0 1 cbr 210 ------- 0 3.0 1073741824.0 34 75
+ 1.153573 1 4 cbr 210 ------- 0 3.0 1073741824.0 34 75
- 1.153573 1 4 cbr 210 ------- 0 3.0 1073741824.0 34 75
r 1.153573 0 2 cbr 210 ------- 0 3.0 1073741824.0 34 75
+ 1.153573 2 5 cbr 210 ------- 0 3.0 1073741824.0 34 75
- 1.153573 2 5 cbr 210 ------- 0 3.0 1073741824.0 34 75
r 1.161227 3 1 encap 230 ------- 32 3.2 0.1 -1 78
+ 1.161227 1 0 encap 230 ------- 32 3.2 0.1 -1 78
- 1.161227 1 0 encap 230 ------- 32 3.2 0.1 -1 78
r 1.164693 1 4 cbr 210 ------- 0 3.0 1073741824.0 34 75
r 1.164693 2 5 cbr 210 ------- 0 3.0 1073741824.0 34 75
r 1.172453 1 0 encap 230 ------- 32 3.2 0.1 -1 78
+ 1.172453 0 1 cbr 210 ------- 0 3.0 1073741824.0 35 77
- 1.172453 0 1 cbr 210 ------- 0 3.0 1073741824.0 35 77
+ 1.172453 0 2 cbr 210 ------- 0 3.0 1073741824.0 35 77
- 1.172453 0 2 cbr 210 ------- 0 3.0 1073741824.0 35 77
+ 1.18 3 1 encap 230 ------- 32 3.2 0.1 -1 80
- 1.18 3 1 encap 230 ------- 32 3.2 0.1 -1 80
r 1.183573 0 1 cbr 210 ------- 0 3.0 1073741824.0 35 77
+ 1.183573 1 4 cbr 210 ------- 0 3.0 1073741824.0 35 77
- 1.183573 1 4 cbr 210 ------- 0 3.0 1073741824.0 35 77
r 1.183573 0 2 cbr 210 ------- 0 3.0 1073741824.0 35 77
+ 1.183573 2 5 cbr 210 ------- 0 3.0 1073741824.0 35 77
- 1.183573 2 5 cbr 210 ------- 0 3.0 1073741824.0 35 77
r 1.191227 3 1 encap 230 ------- 32 3.2 0.1 -1 80
+ 1.191227 1 0 encap 230 ------- 32 3.2 0.1 -1 80
- 1.191227 1 0 encap 230 ------- 32 3.2 0.1 -1 80
r 1.194693 1 4 cbr 210 ------- 0 3.0 1073741824.0 35 77
r 1.194693 2 5 cbr 210 ------- 0 3.0 1073741824.0 35 77
r 1.202453 1 0 encap 230 ------- 32 3.2 0.1 -1 80
+ 1.202453 0 1 cbr 210 ------- 0 3.0 1073741824.0 36 79
- 1.202453 0 1 cbr 210 ------- 0 3.0 1073741824.0 36 79
+ 1.202453 0 2 cbr 210 ------- 0 3.0 1073741824.0 36 79
- 1.202453 0 2 cbr 210 ------- 0 3.0 1073741824.0 36 79
+ 1.21 3 1 encap 230 ------- 32 3.2 0.1 -1 82
- 1.21 3 1 encap 230 ------- 32 3.2 0.1 -1 82
r 1.213573 0 1 cbr 210 ------- 0 3.0 1073741824.0 36 79
+ 1.213573 1 4 cbr 210 ------- 0 3.0 1073741824.0 36 79
- 1.213573 1 4 cbr 210 ------- 0 3.0 1073741824.0 36 79
r 1.213573 0 2 cbr 210 ------- 0 3.0 1073741824.0 36 79
+ 1.213573 2 5 cbr 210 ------- 0 3.0 1073741824.0 36 79
- 1.213573 2 5 cbr 210 ------- 0 3.0 1073741824.0 36 79
r 1.221227 3 1 encap 230 ------- 32 3.2 0.1 -1 82
+ 1.221227 1 0 encap 230 ------- 32 3.2 0.1 -1 82
- 1.221227 1 0 encap 230 ------- 32 3.2 0.1 -1 82
r 1.224693 1 4 cbr 210 ------- 0 3.0 1073741824.0 36 79
r 1.224693 2 5 cbr 210 ------- 0 3.0 1073741824.0 36 79
r 1.232453 1 0 encap 230 ------- 32 3.2 0.1 -1 82
+ 1.232453 0 1 cbr 210 ------- 0 3.0 1073741824.0 37 81
- 1.232453 0 1 cbr 210 ------- 0 3.0 1073741824.0 37 81
+ 1.232453 0 2 cbr 210 ------- 0 3.0 1073741824.0 37 81
- 1.232453 0 2 cbr 210 ------- 0 3.0 1073741824.0 37 81
+ 1.24 3 1 encap 230 ------- 32 3.2 0.1 -1 84
- 1.24 3 1 encap 230 ------- 32 3.2 0.1 -1 84
r 1.243573 0 1 cbr 210 ------- 0 3.0 1073741824.0 37 81
+ 1.243573 1 4 cbr 210 ------- 0 3.0 1073741824.0 37 81