n -t * -s 0  -x 200 -y 800 -Z 0 -z 10  -v circle -c black
n -t * -s 1  -x 200 -y 570 -Z 0 -z 10  -v circle -c black
n -t * -s 2  -x 200 -y 340 -Z 0 -z 10  -v circle -c black
n -t * -s 3  -x 430 -y 630 -Z 0 -z 10  -v circle -c black
n -t * -s 4  -x 550 -y 630 -Z 0 -z 10  -v circle -c black
V -t * -v 1.0a5 -a 0
W -t * -x 1000 -y 1000
A -t * -n 1 -p 0 -o 0x7fffffff -c 30 -a 1
A -t * -h 1 -m 1073741823 -s 0
+ -t 0.000000000 -s 0 -d -1 -p cbr -e 210 -c 2 -a 0 -i 0 -k AGT 
- -t 0.000000000 -s 0 -d -1 -p cbr -e 210 -c 2 -a 0 -i 0 -k AGT
h -t 0.000000000 -s 0 -d -1 -p cbr -e 210 -c 2 -a 0 -i 0 -k AGT
+ -t 0.000000000 -s 3 -d -1 -p cbr -e 210 -c 2 -a 0 -i 1 -k AGT 
- -t 0.000000000 -s 3 -d -1 -p cbr -e 210 -c 2 -a 0 -i 1 -k AGT
h -t 0.000000000 -s 3 -d -1 -p cbr -e 210 -c 2 -a 0 -i 1 -k AGT
+ -t 0.056000000 -s 0 -d -1 -p cbr -e 210 -c 2 -a 0 -i 2 -k AGT 
- -t 0.056000000 -s 0 -d -1 -p cbr -e 210 -c 2 -a 0 -i 2 -k AGT
h -t 0.056000000 -s 0 -d -1 -p cbr -e 210 -c 2 -a 0 -i 2 -k AGT
+ -t 0.056000000 -s 3 -d -1 -p cbr -e 210 -c 2 -a 0 -i 3 -k AGT 
- -t 0.056000000 -s 3 -d -1 -p cbr -e 210 -c 2 -a 0 -i 3 -k AGT
h -t 0.056000000 -s 3 -d -1 -p cbr -e 210 -c 2 -a 0 -i 3 -k AGT
r -t 0.067153400 -s 4 -d 4 -p cbr -e 230 -c 2 -a 0 -i 1 -k AGT
r -t 0.091153400 -s 4 -d 4 -p cbr -e 230 -c 2 -a 0 -i 3 -k AGT
+ -t 0.112000000 -s 0 -d -1 -p cbr -e 210 -c 2 -a 0 -i 4 -k AGT 
- -t 0.112000000 -s 0 -d -1 -p cbr -e 210 -c 2 -a 0 -i 4 -k AGT
h -t 0.112000000 -s 0 -d -1 -p cbr -e 210 -c 2 -a 0 -i 4 -k AGT
+ -t 0.112000000 -s 3 -d -1 -p cbr -e 210 -c 2 -a 0 -i 5 -k AGT 
- -t 0.112000000 -s 3 -d -1 -p cbr -e 210 -c 2 -a 0 -i 5 -k AGT
h -t 0.112000000 -s 3 -d -1 -p cbr -e 210 -c 2 -a 0 -i 5 -k AGT
r -t 0.115153400 -s 4 -d 4 -p cbr -e 230 -c 2 -a 0 -i 5 -k AGT
r -t 0.115153767 -s 2 -d 2 -p cbr -e 230 -c 2 -a 0 -i 0 -k AGT
r -t 0.139153767 -s 2 -d 2 -p cbr -e 230 -c 2 -a 0 -i 2 -k AGT
r -t 0.163153767 -s 2 -d 2 -p cbr -e 230 -c 2 -a 0 -i 4 -k AGT
+ -t 0.168000000 -s 0 -d -1 -p cbr -e 210 -c 2 -a 0 -i 6 -k AGT 
- -t 0.168000000 -s 0 -d -1 -p cbr -e 210 -c 2 -a 0 -i 6 -k AGT
h -t 0.168000000 -s 0 -d -1 -p cbr -e 210 -c 2 -a 0 -i 6 -k AGT
+ -t 0.168000000 -s 3 -d -1 -p cbr -e 210 -c 2 -a 0 -i 7 -k AGT 
- -t 0.168000000 -s 3 -d -1 -p cbr -e 210 -c 2 -a 0 -i 7 -k AGT
h -t 0.168000000 -s 3 -d -1 -p cbr -e 210 -c 2 -a 0 -i 7 -k AGT
r -t 0.187153400 -s 4 -d 4 -p cbr -e 230 -c 2 -a 0 -i 7 -k AGT
r -t 0.187153767 -s 2 -d 2 -p cbr -e 230 -c 2 -a 0 -i 6 -k AGT
+ -t 0.224000000 -s 0 -d -1 -p cbr -e 210 -c 2 -a 0 -i 8 -k AGT 
- -t 0.224000000 -s 0 -d -1 -p cbr -e 210 -c 2 -a 0 -i 8 -k AGT
h -t 0.224000000 -s 0 -d -1 -p cbr -e 210 -c 2 -a 0 -i 8 -k AGT
+ -t 0.224000000 -s 3 -d -1 -p cbr -e 210 -c 2 -a 0 -i 9 -k AGT 
- -t 0.224000000 -s 3 -d -1 -p cbr -e 210 -c 2 -a 0 -i 9 -k AGT
h -t 0.224000000 -s 3 -d -1 -p cbr -e 210 -c 2 -a 0 -i 9 -k AGT
r -t 0.235153400 -s 4 -d 4 -p cbr -e 230 -c 2 -a 0 -i 9 -k AGT
r -t 0.235153767 -s 2 -d 2 -p cbr -e 230 -c 2 -a 0 -i 8 -k AGT
+ -t 0.280000000 -s 0 -d -1 -p cbr -e 210 -c 2 -a 0 -i 10 -k AGT 
- -t 0.280000000 -s 0 -d -1 -p cbr -e 210 -c 2 -a 0 -i 10 -k AGT
h -t 0.280000000 -s 0 -d -1 -p cbr -e 210 -c 2 -a 0 -i 10 -k AGT
+ -t 0.280000000 -s 3 -d -1 -p cbr -e 210 -c 2 -a 0 -i 11 -k AGT 
- -t 0.280000000 -s 3 -d -1 -p cbr -e 210 -c 2 -a 0 -i 11 -k AGT
h -t 0.280000000 -s 3 -d -1 -p cbr -e 210 -c 2 -a 0 -i 11 -k AGT
r -t 0.283153400 -s 4 -d 4 -p cbr -e 230 -c 2 -a 0 -i 11 -k AGT
r -t 0.307153767 -s 2 -d 2 -p cbr -e 230 -c 2 -a 0 -i 10 -k AGT
+ -t 0.336000000 -s 0 -d -1 -p cbr -e 210 -c 2 -a 0 -i 12 -k AGT 
- -t 0.336000000 -s 0 -d -1 -p cbr -e 210 -c 2 -a 0 -i 12 -k AGT
h -t 0.336000000 -s 0 -d -1 -p cbr -e 210 -c 2 -a 0 -i 12 -k AGT
+ -t 0.336000000 -s 3 -d -1 -p cbr -e 210 -c 2 -a 0 -i 13 -k AGT 
- -t 0.336000000 -s 3 -d -1 -p cbr -e 210 -c 2 -a 0 -i 13 -k AGT
h -t 0.336000000 -s 3 -d -1 -p cbr -e 210 -c 2 -a 0 -i 13 -k AGT
r -t 0.355153400 -s 4 -d 4 -p cbr -e 230 -c 2 -a 0 -i 13 -k AGT
r -t 0.355153767 -s 2 -d 2 -p cbr -e 230 -c 2 -a 0 -i 12 -k AGT
+ -t 0.392000000 -s 0 -d -1 -p cbr -e 210 -c 2 -a 0 -i 14 -k AGT 
- -t 0.392000000 -s 0 -d -1 -p cbr -e 210 -c 2 -a 0 -i 14 -k AGT
h -t 0.392000000 -s 0 -d -1 -p cbr -e 210 -c 2 -a 0 -i 14 -k AGT
+ -t 0.392000000 -s 3 -d -1 -p cbr -e 210 -c 2 -a 0 -i 15 -k AGT 
- -t 0.392000000 -s 3 -d -1 -p cbr -e 210 -c 2 -a 0 -i 15 -k AGT
h -t 0.392000000 -s 3 -d -1 -p cbr -e 210 -c 2 -a 0 -i 15 -k AGT
r -t 0.403153400 -s 4 -d 4 -p cbr -e 230 -c 2 -a 0 -i 15 -k AGT
r -t 0.403153767 -s 2 -d 2 -p cbr -e 230 -c 2 -a 0 -i 14 -k AGT
+ -t 0.448000000 -s 0 -d -1 -p cbr -e 210 -c 2 -a 0 -i 16 -k AGT 
- -t 0.448000000 -s 0 -d -1 -p cbr -e 210 -c 2 -a 0 -i 16 -k AGT
h -t 0.448000000 -s 0 -d -1 -p cbr -e 210 -c 2 -a 0 -i 16 -k AGT
+ -t 0.448000000 -s 3 -d -1 -p cbr -e 210 -c 2 -a 0 -i 17 -k AGT 
- -t 0.448000000 -s 3 -d -1 -p cbr -e 210 -c 2 -a 0 -i 17 -k AGT
h -t 0.448000000 -s 3 -d -1 -p cbr -e 210 -c 2 -a 0 -i 17 -k AGT
r -t 0.451153400 -s 4 -d 4 -p cbr -e 230 -c 2 -a 0 -i 17 -k AGT
r -t 0.475153767 -s 2 -d 2 -p cbr -e 230 -c 2 -a 0 -i 16 -k AGT
+ -t 0.504000000 -s 0 -d -1 -p cbr -e 210 -c 2 -a 0 -i 18 -k AGT 
- -t 0.504000000 -s 0 -d -1 -p cbr -e 210 -c 2 -a 0 -i 18 -k AGT
h -t 0.504000000 -s 0 -d -1 -p cbr -e 210 -c 2 -a 0 -i 18 -k AGT
+ -t 0.504000000 -s 3 -d -1 -p cbr -e 210 -c 2 -a 0 -i 19 -k AGT 
- -t 0.504000000 -s 3 -d -1 -p cbr -e 210 -c 2 -a 0 -i 19 -k AGT
h -t 0.504000000 -s 3 -d -1 -p cbr -e 210 -c 2 -a 0 -i 19 -k AGT
r -t 0.523153400 -s 4 -d 4 -p cbr -e 230 -c 2 -a 0 -i 19 -k AGT
r -t 0.523153767 -s 2 -d 2 -p cbr -e 230 -c 2 -a 0 -i 18 -k AGT
+ -t 0.560000000 -s 0 -d -1 -p cbr -e 210 -c 2 -a 0 -i 20 -k AGT 
- -t 0.560000000 -s 0 -d -1 -p cbr -e 210 -c 2 -a 0 -i 20 -k AGT
h -t 0.560000000 -s 0 -d -1 -p cbr -e 210 -c 2 -a 0 -i 20 -k AGT
+ -t 0.560000000 -s 3 -d -1 -p cbr -e 210 -c 2 -a 0 -i 21 -k AGT 
- -t 0.560000000 -s 3 -d -1 -p cbr -e 210 -c 2 -a 0 -i 21 -k AGT
h -t 0.560000000 -s 3 -d -1 -p cbr -e 210 -c 2 -a 0 -i 21 -k AGT
r -t 0.571153400 -s 4 -d 4 -p cbr -e 230 -c 2 -a 0 -i 21 -k AGT
r -t 0.571153767 -s 2 -d 2 -p cbr -e 230 -c 2 -a 0 -i 20 -k AGT
+ -t 0.616000000 -s 0 -d -1 -p cbr -e 210 -c 2 -a 0 -i 22 -k AGT 
- -t 0.616000000 -s 0 -d -1 -p cbr -e 210 -c 2 -a 0 -i 22 -k AGT
h -t 0.616000000 -s 0 -d -1 -p cbr -e 210 -c 2 -a 0 -i 22 -k AGT
+ -t 0.616000000 -s 3 -d -1 -p cbr -e 210 -c 2 -a 0 -i 23 -k AGT 
- -t 0.616000000 -s 3 -d -1 -p cbr -e 210 -c 2 -a 0 -i 23 -k AGT
h -t 0.616000000 -s 3 -d -1 -p cbr -e 210 -c 2 -a 0 -i 23 -k AGT
r -t 0.619153400 -s 4 -d 4 -p cbr -e 230 -c 2 -a 0 -i 23 -k AGT
r -t 0.643153767 -s 2 -d 2 -p cbr -e 230 -c 2 -a 0 -i 22 -k AGT
+ -t 0.672000000 -s 0 -d -1 -p cbr -e 210 -c 2 -a 0 -i 24 -k AGT 
- -t 0.672000000 -s 0 -d -1 -p cbr -e 210 -c 2 -a 0 -i 24 -k AGT
h -t 0.672000000 -s 0 -d -1 -p cbr -e 210 -c 2 -a 0 -i 24 -k AGT
+ -t 0.672000000 -s 3 -d -1 -p cbr -e 210 -c 2 -a 0 -i 25 -k AGT 
- -t 0.672000000 -s 3 -d -1 -p cbr -e 210 -c 2 -a 0 -i 25 -k AGT
h -t 0.672000000 -s 3 -d -1 -p cbr -e 210 -c 2 -a 0 -i 25 -k AGT
r -t 0.691153400 -s 4 -d 4 -p cbr -e 230 -c 2 -a 0 -i 25 -k AGT
r -t 0.691153767 -s 2 -d 2 -p cbr -e 230 -c 2 -a 0 -i 24 -k AGT
+ -t 0.728000000 -s 0 -d -1 -p cbr -e 210 -c 2 -a 0 -i 26 -k AGT 
- -t 0.728000000 -s 0 -d -1 -p cbr -e 210 -c 2 -a 0 -i 26 -k AGT
h -t 0.728000000 -s 0 -d -1 -p cbr -e 210 -c 2 -a 0 -i 26 -k AGT
+ -t 0.728000000 -s 3 -d -1 -p cbr -e 210 -c 2 -a 0 -i 27 -k AGT 
- -t 0.728000000 -s 3 -d -1 -p cbr -e 210 -c 2 -a 0 -i 27 -k AGT
h -t 0.728000000 -s 3 -d -1 -p cbr -e 210 -c 2 -a 0 -i 27 -k AGT
r -t 0.739153400 -s 4 -d 4 -p cbr -e 230 -c 2 -a 0 -i 27 -k AGT
r -t 0.739153767 -s 2 -d 2 -p cbr -e 230 -c 2 -a 0 -i 26 -k AGT
+ -t 0.784000000 -s 0 -d -1 -p cbr -e 210 -c 2 -a 0 -i 28 -k AGT 
- -t 0.784000000 -s 0 -d -1 -p cbr -e 210 -c 2 -a 0 -i 28 -k AGT
h -t 0.784000000 -s 0 -d -1 -p cbr -e 210 -c 2 -a 0 -i 28 -k AGT
+ -t 0.784000000 -s 3 -d -1 -p cbr -e 210 -c 2 -a 0 -i 29 -k AGT 
- -t 0.784000000 -s 3 -d -1 -p cbr -e 210 -c 2 -a 0 -i 29 -k AGT
h -t 0.784000000 -s 3 -d -1 -p cbr -e 210 -c 2 -a 0 -i 29 -k AGT
r -t 0.787153400 -s 4 -d 4 -p cbr -e 230 -c 2 -a 0 -i 29 -k AGT
r -t 0.811153767 -s 2 -d 2 -p cbr -e 230 -c 2 -a 0 -i 28 -k AGT
+ -t 0.840000000 -s 0 -d -1 -p cbr -e 210 -c 2 -a 0 -i 30 -k AGT 
- -t 0.840000000 -s 0 -d -1 -p cbr -e 210 -c 2 -a 0 -i 30 -k AGT
h -t 0.840000000 -s 0 -d -1 -p cbr -e 210 -c 2 -a 0 -i 30 -k AGT
+ -t 0.840000000 -s 3 -d -1 -p cbr -e 210 -c 2 -a 0 -i 31 -k AGT 
- -t 0.840000000 -s 3 -d -1 -p cbr -e 210 -c 2 -a 0 -i 31 -k AGT
h -t 0.840000000 -s 3 -d -1 -p cbr -e 210 -c 2 -a 0 -i 31 -k AGT
r -t 0.859153400 -s 4 -d 4 -p cbr -e 230 -c 2 -a 0 -i 31 -k AGT
r -t 0.859153767 -s 2 -d 2 -p cbr -e 230 -c 2 -a 0 -i 30 -k AGT
+ -t 0.896000000 -s 0 -d -1 -p cbr -e 210 -c 2 -a 0 -i 32 -k AGT 
- -t 0.896000000 -s 0 -d -1 -p cbr -e 210 -c 2 -a 0 -i 32 -k AGT
h -t 0.896000000 -s 0 -d -1 -p cbr -e 210 -c 2 -a 0 -i 32 -k AGT
+ -t 0.896000000 -s 3 -d -1 -p cbr -e 210 -c 2 -a 0 -i 33 -k AGT 
- -t 0.896000000 -s 3 -d -1 -p cbr -e 210 -c 2 -a 0 -i 33 -k AGT
h -t 0.896000000 -s 3 -d -1 -p cbr -e 210 -c 2 -a 0 -i 33 -k AGT
r -t 0.907153400 -s 4 -d 4 -p cbr -e 230 -c 2 -a 0 -i 33 -k AGT
r -t 0.907153767 -s 2 -d 2 -p cbr -e 230 -c 2 -a 0 -i 32 -k AGT
+ -t 0.952000000 -s 0 -d -1 -p cbr -e 210 -c 2 -a 0 -i 34 -k AGT 
- -t 0.952000000 -s 0 -d -1 -p cbr -e 210 -c 2 -a 0 -i 34 -k AGT
h -t 0.952000000 -s 0 -d -1 -p cbr -e 210 -c 2 -a 0 -i 34 -k AGT
+ -t 0.952000000 -s 3 -d -1 -p cbr -e 210 -c 2 -a 0 -i 35 -k AGT 
- -t 0.952000000 -s 3 -d -1 -p cbr -e 210 -c 2 -a 0 -i 35 -k AGT
h -t 0.952000000 -s 3 -d -1 -p cbr -e 210 -c 2 -a 0 -i 35 -k AGT
r -t 0.955153400 -s 4 -d 4 -p cbr -e 230 -c 2 -a 0 -i 35 -k AGT
r -t 0.979153767 -s 2 -d 2 -p cbr -e 230 -c 2 -a 0 -i 34 -k AGT
+ -t 1.008000000 -s 0 -d -1 -p cbr -e 210 -c 2 -a 0 -i 36 -k AGT 
- -t 1.008000000 -s 0 -d -1 -p cbr -e 210 -c 2 -a 0 -i 36 -k AGT
h -t 1.008000000 -s 0 -d -1 -p cbr -e 210 -c 2 -a 0 -i 36 -k AGT
+ -t 1.008000000 -s 3 -d -1 -p cbr -e 210 -c 2 -a 0 -i 37 -k AGT 
- -t 1.008000000 -s 3 -d -1 -p cbr -e 210 -c 2 -a 0 -i 37 -k AGT
h -t 1.008000000 -s 3 -d -1 -p cbr -e 210 -c 2 -a 0 -i 37 -k AGT
r -t 1.027153400 -s 4 -d 4 -p cbr -e 230 -c 2 -a 0 -i 37 -k AGT
r -t 1.027153767 -s 2 -d 2 -p cbr -e 230 -c 2 -a 0 -i 36 -k AGT
+ -t 1.064000000 -s 0 -d -1 -p cbr -e 210 -c 2 -a 0 -i 38 -k AGT 
- -t 1.064000000 -s 0 -d -1 -p cbr -e 210 -c 2 -a 0 -i 38 -k AGT
h -t 1.064000000 -s 0 -d -1 -p cbr -e 210 -c 2 -a 0 -i 38 -k AGT
+ -t 1.064000000 -s 3 -d -1 -p cbr -e 210 -c 2 -a 0 -i 39 -k AGT 
- -t 1.064000000 -s 3 -d -1 -p cbr -e 210 -c 2 -a 0 -i 39 -k AGT
h -t 1.064000000 -s 3 -d -1 -p cbr -e 210 -c 2 -a 0 -i 39 -k AGT
r -t 1.075153400 -s 4 -d 4 -p cbr -e 230 -c 2 -a 0 -i 39 -k AGT
r -t 1.075153767 -s 2 -d 2 -p cbr -e 230 -c 2 -a 0 -i 38 -k AGT
+ -t 1.120000000 -s 0 -d -1 -p cbr -e 210 -c 2 -a 0 -i 40 -k AGT 
- -t 1.120000000 -s 0 -d -1 -p cbr -e 210 -c 2 -a 0 -i 40 -k AGT
h -t 1.120000000 -s 0 -d -1 -p cbr -e 210 -c 2 -a 0 -i 40 -k AGT
+ -t 1.120000000 -s 3 -d -1 -p cbr -e 210 -c 2 -a 0 -i 41 -k AGT 
- -t 1.120000000 -s 3 -d -1 -p cbr -e 210 -c 2 -a 0 -i 41 -k AGT
h -t 1.120000000 -s 3 -d -1 -p cbr -e 210 -c 2 -a 0 -i 41 -k AGT
r -t 1.123153400 -s 4 -d 4 -p cbr -e 230 -c 2 -a 0 -i 41 -k AGT
r -t 1.147153767 -s 2 -d 2 -p cbr -e 230 -c 2 -a 0 -i 40 -k AGT
+ -t 1.176000000 -s 0 -d -1 -p cbr -e 210 -c 2 -a 0 -i 42 -k AGT 
- -t 1.176000000 -s 0 -d -1 -p cbr -e 210 -c 2 -a 0 -i 42 -k AGT
h -t 1.176000000 -s 0 -d -1 -p cbr -e 210 -c 2 -a 0 -i 42 -k AGT
+ -t 1.176000000 -s 3 -d -1 -p cbr -e 210 -c 2 -a 0 -i 43 -k AGT 
- -t 1.176000000 -s 3 -d -1 -p cbr -e 210 -c 2 -a 0 -i 43 -k AGT
h -t 1.176000000 -s 3 -d -1 -p cbr -e 210 -c 2 -a 0 -i 43 -k AGT
r -t 1.195153400 -s 4 -d 4 -p cbr -e 230 -c 2 -a 0 -i 43 -k AGT
r -t 1.195153767 -s 2 -d 2 -p cbr -e 230 -c 2 -a 0 -i 42 -k AGT
+ -t 1.232000000 -s 0 -d -1 -p cbr -e 210 -c 2 -a 0 -i 44 -k AGT 
- -t 1.232000000 -s 0 -d -1 -p cbr -e 210 -c 2 -a 0 -i 44 -k AGT
h -t 1.232000000 -s 0 -d -1 -p cbr -e 210 -c 2 -a 0 -i 44 -k AGT
+ -t 1.232000000 -s 3 -d -1 -p cbr -e 210 -c 2 -a 0 -i 45 -k AGT 
- -t 1.232000000 -s 3 -d -1 -p cbr -e 210 -c 2 -a 0 -i 45 -k AGT
h -t 1.232000000 -s 3 -d -1 -p cbr -e 210 -c 2 -a 0 -i 45 -k AGT
r -t 1.243153400 -s 4 -d 4 -p cbr -e 230 -c 2 -a 0 -i 45 -k AGT
r -t 1.243153767 -s 2 -d 2 -p cbr -e 230 -c 2 -a 0 -i 44 -k AGT
+ -t 1.288000000 -s 0 -d -1 -p cbr -e 210 -c 2 -a 0 -i 46 -k AGT 
- -t 1.288000000 -s 0 -d -1 -p cbr -e 210 -c 2 -a 0 -i 46 -k AGT
h -t 1.288000000 -s 0 -d -1 -p cbr -e 210 -c 2 -a 0 -i 46 -k AGT
+ -t 1.288000000 -s 3 -d -1 -p cbr -e 210 -c 2 -a 0 -i 47 -k AGT 
- -t 1.288000000 -s 3 -d -1 -p cbr -e 210 -c 2 -a 0 -i 47 -k AGT
h -t 1.288000000 -s 3 -d -1 -p cbr -e 210 -c 2 -a 0 -i 47 -k AGT
r -t 1.291153400 -s 4 -d 4 -p cbr -e 230 -c 2 -a 0 -i 47 -k AGT
r -t 1.315153767 -s 2 -d 2 -p cbr -e 230 -c 2 -a 0 -i 46 -k AGT
+ -t 1.344000000 -s 0 -d -1 -p cbr -e 210 -c 2 -a 0 -i 48 -k AGT 
- -t 1.344000000 -s 0 -d -1 -p cbr -e 210 -c 2 -a 0 -i 48 -k AGT
h -t 1.344000000 -s 0 -d -1 -p cbr -e 210 -c 2 -a 0 -i 48 -k AGT
+ -t 1.344000000 -s 3 -d -1 -p cbr -e 210 -c 2 -a 0 -i 49 -k AGT 
- -t 1.344000000 -s 3 -d -1 -p cbr -e 210 -c 2 -a 0 -i 49 -k AGT
h -t 1.344000000 -s 3 -d -1 -p cbr -e 210 -c 2 -a 0 -i 49 -k AGT
r -t 1.363153400 -s 4 -d 4 -p cbr -e 230 -c 2 -a 0 -i 49 -k AGT
r -t 1.363153767 -s 2 -d 2 -p cbr -e 230 -c 2 -a 0 -i 48 -k AGT
+ -t 1.400000000 -s 0 -d -1 -p cbr -e 210 -c 2 -a 0 -i 50 -k AGT 
- -t 1.400000000 -s 0 -d -1 -p cbr -e 210 -c 2 -a 0 -i 50 -k AGT
h -t 1.400000000 -s 0 -d -1 -p cbr -e 210 -c 2 -a 0 -i 50 -k AGT
+ -t 1.400000000 -s 3 -d -1 -p cbr -e 210 -c 2 -a 0 -i 51 -k AGT 
- -t 1.400000000 -s 3 -d -1 -p cbr -e 210 -c 2 -a 0 -i 51 -k AGT
h -t 1.400000000 -s 3 -d -1 -p cbr -e 210 -c 2 -a 0 -i 51 -k AGT
r -t 1.411153400 -s 4 -d 4 -p cbr -e 230 -c 2 -a 0 -i 51 -k AGT
r -t 1.411153767 -s 2 -d 2 -p cbr -e 230 -c 2 -a 0 -i 50 -k AGT
+ -t 1.456000000 -s 0 -d -1 -p cbr -e 210 -c 2 -a 0 -i 52 -k AGT 
- -t 1.456000000 -s 0 -d -1 -p cbr -e 210 -c 2 -a 0 -i 52 -k AGT
h -t 1.456000000 -s 0 -d -1 -p cbr -e 210 -c 2 -a 0 -i 52 -k AGT
+ -t 1.456000000 -s 3 -d -1 -p cbr -e 210 -c 2 -a 0 -i 53 -k AGT 
- -t 1.456000000 -s 3 -d -1 -p cbr -e 210 -c 2 -a 0 -i 53 -k AGT
h -t 1.456000000 -s 3 -d -1 -p cbr -e 210 -c 2 -a 0 -i 53 -k AGT
r -t 1.459153400 -s 4 -d 4 -p cbr -e 230 -c 2 -a 0 -i 53 -k AGT
r -t 1.483153767 -s 2 -d 2 -p cbr -e 230 -c 2 -a 0 -i 52 -k AGT
+ -t 1.512000000 -s 0 -d -1 -p cbr -e 210 -c 2 -a 0 -i 54 -k AGT 
- -t 1.512000000 -s 0 -d -1 -p cbr -e 210 -c 2 -a 0 -i 54 -k AGT
h -t 1.512000000 -s 0 -d -1 -p cbr -e 210 -c 2 -a 0 -i 54 -k AGT
+ -t 1.512000000 -s 3 -d -1 -p cbr -e 210 -c 2 -a 0 -i 55 -k AGT 
- -t 1.512000000 -s 3 -d -1 -p cbr -e 210 -c 2 -a 0 -i 55 -k AGT
h -t 1.512000000 -s 3 -d -1 -p cbr -e 210 -c 2 -a 0 -i 55 -k AGT
r -t 1.531153400 -s 4 -d 4 -p cbr -e 230 -c 2 -a 0 -i 55 -k AGT
r -t 1.531153767 -s 2 -d 2 -p cbr -e 230 -c 2 -a 0 -i 54 -k AGT
+ -t 1.568000000 -s 0 -d -1 -p cbr -e 210 -c 2 -a 0 -i 56 -k AGT 
- -t 1.568000000 -s 0 -d -1 -p cbr -e 210 -c 2 -a 0 -i 56 -k AGT
h -t 1.568000000 -s 0 -d -1 -p cbr -e 210 -c 2 -a 0 -i 56 -k AGT
+ -t 1.568000000 -s 3 -d -1 -p cbr -e 210 -c 2 -a 0 -i 57 -k AGT 
- -t 1.568000000 -s 3 -d -1 -p cbr -e 210 -c 2 -a 0 -i 57 -k AGT
h -t 1.568000000 -s 3 -d -1 -p cbr -e 210 -c 2 -a 0 -i 57 -k AGT
r -t 1.579153400 -s 4 -d 4 -p cbr -e 230 -c 2 -a 0 -i 57 -k AGT
r -t 1.579153767 -s 2 -d 2 -p cbr -e 230 -c 2 -a 0 -i 56 -k AGT
+ -t 1.624000000 -s 0 -d -1 -p cbr -e 210 -c 2 -a 0 -i 58 -k AGT 
- -t 1.624000000 -s 0 -d -1 -p cbr -e 210 -c 2 -a 0 -i 58 -k AGT
h -t 1.624000000 -s 0 -d -1 -p cbr -e 210 -c 2 -a 0 -i 58 -k AGT
+ -t 1.624000000 -s 3 -d -1 -p cbr -e 210 -c 2 -a 0 -i 59 -k AGT 
- -t 1.624000000 -s 3 -d -1 -p cbr -e 210 -c 2 -a 0 -i 59 -k AGT
h -t 1.624000000 -s 3 -d -1 -p cbr -e 210 -c 2 -a 0 -i 59 -k AGT
r -t 1.627153400 -s 4 -d 4 -p cbr -e 230 -c 2 -a 0 -i 59 -k AGT
r -t 1.651153767 -s 2 -d 2 -p cbr -e 230 -c 2 -a 0 -i 58 -k AGT
+ -t 1.680000000 -s 0 -d -1 -p cbr -e 210 -c 2 -a 0 -i 60 -k AGT 
- -t 1.680000000 -s 0 -d -1 -p cbr -e 210 -c 2 -a 0 -i 60 -k AGT
h -t 1.680000000 -s 0 -d -1 -p cbr -e 210 -c 2 -a 0 -i 60 -k AGT
+ -t 1.680000000 -s 3 -d -1 -p cbr -e 210 -c 2 -a 0 -i 61 -k AGT 
- -t 1.680000000 -s 3 -d -1 -p cbr -e 210 -c 2 -a 0 -i 61 -k AGT
h -t 1.680000000 -s 3 -d -1 -p cbr -e 210 -c 2 -a 0 -i 61 -k AGT
r -t 1.699153400 -s 4 -d 4 -p cbr -e 230 -c 2 -a 0 -i 61 -k AGT
r -t 1.699153767 -s 2 -d 2 -p cbr -e 230 -c 2 -a 0 -i 60 -k AGT
+ -t 1.736000000 -s 0 -d -1 -p cbr -e 210 -c 2 -a 0 -i 62 -k AGT 
- -t 1.736000000 -s 0 -d -1 -p cbr -e 210 -c 2 -a 0 -i 62 -k AGT
h -t 1.736000000 -s 0 -d -1 -p cbr -e 210 -c 2 -a 0 -i 62 -k AGT
+ -t 1.736000000 -s 3 -d -1 -p cbr -e 210 -c 2 -a 0 -i 63 -k AGT 
- -t 1.736000000 -s 3 -d -1 -p cbr -e 210 -c 2 -a 0 -i 63 -k AGT
h -t 1.736000000 -s 3 -d -1 -p cbr -e 210 -c 2 -a 0 -i 63 -k AGT
r -t 1.747153400 -s 4 -d 4 -p cbr -e 230 -c 2 -a 0 -i 63 -k AGT
r -t 1.747153767 -s 2 -d 2 -p cbr -e 230 -c 2 -a 0 -i 62 -k AGT
+ -t 1.792000000 -s 0 -d -1 -p cbr -e 210 -c 2 -a 0 -i 64 -k AGT 
- -t 1.792000000 -s 0 -d -1 -p cbr -e 210 -c 2 -a 0 -i 64 -k AGT
h -t 1.792000000 -s 0 -d -1 -p cbr -e 210 -c 2 -a 0 -i 64 -k AGT
+ -t 1.792000000 -s 3 -d -1 -p cbr -e 210 -c 2 -a 0 -i 65 -k AGT 
- -t 1.792000000 -s 3 -d -1 -p cbr -e 210 -c 2 -a 0 -i 65 -k AGT
h -t 1.792000000 -s 3 -d -1 -p cbr -e 210 -c 2 -a 0 -i 65 -k AGT
r -t 1.795153400 -s 4 -d 4 -p cbr -e 230 -c 2 -a 0 -i 65 -k AGT
r -t 1.819153767 -s 2 -d 2 -p cbr -e 230 -c 2 -a 0 -i 64 -k AGT
+ -t 1.848000000 -s 0 -d -1 -p cbr -e 210 -c 2 -a 0 -i 66 -k AGT 
- -t 1.848000000 -s 0 -d -1 -p cbr -e 210 -c 2 -a 0 -i 66 -k AGT
h -t 1.848000000 -s 0 -d -1 -p cbr -e 210 -c 2 -a 0 -i 66 -k AGT
+ -t 1.848000000 -s 3 -d -1 -p cbr -e 210 -c 2 -a 0 -i 67 -k AGT 
- -t 1.848000000 -s 3 -d -1 -p cbr -e 210 -c 2 -a 0 -i 67 -k AGT
h -t 1.848000000 -s 3 -d -1 -p cbr -e 210 -c 2 -a 0 -i 67 -k AGT
r -t 1.867153400 -s 4 -d 4 -p cbr -e 230 -c 2 -a 0 -i 67 -k AGT
r -t 1.867153767 -s 2 -d 2 -p cbr -e 230 -c 2 -a 0 -i 66 -k AGT
+ -t 1.904000000 -s 0 -d -1 -p cbr -e 210 -c 2 -a 0 -i 68 -k AGT 
- -t 1.904000000 -s 0 -d -1 -p cbr -e 210 -c 2 -a 0 -i 68 -k AGT
h -t 1.904000000 -s 0 -d -1 -p cbr -e 210 -c 2 -a 0 -i 68 -k AGT
+ -t 1.904000000 -s 3 -d -1 -p cbr -e 210 -c 2 -a 0 -i 69 -k AGT 
- -t 1.904000000 -s 3 -d -1 -p cbr -e 210 -c 2 -a 0 -i 69 -k AGT
h -t 1.904000000 -s 3 -d -1 -p cbr -e 210 -c 2 -a 0 -i 69 -k AGT
r -t 1.915153400 -s 4 -d 4 -p cbr -e 230 -c 2 -a 0 -i 69 -k AGT
r -t 1.915153767 -s 2 -d 2 -p cbr -e 230 -c 2 -a 0 -i 68 -k AGT
+ -t 1.960000000 -s 0 -d -1 -p cbr -e 210 -c 2 -a 0 -i 70 -k AGT 
- -t 1.960000000 -s 0 -d -1 -p cbr -e 210 -c 2 -a 0 -i 70 -k AGT
h -t 1.960000000 -s 0 -d -1 -p cbr -e 210 -c 2 -a 0 -i 70 -k AGT
+ -t 1.960000000 -s 3 -d -1 -p cbr -e 210 -c 2 -a 0 -i 71 -k AGT 
- -t 1.960000000 -s 3 -d -1 -p cbr -e 210 -c 2 -a 0 -i 71 -k AGT
h -t 1.960000000 -s 3 -d -1 -p cbr -e 210 -c 2 -a 0 -i 71 -k AGT
r -t 1.963153400 -s 4 -d 4 -p cbr -e 230 -c 2 -a 0 -i 71 -k AGT
r -t 1.987153767 -s 2 -d 2 -p cbr -e 230 -c 2 -a 0 -i 70 -k AGT
+ -t 2.016000000 -s 0 -d -1 -p cbr -e 210 -c 2 -a 0 -i 72 -k AGT 
- -t 2.016000000 -s 0 -d -1 -p cbr -e 210 -c 2 -a 0 -i 72 -k AGT
h -t 2.016000000 -s 0 -d -1 -p cbr -e 210 -c 2 -a 0 -i 72 -k AGT
+ -t 2.016000000 -s 3 -d -1 -p cbr -e 210 -c 2 -a 0 -i 73 -k AGT 
- -t 2.016000000 -s 3 -d -1 -p cbr -e 210 -c 2 -a 0 -i 73 -k AGT
h -t 2.016000000 -s 3 -d -1 -p cbr -e 210 -c 2 -a 0 -i 73 -k AGT
r -t 2.035153400 -s 4 -d 4 -p cbr -e 230 -c 2 -a 0 -i 73 -k AGT
r -t 2.035153767 -s 2 -d 2 -p cbr -e 230 -c 2 -a 0 -i 72 -k AGT
+ -t 2.072000000 -s 0 -d -1 -p cbr -e 210 -c 2 -a 0 -i 74 -k AGT 
- -t 2.072000000 -s 0 -d -1 -p cbr -e 210 -c 2 -a 0 -i 74 -k AGT
h -t 2.072000000 -s 0 -d -1 -p cbr -e 210 -c 2 -a 0 -i 74 -k AGT
+ -t 2.072000000 -s 3 -d -1 -p cbr -e 210 -c 2 -a 0 -i 75 -k AGT 
- -t 2.072000000 -s 3 -d -1 -p cbr -e 210 -c 2 -a 0 -i 75 -k AGT
h -t 2.072000000 -s 3 -d -1 -p cbr -e 210 -c 2 -a 0 -i 75 -k AGT
r -t 2.083153400 -s 4 -d 4 -p cbr -e 230 -c 2 -a 0 -i 75 -k AGT
r -t 2.083153767 -s 2 -d 2 -p cbr -e 230 -c 2 -a 0 -i 74 -k AGT
+ -t 2.128000000 -s 0 -d -1 -p cbr -e 210 -c 2 -a 0 -i 76 -k AGT 
- -t 2.128000000 -s 0 -d -1 -p cbr -e 210 -c 2 -a 0 -i 76 -k AGT
h -t 2.128000000 -s 0 -d -1 -p cbr -e 210 -c 2 -a 0 -i 76 -k AGT
+ -t 2.128000000 -s 3 -d -1 -p cbr -e 210 -c 2 -a 0 -i 77 -k AGT 
- -t 2.128000000 -s 3 -d -1 -p cbr -e 210 -c 2 -a 0 -i 77 -k AGT
h -t 2.128000000 -s 3 -d -1 -p cbr -e 210 -c 2 -a 0 -i 77 -k AGT
r -t 2.131153400 -s 4 -d 4 -p cbr -e 230 -c 2 -a 0 -i 77 -k AGT
r -t 2.155153767 -s 2 -d 2 -p cbr -e 230 -c 2 -a 0 -i 76 -k AGT
+ -t 2.184000000 -s 0 -d -1 -p cbr -e 210 -c 2 -a 0 -i 78 -k AGT 
- -t 2.184000000 -s 0 -d -1 -p cbr -e 210 -c 2 -a 0 -i 78 -k AGT
h -t 2.184000000 -s 0 -d -1 -p cbr -e 210 -c 2 -a 0 -i 78 -k AGT
+ -t 2.184000000 -s 3 -d -1 -p cbr -e 210 -c 2 -a 0 -i 79 -k AGT 
- -t 2.184000000 -s 3 -d -1 -p cbr -e 210 -c 2 -a 0 -i 79 -k AGT
h -t 2.184000000 -s 3 -d -1 -p cbr -e 210 -c 2 -a 0 -i 79 -k AGT
r -t 2.203153400 -s 4 -d 4 -p cbr -e 230 -c 2 -a 0 -i 79 -k AGT
r -t 2.203153767 -s 2 -d 2 -p cbr -e 230 -c 2 -a 0 -i 78 -k AGT
+ -t 2.240000000 -s 0 -d -1 -p cbr -e 210 -c 2 -a 0 -i 80 -k AGT 
- -t 2.240000000 -s 0 -d -1 -p cbr -e 210 -c 2 -a 0 -i 80 -k AGT
h -t 2.240000000 -s 0 -d -1 -p cbr -e 210 -c 2 -a 0 -i 80 -k AGT
+ -t 2.240000000 -s 3 -d -1 -p cbr -e 210 -c 2 -a 0 -i 81 -k AGT 
- -t 2.240000000 -s 3 -d -1 -p cbr -e 210 -c 2 -a 0 -i 81 -k AGT
h -t 2.240000000 -s 3 -d -1 -p cbr -e 210 -c 2 -a 0 -i 81 -k AGT
r -t 2.251153400 -s 4 -d 4 -p cbr -e 230 -c 2 -a 0 -i 81 -k AGT
r -t 2.251153767 -s 2 -d 2 -p cbr -e 230 -c 2 -a 0 -i 80 -k AGT
+ -t 2.296000000 -s 0 -d -1 -p cbr -e 210 -c 2 -a 0 -i 82 -k AGT 
- -t 2.296000000 -s 0 -d -1 -p cbr -e 210 -c 2 -a 0 -i 82 -k AGT
h -t 2.296000000 -s 0 -d -1 -p cbr -e 210 -c 2 -a 0 -i 82 -k AGT
+ -t 2.296000000 -s 3 -d -1 -p cbr -e 210 -c 2 -a 0 -i 83 -k AGT 
- -t 2.296000000 -s 3 -d -1 -p cbr -e 210 -c 2 -a 0 -i 83 -k AGT
h -t 2.296000000 -s 3 -d -1 -p cbr -e 210 -c 2 -a 0 -i 83 -k AGT
r -t 2.299153400 -s 4 -d 4 -p cbr -e 230 -c 2 -a 0 -i 83 -k AGT
r -t 2.323153767 -s 2 -d 2 -p cbr -e 230 -c 2 -a 0 -i 82 -k AGT
+ -t 2.352000000 -s 0 -d -1 -p cbr -e 210 -c 2 -a 0 -i 84 -k AGT 
- -t 2.352000000 -s 0 -d -1 -p cbr -e 210 -c 2 -a 0 -i 84 -k AGT
h -t 2.352000000 -s 0 -d -1 -p cbr -e 210 -c 2 -a 0 -i 84 -k AGT
+ -t 2.352000000 -s 3 -d -1 -p cbr -e 210 -c 2 -a 0 -i 85 -k AGT 
- -t 2.352000000 -s 3 -d -1 -p cbr -e 210 -c 2 -a 0 -i 85 -k AGT
h -t 2.352000000 -s 3 -d -1 -p cbr -e 210 -c 2 -a 0 -i 85 -k AGT
r -t 2.371153400 -s 4 -d 4 -p cbr -e 230 -c 2 -a 0 -i 85 -k AGT
r -t 2.371153767 -s 2 -d 2 -p cbr -e 230 -c 2 -a 0 -i 84 -k AGT
+ -t 2.408000000 -s 0 -d -1 -p cbr -e 210 -c 2 -a 0 -i 86 -k AGT 
- -t 2.408000000 -s 0 -d -1 -p cbr -e 210 -c 2 -a 0 -i 86 -k AGT
h -t 2.408000000 -s 0 -d -1 -p cbr -e 210 -c 2 -a 0 -i 86 -k AGT
+ -t 2.408000000 -s 3 -d -1 -p cbr -e 210 -c 2 -a 0 -i 87 -k AGT 
- -t 2.408000000 -s 3 -d -1 -p cbr -e 210 -c 2 -a 0 -i 87 -k AGT
h -t 2.408000000 -s 3 -d -1 -p cbr -e 210 -c 2 -a 0 -i 87 -k AGT
r -t 2.419153400 -s 4 -d 4 -p cbr -e 230 -c 2 -a 0 -i 87 -k AGT
r -t 2.419153767 -s 2 -d 2 -p cbr -e 230 -c 2 -a 0 -i 86 -k AGT
+ -t 2.464000000 -s 0 -d -1 -p cbr -e 210 -c 2 -a 0 -i 88 -k AGT 
- -t 2.464000000 -s 0 -d -1 -p cbr -e 210 -c 2 -a 0 -i 88 -k AGT
h -t 2.464000000 -s 0 -d -1 -p cbr -e 210 -c 2 -a 0 -i 88 -k AGT
+ -t 2.464000000 -s 3 -d -1 -p cbr -e 210 -c 2 -a 0 -i 89 -k AGT 
- -t 2.464000000 -s 3 -d -1 -p cbr -e 210 -c 2 -a 0 -i 89 -k AGT
h -t 2.464000000 -s 3 -d -1 -p cbr -e 210 -c 2 -a 0 -i 89 -k AGT
r -t 2.467153400 -s 4 -d 4 -p cbr -e 230 -c 2 -a 0 -i 89 -k AGT
r -t 2.491153767 -s 2 -d 2 -p cbr -e 230 -c 2 -a 0 -i 88 -k AGT
+ -t 2.520000000 -s 0 -d -1 -p cbr -e 210 -c 2 -a 0 -i 90 -k AGT 
- -t 2.520000000 -s 0 -d -1 -p cbr -e 210 -c 2 -a 0 -i 90 -k AGT
h -t 2.520000000 -s 0 -d -1 -p cbr -e 210 -c 2 -a 0 -i 90 -k AGT
+ -t 2.520000000 -s 3 -d -1 -p cbr -e 210 -c 2 -a 0 -i 91 -k AGT 
- -t 2.520000000 -s 3 -d -1 -p cbr -e 210 -c 2 -a 0 -i 91 -k AGT
h -t 2.520000000 -s 3 -d -1 -p cbr -e 210 -c 2 -a 0 -i 91 -k AGT
r -t 2.539153400 -s 4 -d 4 -p cbr -e 230 -c 2 -a 0 -i 91 -k AGT
r -t 2.539153767 -s 2 -d 2 -p cbr -e 230 -c 2 -a 0 -i 90 -k AGT
+ -t 2.576000000 -s 0 -d -1 -p cbr -e 210 -c 2 -a 0 -i 92 -k AGT 
- -t 2.576000000 -s 0 -d -1 -p cbr -e 210 -c 2 -a 0 -i 92 -k AGT
h -t 2.576000000 -s 0 -d -1 -p cbr -e 210 -c 2 -a 0 -i 92 -k AGT
+ -t 2.576000000 -s 3 -d -1 -p cbr -e 210 -c 2 -a 0 -i 93 -k AGT 
- -t 2.576000000 -s 3 -d -1 -p cbr -e 210 -c 2 -a 0 -i 93 -k AGT
h -t 2.576000000 -s 3 -d -1 -p cbr -e 210 -c 2 -a 0 -i 93 -k AGT
r -t 2.587153400 -s 4 -d 4 -p cbr -e 230 -c 2 -a 0 -i 93 -k AGT
r -t 2.587153767 -s 2 -d 2 -p cbr -e 230 -c 2 -a 0 -i 92 -k AGT
+ -t 2.632000000 -s 0 -d -1 -p cbr -e 210 -c 2 -a 0 -i 94 -k AGT 
- -t 2.632000000 -s 0 -d -1 -p cbr -e 210 -c 2 -a 0 -i 94 -k AGT
h -t 2.632000000 -s 0 -d -1 -p cbr -e 210 -c 2 -a 0 -i 94 -k AGT
+ -t 2.632000000 -s 3 -d -1 -p cbr -e 210 -c 2 -a 0 -i 95 -k AGT 
- -t 2.632000000 -s 3 -d -1 -p cbr -e 210 -c 2 -a 0 -i 95 -k AGT
h -t 2.632000000 -s 3 -d -1 -p cbr -e 210 -c 2 -a 0 -i 95 -k AGT
r -t 2.635153400 -s 4 -d 4 -p cbr -e 230 -c 2 -a 0 -i 95 -k AGT
r -t 2.659153767 -s 2 -d 2 -p cbr -e 230 -c 2 -a 0 -i 94 -k AGT
+ -t 2.688000000 -s 0 -d -1 -p cbr -e 210 -c 2 -a 0 -i 96 -k AGT 
- -t 2.688000000 -s 0 -d -1 -p cbr -e 210 -c 2 -a 0 -i 96 -k AGT
h -t 2.688000000 -s 0 -d -1 -p cbr -e 210 -c 2 -a 0 -i 96 -k AGT
+ -t 2.688000000 -s 3 -d -1 -p cbr -e 210 -c 2 -a 0 -i 97 -k AGT 
- -t 2.688000000 -s 3 -d -1 -p cbr -e 210 -c 2 -a 0 -i 97 -k AGT
h -t 2.688000000 -s 3 -d -1 -p cbr -e 210 -c 2 -a 0 -i 97 -k AGT
r -t 2.707153400 -s 4 -d 4 -p cbr -e 230 -c 2 -a 0 -i 97 -k AGT
r -t 2.707153767 -s 2 -d 2 -p cbr -e 230 -c 2 -a 0 -i 96 -k AGT
+ -t 2.744000000 -s 0 -d -1 -p cbr -e 210 -c 2 -a 0 -i 98 -k AGT 
- -t 2.744000000 -s 0 -d -1 -p cbr -e 210 -c 2 -a 0 -i 98 -k AGT
h -t 2.744000000 -s 0 -d -1 -p cbr -e 210 -c 2 -a 0 -i 98 -k AGT
+ -t 2.744000000 -s 3 -d -1 -p cbr -e 210 -c 2 -a 0 -i 99 -k AGT 
- -t 2.744000000 -s 3 -d -1 -p cbr -e 210 -c 2 -a 0 -i 99 -k AGT
h -t 2.744000000 -s 3 -d -1 -p cbr -e 210 -c 2 -a 0 -i 99 -k AGT
r -t 2.755153400 -s 4 -d 4 -p cbr -e 230 -c 2 -a 0 -i 99 -k AGT
r -t 2.755153767 -s 2 -d 2 -p cbr -e 230 -c 2 -a 0 -i 98 -k AGT
+ -t 2.800000000 -s 0 -d -1 -p cbr -e 210 -c 2 -a 0 -i 100 -k AGT 
- -t 2.800000000 -s 0 -d -1 -p cbr -e 210 -c 2 -a 0 -i 100 -k AGT
h -t 2.800000000 -s 0 -d -1 -p cbr -e 210 -c 2 -a 0 -i 100 -k AGT
+ -t 2.800000000 -s 3 -d -1 -p cbr -e 210 -c 2 -a 0 -i 101 -k AGT 
- -t 2.800000000 -s 3 -d -1 -p cbr -e 210 -c 2 -a 0 -i 101 -k AGT
h -t 2.800000000 -s 3 -d -1 -p cbr -e 210 -c 2 -a 0 -i 101 -k AGT
r -t 2.803153400 -s 4 -d 4 -p cbr -e 230 -c 2 -a 0 -i 101 -k AGT
r -t 2.827153767 -s 2 -d 2 -p cbr -e 230 -c 2 -a 0 -i 100 -k AGT
+ -t 2.856000000 -s 0 -d -1 -p cbr -e 210 -c 2 -a 0 -i 102 -k AGT 
- -t 2.856000000 -s 0 -d -1 -p cbr -e 210 -c 2 -a 0 -i 102 -k AGT
h -t 2.856000000 -s 0 -d -1 -p cbr -e 210 -c 2 -a 0 -i 102 -k AGT
+ -t 2.856000000 -s 3 -d -1 -p cbr -e 210 -c 2 -a 0 -i 103 -k AGT 
- -t 2.856000000 -s 3 -d -1 -p cbr -e 210 -c 2 -a 0 -i 103 -k AGT
h -t 2.856000000 -s 3 -d -1 -p cbr -e 210 -c 2 -a 0 -i 103 -k AGT
r -t 2.875153400 -s 4 -d 4 -p cbr -e 230 -c 2 -a 0 -i 103 -k AGT
r -t 2.875153767 -s 2 -d 2 -p cbr -e 230 -c 2 -a 0 -i 102 -k AGT
+ -t 2.912000000 -s 0 -d -1 -p cbr -e 210 -c 2 -a 0 -i 104 -k AGT 
- -t 2.912000000 -s 0 -d -1 -p cbr -e 210 -c 2 -a 0 -i 104 -k AGT
h -t 2.912000000 -s 0 -d -1 -p cbr -e 210 -c 2 -a 0 -i 104 -k AGT
+ -t 2.912000000 -s 3 -d -1 -p cbr -e 210 -c 2 -a 0 -i 105 -k AGT 
- -t 2.912000000 -s 3 -d -1 -p cbr -e 210 -c 2 -a 0 -i 105 -k AGT
h -t 2.912000000 -s 3 -d -1 -p cbr -e 210 -c 2 -a 0 -i 105 -k AGT
r -t 2.923153400 -s 4 -d 4 -p cbr -e 230 -c 2 -a 0 -i 105 -k AGT
r -t 2.923153767 -s 2 -d 2 -p cbr -e 230 -c 2 -a 0 -i 104 -k AGT
+ -t 2.968000000 -s 0 -d -1 -p cbr -e 210 -c 2 -a 0 -i 106 -k AGT 
- -t 2.968000000 -s 0 -d -1 -p cbr -e 210 -c 2 -a 0 -i 106 -k AGT
h -t 2.968000000 -s 0 -d -1 -p cbr -e 210 -c 2 -a 0 -i 106 -k AGT
+ -t 2.968000000 -s 3 -d -1 -p cbr -e 210 -c 2 -a 0 -i 107 -k AGT 
- -t 2.968000000 -s 3 -d -1 -p cbr -e 210 -c 2 -a 0 -i 107 -k AGT
h -t 2.968000000 -s 3 -d -1 -p cbr -e 210 -c 2 -a 0 -i 107 -k AGT
r -t 2.971153400 -s 4 -d 4 -p cbr -e 230 -c 2 -a 0 -i 107 -k AGT
r -t 2.995153767 -s 2 -d 2 -p cbr -e 230 -c 2 -a 0 -i 106 -k AGT
+ -t 3.024000000 -s 0 -d -1 -p cbr -e 210 -c 2 -a 0 -i 108 -k AGT 
- -t 3.024000000 -s 0 -d -1 -p cbr -e 210 -c 2 -a 0 -i 108 -k AGT
h -t 3.024000000 -s 0 -d -1 -p cbr -e 210 -c 2 -a 0 -i 108 -k AGT
+ -t 3.024000000 -s 3 -d -1 -p cbr -e 210 -c 2 -a 0 -i 109 -k AGT 
- -t 3.024000000 -s 3 -d -1 -p cbr -e 210 -c 2 -a 0 -i 109 -k AGT
h -t 3.024000000 -s 3 -d -1 -p cbr -e 210 -c 2 -a 0 -i 109 -k AGT
r -t 3.043153400 -s 4 -d 4 -p cbr -e 230 -c 2 -a 0 -i 109 -k AGT
r -t 3.043153767 -s 2 -d 2 -p cbr -e 230 -c 2 -a 0 -i 108 -k AGT
+ -t 3.080000000 -s 0 -d -1 -p cbr -e 210 -c 2 -a 0 -i 110 -k AGT 
- -t 3.080000000 -s 0 -d -1 -p cbr -e 210 -c 2 -a 0 -i 110 -k AGT
h -t 3.080000000 -s 0 -d -1 -p cbr -e 210 -c 2 -a 0 -i 110 -k AGT
+ -t 3.080000000 -s 3 -d -1 -p cbr -e 210 -c 2 -a 0 -i 111 -k AGT 
- -t 3.080000000 -s 3 -d -1 -p cbr -e 210 -c 2 -a 0 -i 111 -k AGT
h -t 3.080000000 -s 3 -d -1 -p cbr -e 210 -c 2 -a 0 -i 111 -k AGT
r -t 3.091153400 -s 4 -d 4 -p cbr -e 230 -c 2 -a 0 -i 111 -k AGT
r -t 3.091153767 -s 2 -d 2 -p cbr -e 230 -c 2 -a 0 -i 110 -k AGT
+ -t 3.136000000 -s 0 -d -1 -p cbr -e 210 -c 2 -a 0 -i 112 -k AGT 
- -t 3.136000000 -s 0 -d -1 -p cbr -e 210 -c 2 -a 0 -i 112 -k AGT
h -t 3.136000000 -s 0 -d -1 -p cbr -e 210 -c 2 -a 0 -i 112 -k AGT
+ -t 3.136000000 -s 3 -d -1 -p cbr -e 210 -c 2 -a 0 -i 113 -k AGT 
- -t 3.136000000 -s 3 -d -1 -p cbr -e 210 -c 2 -a 0 -i 113 -k AGT
h -t 3.136000000 -s 3 -d -1 -p cbr -e 210 -c 2 -a 0 -i 113 -k AGT
r -t 3.139153400 -s 4 -d 4 -p cbr -e 230 -c 2 -a 0 -i 113 -k AGT