s 0.000000000 _0_ AGT  --- 0 cbr 210 [0 0 0 0] ------- [0:0 2:0 32 0] [0] 0 0
s 0.000000000 _3_ AGT  --- 1 cbr 210 [0 0 0 0] ------- [3:0 4:0 32 0] [0] 0 0
s 0.056000000 _0_ AGT  --- 2 cbr 210 [0 0 0 0] ------- [0:0 2:0 32 0] [1] 0 0
s 0.056000000 _3_ AGT  --- 3 cbr 210 [0 0 0 0] ------- [3:0 4:0 32 0] [1] 0 0
r 0.067153400 _4_ AGT  --- 1 cbr 230 [5 4 3 0] ------- [3:0 4:0 30 4] [0] 1 0
r 0.091153400 _4_ AGT  --- 3 cbr 230 [5 4 3 0] ------- [3:0 4:0 30 4] [1] 1 0
s 0.112000000 _0_ AGT  --- 4 cbr 210 [0 0 0 0] ------- [0:0 2:0 32 0] [2] 0 0
s 0.112000000 _3_ AGT  --- 5 cbr 210 [0 0 0 0] ------- [3:0 4:0 32 0] [2] 0 0
r 0.115153400 _4_ AGT  --- 5 cbr 230 [5 4 3 0] ------- [3:0 4:0 30 4] [2] 1 0
r 0.115153767 _2_ AGT  --- 0 cbr 230 [5 2 1 0] ------- [0:0 2:0 29 2] [0] 2 0
r 0.139153767 _2_ AGT  --- 2 cbr 230 [5 2 1 0] ------- [0:0 2:0 29 2] [1] 2 0
r 0.163153767 _2_ AGT  --- 4 cbr 230 [5 2 1 0] ------- [0:0 2:0 29 2] [2] 2 0
s 0.168000000 _0_ AGT  --- 6 cbr 210 [0 0 0 0] ------- [0:0 2:0 32 0] [3] 0 0
s 0.168000000 _3_ AGT  --- 7 cbr 210 [0 0 0 0] ------- [3:0 4:0 32 0] [3] 0 0
r 0.187153400 _4_ AGT  --- 7 cbr 230 [5 4 3 0] ------- [3:0 4:0 30 4] [3] 1 0
r 0.187153767 _2_ AGT  --- 6 cbr 230 [5 2 1 0] ------- [0:0 2:0 29 2] [3] 2 0
s 0.224000000 _0_ AGT  --- 8 cbr 210 [0 0 0 0] ------- [0:0 2:0 32 0] [4] 0 0
s 0.224000000 _3_ AGT  --- 9 cbr 210 [0 0 0 0] ------- [3:0 4:0 32 0] [4] 0 0
r 0.235153400 _4_ AGT  --- 9 cbr 230 [5 4 3 0] ------- [3:0 4:0 30 4] [4] 1 0
r 0.235153767 _2_ AGT  --- 8 cbr 230 [5 2 1 0] ------- [0:0 2:0 29 2] [4] 2 0
s 0.280000000 _0_ AGT  --- 10 cbr 210 [0 0 0 0] ------- [0:0 2:0 32 0] [5] 0 0
s 0.280000000 _3_ AGT  --- 11 cbr 210 [0 0 0 0] ------- [3:0 4:0 32 0] [5] 0 0
r 0.283153400 _4_ AGT  --- 11 cbr 230 [5 4 3 0] ------- [3:0 4:0 30 4] [5] 1 0
r 0.307153767 _2_ AGT  --- 10 cbr 230 [5 2 1 0] ------- [0:0 2:0 29 2] [5] 2 0
s 0.336000000 _0_ AGT  --- 12 cbr 210 [0 0 0 0] ------- [0:0 2:0 32 0] [6] 0 0
s 0.336000000 _3_ AGT  --- 13 cbr 210 [0 0 0 0] ------- [3:0 4:0 32 0] [6] 0 0
r 0.355153400 _4_ AGT  --- 13 cbr 230 [5 4 3 0] ------- [3:0 4:0 30 4] [6] 1 0
r 0.355153767 _2_ AGT  --- 12 cbr 230 [5 2 1 0] ------- [0:0 2:0 29 2] [6] 2 0
s 0.392000000 _0_ AGT  --- 14 cbr 210 [0 0 0 0] ------- [0:0 2:0 32 0] [7] 0 0
s 0.392000000 _3_ AGT  --- 15 cbr 210 [0 0 0 0] ------- [3:0 4:0 32 0] [7] 0 0
r 0.403153400 _4_ AGT  --- 15 cbr 230 [5 4 3 0] ------- [3:0 4:0 30 4] [7] 1 0
r 0.403153767 _2_ AGT  --- 14 cbr 230 [5 2 1 0] ------- [0:0 2:0 29 2] [7] 2 0
s 0.448000000 _0_ AGT  --- 16 cbr 210 [0 0 0 0] ------- [0:0 2:0 32 0] [8] 0 0
s 0.448000000 _3_ AGT  --- 17 cbr 210 [0 0 0 0] ------- [3:0 4:0 32 0] [8] 0 0
r 0.451153400 _4_ AGT  --- 17 cbr 230 [5 4 3 0] ------- [3:0 4:0 30 4] [8] 1 0
r 0.475153767 _2_ AGT  --- 16 cbr 230 [5 2 1 0] ------- [0:0 2:0 29 2] [8] 2 0
s 0.504000000 _0_ AGT  --- 18 cbr 210 [0 0 0 0] ------- [0:0 2:0 32 0] [9] 0 0
s 0.504000000 _3_ AGT  --- 19 cbr 210 [0 0 0 0] ------- [3:0 4:0 32 0] [9] 0 0
r 0.523153400 _4_ AGT  --- 19 cbr 230 [5 4 3 0] ------- [3:0 4:0 30 4] [9] 1 0
r 0.523153767 _2_ AGT  --- 18 cbr 230 [5 2 1 0] ------- [0:0 2:0 29 2] [9] 2 0
s 0.560000000 _0_ AGT  --- 20 cbr 210 [0 0 0 0] ------- [0:0 2:0 32 0] [10] 0 0
s 0.560000000 _3_ AGT  --- 21 cbr 210 [0 0 0 0] ------- [3:0 4:0 32 0] [10] 0 0
r 0.571153400 _4_ AGT  --- 21 cbr 230 [5 4 3 0] ------- [3:0 4:0 30 4] [10] 1 0
r 0.571153767 _2_ AGT  --- 20 cbr 230 [5 2 1 0] ------- [0:0 2:0 29 2] [10] 2 0
s 0.616000000 _0_ AGT  --- 22 cbr 210 [0 0 0 0] ------- [0:0 2:0 32 0] [11] 0 0
s 0.616000000 _3_ AGT  --- 23 cbr 210 [0 0 0 0] ------- [3:0 4:0 32 0] [11] 0 0
r 0.619153400 _4_ AGT  --- 23 cbr 230 [5 4 3 0] ------- [3:0 4:0 30 4] [11] 1 0
r 0.643153767 _2_ AGT  --- 22 cbr 230 [5 2 1 0] ------- [0:0 2:0 29 2] [11] 2 0
s 0.672000000 _0_ AGT  --- 24 cbr 210 [0 0 0 0] ------- [0:0 2:0 32 0] [12] 0 0
s 0.672000000 _3_ AGT  --- 25 cbr 210 [0 0 0 0] ------- [3:0 4:0 32 0] [12] 0 0
r 0.691153400 _4_ AGT  --- 25 cbr 230 [5 4 3 0] ------- [3:0 4:0 30 4] [12] 1 0
r 0.691153767 _2_ AGT  --- 24 cbr 230 [5 2 1 0] ------- [0:0 2:0 29 2] [12] 2 0
s 0.728000000 _0_ AGT  --- 26 cbr 210 [0 0 0 0] ------- [0:0 2:0 32 0] [13] 0 0
s 0.728000000 _3_ AGT  --- 27 cbr 210 [0 0 0 0] ------- [3:0 4:0 32 0] [13] 0 0
r 0.739153400 _4_ AGT  --- 27 cbr 230 [5 4 3 0] ------- [3:0 4:0 30 4] [13] 1 0
r 0.739153767 _2_ AGT  --- 26 cbr 230 [5 2 1 0] ------- [0:0 2:0 29 2] [13] 2 0
s 0.784000000 _0_ AGT  --- 28 cbr 210 [0 0 0 0] ------- [0:0 2:0 32 0] [14] 0 0
s 0.784000000 _3_ AGT  --- 29 cbr 210 [0 0 0 0] ------- [3:0 4:0 32 0] [14] 0 0
r 0.787153400 _4_ AGT  --- 29 cbr 230 [5 4 3 0] ------- [3:0 4:0 30 4] [14] 1 0
r 0.811153767 _2_ AGT  --- 28 cbr 230 [5 2 1 0] ------- [0:0 2:0 29 2] [14] 2 0
s 0.840000000 _0_ AGT  --- 30 cbr 210 [0 0 0 0] ------- [0:0 2:0 32 0] [15] 0 0
s 0.840000000 _3_ AGT  --- 31 cbr 210 [0 0 0 0] ------- [3:0 4:0 32 0] [15] 0 0
r 0.859153400 _4_ AGT  --- 31 cbr 230 [5 4 3 0] ------- [3:0 4:0 30 4] [15] 1 0
r 0.859153767 _2_ AGT  --- 30 cbr 230 [5 2 1 0] ------- [0:0 2:0 29 2] [15] 2 0
s 0.896000000 _0_ AGT  --- 32 cbr 210 [0 0 0 0] ------- [0:0 2:0 32 0] [16] 0 0
s 0.896000000 _3_ AGT  --- 33 cbr 210 [0 0 0 0] ------- [3:0 4:0 32 0] [16] 0 0
r 0.907153400 _4_ AGT  --- 33 cbr 230 [5 4 3 0] ------- [3:0 4:0 30 4] [16] 1 0
r 0.907153767 _2_ AGT  --- 32 cbr 230 [5 2 1 0] ------- [0:0 2:0 29 2] [16] 2 0
s 0.952000000 _0_ AGT  --- 34 cbr 210 [0 0 0 0] ------- [0:0 2:0 32 0] [17] 0 0
s 0.952000000 _3_ AGT  --- 35 cbr 210 [0 0 0 0] ------- [3:0 4:0 32 0] [17] 0 0
r 0.955153400 _4_ AGT  --- 35 cbr 230 [5 4 3 0] ------- [3:0 4:0 30 4] [17] 1 0
r 0.979153767 _2_ AGT  --- 34 cbr 230 [5 2 1 0] ------- [0:0 2:0 29 2] [17] 2 0
s 1.008000000 _0_ AGT  --- 36 cbr 210 [0 0 0 0] ------- [0:0 2:0 32 0] [18] 0 0
s 1.008000000 _3_ AGT  --- 37 cbr 210 [0 0 0 0] ------- [3:0 4:0 32 0] [18] 0 0
r 1.027153400 _4_ AGT  --- 37 cbr 230 [5 4 3 0] ------- [3:0 4:0 30 4] [18] 1 0
r 1.027153767 _2_ AGT  --- 36 cbr 230 [5 2 1 0] ------- [0:0 2:0 29 2] [18] 2 0
s 1.064000000 _0_ AGT  --- 38 cbr 210 [0 0 0 0] ------- [0:0 2:0 32 0] [19] 0 0
s 1.064000000 _3_ AGT  --- 39 cbr 210 [0 0 0 0] ------- [3:0 4:0 32 0] [19] 0 0
r 1.075153400 _4_ AGT  --- 39 cbr 230 [5 4 3 0] ------- [3:0 4:0 30 4] [19] 1 0
r 1.075153767 _2_ AGT  --- 38 cbr 230 [5 2 1 0] ------- [0:0 2:0 29 2] [19] 2 0
s 1.120000000 _0_ AGT  --- 40 cbr 210 [0 0 0 0] ------- [0:0 2:0 32 0] [20] 0 0
s 1.120000000 _3_ AGT  --- 41 cbr 210 [0 0 0 0] ------- [3:0 4:0 32 0] [20] 0 0
r 1.123153400 _4_ AGT  --- 41 cbr 230 [5 4 3 0] ------- [3:0 4:0 30 4] [20] 1 0
r 1.147153767 _2_ AGT  --- 40 cbr 230 [5 2 1 0] ------- [0:0 2:0 29 2] [20] 2 0
s 1.176000000 _0_ AGT  --- 42 cbr 210 [0 0 0 0] ------- [0:0 2:0 32 0] [21] 0 0
s 1.176000000 _3_ AGT  --- 43 cbr 210 [0 0 0 0] ------- [3:0 4:0 32 0] [21] 0 0
r 1.195153400 _4_ AGT  --- 43 cbr 230 [5 4 3 0] ------- [3:0 4:0 30 4] [21] 1 0
r 1.195153767 _2_ AGT  --- 42 cbr 230 [5 2 1 0] ------- [0:0 2:0 29 2] [21] 2 0
s 1.232000000 _0_ AGT  --- 44 cbr 210 [0 0 0 0] ------- [0:0 2:0 32 0] [22] 0 0
s 1.232000000 _3_ AGT  --- 45 cbr 210 [0 0 0 0] ------- [3:0 4:0 32 0] [22] 0 0
r 1.243153400 _4_ AGT  --- 45 cbr 230 [5 4 3 0] ------- [3:0 4:0 30 4] [22] 1 0
r 1.243153767 _2_ AGT  --- 44 cbr 230 [5 2 1 0] ------- [0:0 2:0 29 2] [22] 2 0
s 1.288000000 _0_ AGT  --- 46 cbr 210 [0 0 0 0] ------- [0:0 2:0 32 0] [23] 0 0
s 1.288000000 _3_ AGT  --- 47 cbr 210 [0 0 0 0] ------- [3:0 4:0 32 0] [23] 0 0
r 1.291153400 _4_ AGT  --- 47 cbr 230 [5 4 3 0] ------- [3:0 4:0 30 4] [23] 1 0
r 1.315153767 _2_ AGT  --- 46 cbr 230 [5 2 1 0] ------- [0:0 2:0 29 2] [23] 2 0
s 1.344000000 _0_ AGT  --- 48 cbr 210 [0 0 0 0] ------- [0:0 2:0 32 0] [24] 0 0
s 1.344000000 _3_ AGT  --- 49 cbr 210 [0 0 0 0] ------- [3:0 4:0 32 0] [24] 0 0
r 1.363153400 _4_ AGT  --- 49 cbr 230 [5 4 3 0] ------- [3:0 4:0 30 4] [24] 1 0
r 1.363153767 _2_ AGT  --- 48 cbr 230 [5 2 1 0] ------- [0:0 2:0 29 2] [24] 2 0
s 1.400000000 _0_ AGT  --- 50 cbr 210 [0 0 0 0] ------- [0:0 2:0 32 0] [25] 0 0
s 1.400000000 _3_ AGT  --- 51 cbr 210 [0 0 0 0] ------- [3:0 4:0 32 0] [25] 0 0
r 1.411153400 _4_ AGT  --- 51 cbr 230 [5 4 3 0] ------- [3:0 4:0 30 4] [25] 1 0
r 1.411153767 _2_ AGT  --- 50 cbr 230 [5 2 1 0] ------- [0:0 2:0 29 2] [25] 2 0
s 1.456000000 _0_ AGT  --- 52 cbr 210 [0 0 0 0] ------- [0:0 2:0 32 0] [26] 0 0
s 1.456000000 _3_ AGT  --- 53 cbr 210 [0 0 0 0] ------- [3:0 4:0 32 0] [26] 0 0
r 1.459153400 _4_ AGT  --- 53 cbr 230 [5 4 3 0] ------- [3:0 4:0 30 4] [26] 1 0
r 1.483153767 _2_ AGT  --- 52 cbr 230 [5 2 1 0] ------- [0:0 2:0 29 2] [26] 2 0
s 1.512000000 _0_ AGT  --- 54 cbr 210 [0 0 0 0] ------- [0:0 2:0 32 0] [27] 0 0
s 1.512000000 _3_ AGT  --- 55 cbr 210 [0 0 0 0] ------- [3:0 4:0 32 0] [27] 0 0
r 1.531153400 _4_ AGT  --- 55 cbr 230 [5 4 3 0] ------- [3:0 4:0 30 4] [27] 1 0
r 1.531153767 _2_ AGT  --- 54 cbr 230 [5 2 1 0] ------- [0:0 2:0 29 2] [27] 2 0
s 1.568000000 _0_ AGT  --- 56 cbr 210 [0 0 0 0] ------- [0:0 2:0 32 0] [28] 0 0
s 1.568000000 _3_ AGT  --- 57 cbr 210 [0 0 0 0] ------- [3:0 4:0 32 0] [28] 0 0
r 1.579153400 _4_ AGT  --- 57 cbr 230 [5 4 3 0] ------- [3:0 4:0 30 4] [28] 1 0
r 1.579153767 _2_ AGT  --- 56 cbr 230 [5 2 1 0] ------- [0:0 2:0 29 2] [28] 2 0
s 1.624000000 _0_ AGT  --- 58 cbr 210 [0 0 0 0] ------- [0:0 2:0 32 0] [29] 0 0
s 1.624000000 _3_ AGT  --- 59 cbr 210 [0 0 0 0] ------- [3:0 4:0 32 0] [29] 0 0
r 1.627153400 _4_ AGT  --- 59 cbr 230 [5 4 3 0] ------- [3:0 4:0 30 4] [29] 1 0
r 1.651153767 _2_ AGT  --- 58 cbr 230 [5 2 1 0] ------- [0:0 2:0 29 2] [29] 2 0
s 1.680000000 _0_ AGT  --- 60 cbr 210 [0 0 0 0] ------- [0:0 2:0 32 0] [30] 0 0
s 1.680000000 _3_ AGT  --- 61 cbr 210 [0 0 0 0] ------- [3:0 4:0 32 0] [30] 0 0
r 1.699153400 _4_ AGT  --- 61 cbr 230 [5 4 3 0] ------- [3:0 4:0 30 4] [30] 1 0
r 1.699153767 _2_ AGT  --- 60 cbr 230 [5 2 1 0] ------- [0:0 2:0 29 2] [30] 2 0
s 1.736000000 _0_ AGT  --- 62 cbr 210 [0 0 0 0] ------- [0:0 2:0 32 0] [31] 0 0
s 1.736000000 _3_ AGT  --- 63 cbr 210 [0 0 0 0] ------- [3:0 4:0 32 0] [31] 0 0
r 1.747153400 _4_ AGT  --- 63 cbr 230 [5 4 3 0] ------- [3:0 4:0 30 4] [31] 1 0
r 1.747153767 _2_ AGT  --- 62 cbr 230 [5 2 1 0] ------- [0:0 2:0 29 2] [31] 2 0
s 1.792000000 _0_ AGT  --- 64 cbr 210 [0 0 0 0] ------- [0:0 2:0 32 0] [32] 0 0
s 1.792000000 _3_ AGT  --- 65 cbr 210 [0 0 0 0] ------- [3:0 4:0 32 0] [32] 0 0
r 1.795153400 _4_ AGT  --- 65 cbr 230 [5 4 3 0] ------- [3:0 4:0 30 4] [32] 1 0
r 1.819153767 _2_ AGT  --- 64 cbr 230 [5 2 1 0] ------- [0:0 2:0 29 2] [32] 2 0
s 1.848000000 _0_ AGT  --- 66 cbr 210 [0 0 0 0] ------- [0:0 2:0 32 0] [33] 0 0
s 1.848000000 _3_ AGT  --- 67 cbr 210 [0 0 0 0] ------- [3:0 4:0 32 0] [33] 0 0
r 1.867153400 _4_ AGT  --- 67 cbr 230 [5 4 3 0] ------- [3:0 4:0 30 4] [33] 1 0
r 1.867153767 _2_ AGT  --- 66 cbr 230 [5 2 1 0] ------- [0:0 2:0 29 2] [33] 2 0
s 1.904000000 _0_ AGT  --- 68 cbr 210 [0 0 0 0] ------- [0:0 2:0 32 0] [34] 0 0
s 1.904000000 _3_ AGT  --- 69 cbr 210 [0 0 0 0] ------- [3:0 4:0 32 0] [34] 0 0
r 1.915153400 _4_ AGT  --- 69 cbr 230 [5 4 3 0] ------- [3:0 4:0 30 4] [34] 1 0
r 1.915153767 _2_ AGT  --- 68 cbr 230 [5 2 1 0] ------- [0:0 2:0 29 2] [34] 2 0
s 1.960000000 _0_ AGT  --- 70 cbr 210 [0 0 0 0] ------- [0:0 2:0 32 0] [35] 0 0
s 1.960000000 _3_ AGT  --- 71 cbr 210 [0 0 0 0] ------- [3:0 4:0 32 0] [35] 0 0
r 1.963153400 _4_ AGT  --- 71 cbr 230 [5 4 3 0] ------- [3:0 4:0 30 4] [35] 1 0
r 1.987153767 _2_ AGT  --- 70 cbr 230 [5 2 1 0] ------- [0:0 2:0 29 2] [35] 2 0
s 2.016000000 _0_ AGT  --- 72 cbr 210 [0 0 0 0] ------- [0:0 2:0 32 0] [36] 0 0
s 2.016000000 _3_ AGT  --- 73 cbr 210 [0 0 0 0] ------- [3:0 4:0 32 0] [36] 0 0
r 2.035153400 _4_ AGT  --- 73 cbr 230 [5 4 3 0] ------- [3:0 4:0 30 4] [36] 1 0
r 2.035153767 _2_ AGT  --- 72 cbr 230 [5 2 1 0] ------- [0:0 2:0 29 2] [36] 2 0
s 2.072000000 _0_ AGT  --- 74 cbr 210 [0 0 0 0] ------- [0:0 2:0 32 0] [37] 0 0
s 2.072000000 _3_ AGT  --- 75 cbr 210 [0 0 0 0] ------- [3:0 4:0 32 0] [37] 0 0
r 2.083153400 _4_ AGT  --- 75 cbr 230 [5 4 3 0] ------- [3:0 4:0 30 4] [37] 1 0
r 2.083153767 _2_ AGT  --- 74 cbr 230 [5 2 1 0] ------- [0:0 2:0 29 2] [37] 2 0
s 2.128000000 _0_ AGT  --- 76 cbr 210 [0 0 0 0] ------- [0:0 2:0 32 0] [38] 0 0
s 2.128000000 _3_ AGT  --- 77 cbr 210 [0 0 0 0] ------- [3:0 4:0 32 0] [38] 0 0
r 2.131153400 _4_ AGT  --- 77 cbr 230 [5 4 3 0] ------- [3:0 4:0 30 4] [38] 1 0
r 2.155153767 _2_ AGT  --- 76 cbr 230 [5 2 1 0] ------- [0:0 2:0 29 2] [38] 2 0
s 2.184000000 _0_ AGT  --- 78 cbr 210 [0 0 0 0] ------- [0:0 2:0 32 0] [39] 0 0
s 2.184000000 _3_ AGT  --- 79 cbr 210 [0 0 0 0] ------- [3:0 4:0 32 0] [39] 0 0
r 2.203153400 _4_ AGT  --- 79 cbr 230 [5 4 3 0] ------- [3:0 4:0 30 4] [39] 1 0
r 2.203153767 _2_ AGT  --- 78 cbr 230 [5 2 1 0] ------- [0:0 2:0 29 2] [39] 2 0
s 2.240000000 _0_ AGT  --- 80 cbr 210 [0 0 0 0] ------- [0:0 2:0 32 0] [40] 0 0
s 2.240000000 _3_ AGT  --- 81 cbr 210 [0 0 0 0] ------- [3:0 4:0 32 0] [40] 0 0
r 2.251153400 _4_ AGT  --- 81 cbr 230 [5 4 3 0] ------- [3:0 4:0 30 4] [40] 1 0
r 2.251153767 _2_ AGT  --- 80 cbr 230 [5 2 1 0] ------- [0:0 2:0 29 2] [40] 2 0
s 2.296000000 _0_ AGT  --- 82 cbr 210 [0 0 0 0] ------- [0:0 2:0 32 0] [41] 0 0
s 2.296000000 _3_ AGT  --- 83 cbr 210 [0 0 0 0] ------- [3:0 4:0 32 0] [41] 0 0
r 2.299153400 _4_ AGT  --- 83 cbr 230 [5 4 3 0] ------- [3:0 4:0 30 4] [41] 1 0
r 2.323153767 _2_ AGT  --- 82 cbr 230 [5 2 1 0] ------- [0:0 2:0 29 2] [41] 2 0
s 2.352000000 _0_ AGT  --- 84 cbr 210 [0 0 0 0] ------- [0:0 2:0 32 0] [42] 0 0
s 2.352000000 _3_ AGT  --- 85 cbr 210 [0 0 0 0] ------- [3:0 4:0 32 0] [42] 0 0
r 2.371153400 _4_ AGT  --- 85 cbr 230 [5 4 3 0] ------- [3:0 4:0 30 4] [42] 1 0
r 2.371153767 _2_ AGT  --- 84 cbr 230 [5 2 1 0] ------- [0:0 2:0 29 2] [42] 2 0
s 2.408000000 _0_ AGT  --- 86 cbr 210 [0 0 0 0] ------- [0:0 2:0 32 0] [43] 0 0
s 2.408000000 _3_ AGT  --- 87 cbr 210 [0 0 0 0] ------- [3:0 4:0 32 0] [43] 0 0
r 2.419153400 _4_ AGT  --- 87 cbr 230 [5 4 3 0] ------- [3:0 4:0 30 4] [43] 1 0
r 2.419153767 _2_ AGT  --- 86 cbr 230 [5 2 1 0] ------- [0:0 2:0 29 2] [43] 2 0
s 2.464000000 _0_ AGT  --- 88 cbr 210 [0 0 0 0] ------- [0:0 2:0 32 0] [44] 0 0
s 2.464000000 _3_ AGT  --- 89 cbr 210 [0 0 0 0] ------- [3:0 4:0 32 0] [44] 0 0
r 2.467153400 _4_ AGT  --- 89 cbr 230 [5 4 3 0] ------- [3:0 4:0 30 4] [44] 1 0
r 2.491153767 _2_ AGT  --- 88 cbr 230 [5 2 1 0] ------- [0:0 2:0 29 2] [44] 2 0
s 2.520000000 _0_ AGT  --- 90 cbr 210 [0 0 0 0] ------- [0:0 2:0 32 0] [45] 0 0
s 2.520000000 _3_ AGT  --- 91 cbr 210 [0 0 0 0] ------- [3:0 4:0 32 0] [45] 0 0
r 2.539153400 _4_ AGT  --- 91 cbr 230 [5 4 3 0] ------- [3:0 4:0 30 4] [45] 1 0
r 2.539153767 _2_ AGT  --- 90 cbr 230 [5 2 1 0] ------- [0:0 2:0 29 2] [45] 2 0
s 2.576000000 _0_ AGT  --- 92 cbr 210 [0 0 0 0] ------- [0:0 2:0 32 0] [46] 0 0
s 2.576000000 _3_ AGT  --- 93 cbr 210 [0 0 0 0] ------- [3:0 4:0 32 0] [46] 0 0
r 2.587153400 _4_ AGT  --- 93 cbr 230 [5 4 3 0] ------- [3:0 4:0 30 4] [46] 1 0
r 2.587153767 _2_ AGT  --- 92 cbr 230 [5 2 1 0] ------- [0:0 2:0 29 2] [46] 2 0
s 2.632000000 _0_ AGT  --- 94 cbr 210 [0 0 0 0] ------- [0:0 2:0 32 0] [47] 0 0
s 2.632000000 _3_ AGT  --- 95 cbr 210 [0 0 0 0] ------- [3:0 4:0 32 0] [47] 0 0
r 2.635153400 _4_ AGT  --- 95 cbr 230 [5 4 3 0] ------- [3:0 4:0 30 4] [47] 1 0
r 2.659153767 _2_ AGT  --- 94 cbr 230 [5 2 1 0] ------- [0:0 2:0 29 2] [47] 2 0
s 2.688000000 _0_ AGT  --- 96 cbr 210 [0 0 0 0] ------- [0:0 2:0 32 0] [48] 0 0
s 2.688000000 _3_ AGT  --- 97 cbr 210 [0 0 0 0] ------- [3:0 4:0 32 0] [48] 0 0
r 2.707153400 _4_ AGT  --- 97 cbr 230 [5 4 3 0] ------- [3:0 4:0 30 4] [48] 1 0
r 2.707153767 _2_ AGT  --- 96 cbr 230 [5 2 1 0] ------- [0:0 2:0 29 2] [48] 2 0
s 2.744000000 _0_ AGT  --- 98 cbr 210 [0 0 0 0] ------- [0:0 2:0 32 0] [49] 0 0
s 2.744000000 _3_ AGT  --- 99 cbr 210 [0 0 0 0] ------- [3:0 4:0 32 0] [49] 0 0
r 2.755153400 _4_ AGT  --- 99 cbr 230 [5 4 3 0] ------- [3:0 4:0 30 4] [49] 1 0
r 2.755153767 _2_ AGT  --- 98 cbr 230 [5 2 1 0] ------- [0:0 2:0 29 2] [49] 2 0
s 2.800000000 _0_ AGT  --- 100 cbr 210 [0 0 0 0] ------- [0:0 2:0 32 0] [50] 0 0
s 2.800000000 _3_ AGT  --- 101 cbr 210 [0 0 0 0] ------- [3:0 4:0 32 0] [50] 0 0
r 2.803153400 _4_ AGT  --- 101 cbr 230 [5 4 3 0] ------- [3:0 4:0 30 4] [50] 1 0
r 2.827153767 _2_ AGT  --- 100 cbr 230 [5 2 1 0] ------- [0:0 2:0 29 2] [50] 2 0
s 2.856000000 _0_ AGT  --- 102 cbr 210 [0 0 0 0] ------- [0:0 2:0 32 0] [51] 0 0
s 2.856000000 _3_ AGT  --- 103 cbr 210 [0 0 0 0] ------- [3:0 4:0 32 0] [51] 0 0
r 2.875153400 _4_ AGT  --- 103 cbr 230 [5 4 3 0] ------- [3:0 4:0 30 4] [51] 1 0
r 2.875153767 _2_ AGT  --- 102 cbr 230 [5 2 1 0] ------- [0:0 2:0 29 2] [51] 2 0
s 2.912000000 _0_ AGT  --- 104 cbr 210 [0 0 0 0] ------- [0:0 2:0 32 0] [52] 0 0
s 2.912000000 _3_ AGT  --- 105 cbr 210 [0 0 0 0] ------- [3:0 4:0 32 0] [52] 0 0
r 2.923153400 _4_ AGT  --- 105 cbr 230 [5 4 3 0] ------- [3:0 4:0 30 4] [52] 1 0
r 2.923153767 _2_ AGT  --- 104 cbr 230 [5 2 1 0] ------- [0:0 2:0 29 2] [52] 2 0
s 2.968000000 _0_ AGT  --- 106 cbr 210 [0 0 0 0] ------- [0:0 2:0 32 0] [53] 0 0
s 2.968000000 _3_ AGT  --- 107 cbr 210 [0 0 0 0] ------- [3:0 4:0 32 0] [53] 0 0
r 2.971153400 _4_ AGT  --- 107 cbr 230 [5 4 3 0] ------- [3:0 4:0 30 4] [53] 1 0
r 2.995153767 _2_ AGT  --- 106 cbr 230 [5 2 1 0] ------- [0:0 2:0 29 2] [53] 2 0
s 3.024000000 _0_ AGT  --- 108 cbr 210 [0 0 0 0] ------- [0:0 2:0 32 0] [54] 0 0
s 3.024000000 _3_ AGT  --- 109 cbr 210 [0 0 0 0] ------- [3:0 4:0 32 0] [54] 0 0
r 3.043153400 _4_ AGT  --- 109 cbr 230 [5 4 3 0] ------- [3:0 4:0 30 4] [54] 1 0
r 3.043153767 _2_ AGT  --- 108 cbr 230 [5 2 1 0] ------- [0:0 2:0 29 2] [54] 2 0
s 3.080000000 _0_ AGT  --- 110 cbr 210 [0 0 0 0] ------- [0:0 2:0 32 0] [55] 0 0
s 3.080000000 _3_ AGT  --- 111 cbr 210 [0 0 0 0] ------- [3:0 4:0 32 0] [55] 0 0
r 3.091153400 _4_ AGT  --- 111 cbr 230 [5 4 3 0] ------- [3:0 4:0 30 4] [55] 1 0
r 3.091153767 _2_ AGT  --- 110 cbr 230 [5 2 1 0] ------- [0:0 2:0 29 2] [55] 2 0
s 3.136000000 _0_ AGT  --- 112 cbr 210 [0 0 0 0] ------- [0:0 2:0 32 0] [56] 0 0
s 3.136000000 _3_ AGT  --- 113 cbr 210 [0 0 0 0] ------- [3:0 4:0 32 0] [56] 0 0
r 3.139153400 _4_ AGT  --- 113 cbr 230 [5 4 3 0] ------- [3:0 4:0 30 4] [56] 1 0
r 3.163153767 _2_ AGT  --- 112 cbr 230 [5 2 1 0] ------- [0:0 2:0 29 2] [56] 2 0
s 3.192000000 _0_ AGT  --- 114 cbr 210 [0 0 0 0] ------- [0:0 2:0 32 0] [57] 0 0
s 3.192000000 _3_ AGT  --- 115 cbr 210 [0 0 0 0] ------- [3:0 4:0 32 0] [57] 0 0
r 3.211153400 _4_ AGT  --- 115 cbr 230 [5 4 3 0] ------- [3:0 4:0 30 4] [57] 1 0
r 3.211153767 _2_ AGT  --- 114 cbr 230 [5 2 1 0] ------- [0:0 2:0 29 2] [57] 2 0
s 3.248000000 _0_ AGT  --- 116 cbr 210 [0 0 0 0] ------- [0:0 2:0 32 0] [58] 0 0
s 3.248000000 _3_ AGT  --- 117 cbr 210 [0 0 0 0] ------- [3:0 4:0 32 0] [58] 0 0
r 3.259153400 _4_ AGT  --- 117 cbr 230 [5 4 3 0] ------- [3:0 4:0 30 4] [58] 1 0
r 3.259153767 _2_ AGT  --- 116 cbr 230 [5 2 1 0] ------- [0:0 2:0 29 2] [58] 2 0
s 3.304000000 _0_ AGT  --- 118 cbr 210 [0 0 0 0] ------- [0:0 2:0 32 0] [59] 0 0
s 3.304000000 _3_ AGT  --- 119 cbr 210 [0 0 0 0] ------- [3:0 4:0 32 0] [59] 0 0
r 3.307153400 _4_ AGT  --- 119 cbr 230 [5 4 3 0] ------- [3:0 4:0 30 4] [59] 1 0
r 3.331153767 _2_ AGT  --- 118 cbr 230 [5 2 1 0] ------- [0:0 2:0 29 2] [59] 2 0
s 3.360000000 _0_ AGT  --- 120 cbr 210 [0 0 0 0] ------- [0:0 2:0 32 0] [60] 0 0
s 3.360000000 _3_ AGT  --- 121 cbr 210 [0 0 0 0] ------- [3:0 4:0 32 0] [60] 0 0
r 3.379153400 _4_ AGT  --- 121 cbr 230 [5 4 3 0] ------- [3:0 4:0 30 4] [60] 1 0
r 3.379153767 _2_ AGT  --- 120 cbr 230 [5 2 1 0] ------- [0:0 2:0 29 2] [60] 2 0
s 3.416000000 _0_ AGT  --- 122 cbr 210 [0 0 0 0] ------- [0:0 2:0 32 0] [61] 0 0
s 3.416000000 _3_ AGT  --- 123 cbr 210 [0 0 0 0] ------- [3:0 4:0 32 0] [61] 0 0
r 3.427153400 _4_ AGT  --- 123 cbr 230 [5 4 3 0] ------- [3:0 4:0 30 4] [61] 1 0
r 3.427153767 _2_ AGT  --- 122 cbr 230 [5 2 1 0] ------- [0:0 2:0 29 2] [61] 2 0
s 3.472000000 _0_ AGT  --- 124 cbr 210 [0 0 0 0] ------- [0:0 2:0 32 0] [62] 0 0
s 3.472000000 _3_ AGT  --- 125 cbr 210 [0 0 0 0] ------- [3:0 4:0 32 0] [62] 0 0
r 3.475153400 _4_ AGT  --- 125 cbr 230 [5 4 3 0] ------- [3:0 4:0 30 4] [62] 1 0
r 3.499153767 _2_ AGT  --- 124 cbr 230 [5 2 1 0] ------- [0:0 2:0 29 2] [62] 2 0
s 3.528000000 _0_ AGT  --- 126 cbr 210 [0 0 0 0] ------- [0:0 2:0 32 0] [63] 0 0
s 3.528000000 _3_ AGT  --- 127 cbr 210 [0 0 0 0] ------- [3:0 4:0 32 0] [63] 0 0
r 3.547153400 _4_ AGT  --- 127 cbr 230 [5 4 3 0] ------- [3:0 4:0 30 4] [63] 1 0
r 3.547153767 _2_ AGT  --- 126 cbr 230 [5 2 1 0] ------- [0:0 2:0 29 2] [63] 2 0
s 3.584000000 _0_ AGT  --- 128 cbr 210 [0 0 0 0] ------- [0:0 2:0 32 0] [64] 0 0
s 3.584000000 _3_ AGT  --- 129 cbr 210 [0 0 0 0] ------- [3:0 4:0 32 0] [64] 0 0
r 3.595153400 _4_ AGT  --- 129 cbr 230 [5 4 3 0] ------- [3:0 4:0 30 4] [64] 1 0
r 3.595153767 _2_ AGT  --- 128 cbr 230 [5 2 1 0] ------- [0:0 2:0 29 2] [64] 2 0
s 3.640000000 _0_ AGT  --- 130 cbr 210 [0 0 0 0] ------- [0:0 2:0 32 0] [65] 0 0
s 3.640000000 _3_ AGT  --- 131 cbr 210 [0 0 0 0] ------- [3:0 4:0 32 0] [65] 0 0
r 3.643153400 _4_ AGT  --- 131 cbr 230 [5 4 3 0] ------- [3:0 4:0 30 4] [65] 1 0
r 3.667153767 _2_ AGT  --- 130 cbr 230 [5 2 1 0] ------- [0:0 2:0 29 2] [65] 2 0
s 3.696000000 _0_ AGT  --- 132 cbr 210 [0 0 0 0] ------- [0:0 2:0 32 0] [66] 0 0
s 3.696000000 _3_ AGT  --- 133 cbr 210 [0 0 0 0] ------- [3:0 4:0 32 0] [66] 0 0
r 3.715153400 _4_ AGT  --- 133 cbr 230 [5 4 3 0] ------- [3:0 4:0 30 4] [66] 1 0
r 3.715153767 _2_ AGT  --- 132 cbr 230 [5 2 1 0] ------- [0:0 2:0 29 2] [66] 2 0
s 3.752000000 _0_ AGT  --- 134 cbr 210 [0 0 0 0] ------- [0:0 2:0 32 0] [67] 0 0
s 3.752000000 _3_ AGT  --- 135 cbr 210 [0 0 0 0] ------- [3:0 4:0 32 0] [67] 0 0
r 3.763153400 _4_ AGT  --- 135 cbr 230 [5 4 3 0] ------- [3:0 4:0 30 4] [67] 1 0
r 3.763153767 _2_ AGT  --- 134 cbr 230 [5 2 1 0] ------- [0:0 2:0 29 2] [67] 2 0
s 3.808000000 _0_ AGT  --- 136 cbr 210 [0 0 0 0] ------- [0:0 2:0 32 0] [68] 0 0
s 3.808000000 _3_ AGT  --- 137 cbr 210 [0 0 0 0] ------- [3:0 4:0 32 0] [68] 0 0
r 3.811153400 _4_ AGT  --- 137 cbr 230 [5 4 3 0] ------- [3:0 4:0 30 4] [68] 1 0
r 3.835153767 _2_ AGT  --- 136 cbr 230 [5 2 1 0] ------- [0:0 2:0 29 2] [68] 2 0
s 3.864000000 _0_ AGT  --- 138 cbr 210 [0 0 0 0] ------- [0:0 2:0 32 0] [69] 0 0
s 3.864000000 _3_ AGT  --- 139 cbr 210 [0 0 0 0] ------- [3:0 4:0 32 0] [69] 0 0
r 3.883153400 _4_ AGT  --- 139 cbr 230 [5 4 3 0] ------- [3:0 4:0 30 4] [69] 1 0
r 3.883153767 _2_ AGT  --- 138 cbr 230 [5 2 1 0] ------- [0:0 2:0 29 2] [69] 2 0
s 3.920000000 _0_ AGT  --- 140 cbr 210 [0 0 0 0] ------- [0:0 2:0 32 0] [70] 0 0
s 3.920000000 _3_ AGT  --- 141 cbr 210 [0 0 0 0] ------- [3:0 4:0 32 0] [70] 0 0
r 3.931153400 _4_ AGT  --- 141 cbr 230 [5 4 3 0] ------- [3:0 4:0 30 4] [70] 1 0
r 3.931153767 _2_ AGT  --- 140 cbr 230 [5 2 1 0] ------- [0:0 2:0 29 2] [70] 2 0
s 3.976000000 _0_ AGT  --- 142 cbr 210 [0 0 0 0] ------- [0:0 2:0 32 0] [71] 0 0
s 3.976000000 _3_ AGT  --- 143 cbr 210 [0 0 0 0] ------- [3:0 4:0 32 0] [71] 0 0
r 3.979153400 _4_ AGT  --- 143 cbr 230 [5 4 3 0] ------- [3:0 4:0 30 4] [71] 1 0
r 4.003153767 _2_ AGT  --- 142 cbr 230 [5 2 1 0] ------- [0:0 2:0 29 2] [71] 2 0
s 4.032000000 _0_ AGT  --- 144 cbr 210 [0 0 0 0] ------- [0:0 2:0 32 0] [72] 0 0
s 4.032000000 _3_ AGT  --- 145 cbr 210 [0 0 0 0] ------- [3:0 4:0 32 0] [72] 0 0
r 4.051153400 _4_ AGT  --- 145 cbr 230 [5 4 3 0] ------- [3:0 4:0 30 4] [72] 1 0
r 4.051153767 _2_ AGT  --- 144 cbr 230 [5 2 1 0] ------- [0:0 2:0 29 2] [72] 2 0
s 4.088000000 _0_ AGT  --- 146 cbr 210 [0 0 0 0] ------- [0:0 2:0 32 0] [73] 0 0
s 4.088000000 _3_ AGT  --- 147 cbr 210 [0 0 0 0] ------- [3:0 4:0 32 0] [73] 0 0
r 4.099153400 _4_ AGT  --- 147 cbr 230 [5 4 3 0] ------- [3:0 4:0 30 4] [73] 1 0
r 4.099153767 _2_ AGT  --- 146 cbr 230 [5 2 1 0] ------- [0:0 2:0 29 2] [73] 2 0
s 4.144000000 _0_ AGT  --- 148 cbr 210 [0 0 0 0] ------- [0:0 2:0 32 0] [74] 0 0
s 4.144000000 _3_ AGT  --- 149 cbr 210 [0 0 0 0] ------- [3:0 4:0 32 0] [74] 0 0
r 4.147153400 _4_ AGT  --- 149 cbr 230 [5 4 3 0] ------- [3:0 4:0 30 4] [74] 1 0
r 4.171153767 _2_ AGT  --- 148 cbr 230 [5 2 1 0] ------- [0:0 2:0 29 2] [74] 2 0
s 4.200000000 _0_ AGT  --- 150 cbr 210 [0 0 0 0] ------- [0:0 2:0 32 0] [75] 0 0
s 4.200000000 _3_ AGT  --- 151 cbr 210 [0 0 0 0] ------- [3:0 4:0 32 0] [75] 0 0
r 4.219153400 _4_ AGT  --- 151 cbr 230 [5 4 3 0] ------- [3:0 4:0 30 4] [75] 1 0
r 4.219153767 _2_ AGT  --- 150 cbr 230 [5 2 1 0] ------- [0:0 2:0 29 2] [75] 2 0
s 4.256000000 _0_ AGT  --- 152 cbr 210 [0 0 0 0] ------- [0:0 2:0 32 0] [76] 0 0
s 4.256000000 _3_ AGT  --- 153 cbr 210 [0 0 0 0] ------- [3:0 4:0 32 0] [76] 0 0
r 4.267153400 _4_ AGT  --- 153 cbr 230 [5 4 3 0] ------- [3:0 4:0 30 4] [76] 1 0
r 4.267153767 _2_ AGT  --- 152 cbr 230 [5 2 1 0] ------- [0:0 2:0 29 2] [76] 2 0
s 4.312000000 _0_ AGT  --- 154 cbr 210 [0 0 0 0] ------- [0:0 2:0 32 0] [77] 0 0
s 4.312000000 _3_ AGT  --- 155 cbr 210 [0 0 0 0] ------- [3:0 4:0 32 0] [77] 0 0
r 4.315153400 _4_ AGT  --- 155 cbr 230 [5 4 3 0] ------- [3:0 4:0 30 4] [77] 1 0
r 4.339153767 _2_ AGT  --- 154 cbr 230 [5 2 1 0] ------- [0:0 2:0 29 2] [77] 2 0
s 4.368000000 _0_ AGT  --- 156 cbr 210 [0 0 0 0] ------- [0:0 2:0 32 0] [78] 0 0
s 4.368000000 _3_ AGT  --- 157 cbr 210 [0 0 0 0] ------- [3:0 4:0 32 0] [78] 0 0
r 4.387153400 _4_ AGT  --- 157 cbr 230 [5 4 3 0] ------- [3:0 4:0 30 4] [78] 1 0
r 4.387153767 _2_ AGT  --- 156 cbr 230 [5 2 1 0] ------- [0:0 2:0 29 2] [78] 2 0
s 4.424000000 _0_ AGT  --- 158 cbr 210 [0 0 0 0] ------- [0:0 2:0 32 0] [79] 0 0
s 4.424000000 _3_ AGT  --- 159 cbr 210 [0 0 0 0] ------- [3:0 4:0 32 0] [79] 0 0
r 4.435153400 _4_ AGT  --- 159 cbr 230 [5 4 3 0] ------- [3:0 4:0 30 4] [79] 1 0
r 4.435153767 _2_ AGT  --- 158 cbr 230 [5 2 1 0] ------- [0:0 2:0 29 2] [79] 2 0
s 4.480000000 _0_ AGT  --- 160 cbr 210 [0 0 0 0] ------- [0:0 2:0 32 0] [80] 0 0
s 4.480000000 _3_ AGT  --- 161 cbr 210 [0 0 0 0] ------- [3:0 4:0 32 0] [80] 0 0
r 4.483153400 _4_ AGT  --- 161 cbr 230 [5 4 3 0] ------- [3:0 4:0 30 4] [80] 1 0
r 4.507153767 _2_ AGT  --- 160 cbr 230 [5 2 1 0] ------- [0:0 2:0 29 2] [80] 2 0
s 4.536000000 _0_ AGT  --- 162 cbr 210 [0 0 0 0] ------- [0:0 2:0 32 0] [81] 0 0
s 4.536000000 _3_ AGT  --- 163 cbr 210 [0 0 0 0] ------- [3:0 4:0 32 0] [81] 0 0
r 4.555153400 _4_ AGT  --- 163 cbr 230 [5 4 3 0] ------- [3:0 4:0 30 4] [81] 1 0
r 4.555153767 _2_ AGT  --- 162 cbr 230 [5 2 1 0] ------- [0:0 2:0 29 2] [81] 2 0
s 4.592000000 _0_ AGT  --- 164 cbr 210 [0 0 0 0] ------- [0:0 2:0 32 0] [82] 0 0
s 4.592000000 _3_ AGT  --- 165 cbr 210 [0 0 0 0] ------- [3:0 4:0 32 0] [82] 0 0
r 4.603153400 _4_ AGT  --- 165 cbr 230 [5 4 3 0] ------- [3:0 4:0 30 4] [82] 1 0
r 4.603153767 _2_ AGT  --- 164 cbr 230 [5 2 1 0] ------- [0:0 2:0 29 2] [82] 2 0
s 4.648000000 _0_ AGT  --- 166 cbr 210 [0 0 0 0] ------- [0:0 2:0 32 0] [83] 0 0
s 4.648000000 _3_ AGT  --- 167 cbr 210 [0 0 0 0] ------- [3:0 4:0 32 0] [83] 0 0
r 4.651153400 _4_ AGT  --- 167 cbr 230 [5 4 3 0] ------- [3:0 4:0 30 4] [83] 1 0
r 4.675153767 _2_ AGT  --- 166 cbr 230 [5 2 1 0] ------- [0:0 2:0 29 2] [83] 2 0
s 4.704000000 _0_ AGT  --- 168 cbr 210 [0 0 0 0] ------- [0:0 2:0 32 0] [84] 0 0
s 4.704000000 _3_ AGT  --- 169 cbr 210 [0 0 0 0] ------- [3:0 4:0 32 0] [84] 0 0
r 4.723153400 _4_ AGT  --- 169 cbr 230 [5 4 3 0] ------- [3:0 4:0 30 4] [84] 1 0
r 4.723153767 _2_ AGT  --- 168 cbr 230 [5 2 1 0] ------- [0:0 2:0 29 2] [84] 2 0
s 4.760000000 _0_ AGT  --- 170 cbr 210 [0 0 0 0] ------- [0:0 2:0 32 0] [85] 0 0
s 4.760000000 _3_ AGT  --- 171 cbr 210 [0 0 0 0] ------- [3:0 4:0 32 0] [85] 0 0
r 4.771153400 _4_ AGT  --- 171 cbr 230 [5 4 3 0] ------- [3:0 4:0 30 4] [85] 1 0
r 4.771153767 _2_ AGT  --- 170 cbr 230 [5 2 1 0] ------- [0:0 2:0 29 2] [85] 2 0
s 4.816000000 _0_ AGT  --- 172 cbr 210 [0 0 0 0] ------- [0:0 2:0 32 0] [86] 0 0
s 4.816000000 _3_ AGT  --- 173 cbr 210 [0 0 0 0] ------- [3:0 4:0 32 0] [86] 0 0
r 4.819153400 _4_ AGT  --- 173 cbr 230 [5 4 3 0] ------- [3:0 4:0 30 4] [86] 1 0
r 4.843153767 _2_ AGT  --- 172 cbr 230 [5 2 1 0] ------- [0:0 2:0 29 2] [86] 2 0
s 4.872000000 _0_ AGT  --- 174 cbr 210 [0 0 0 0] ------- [0:0 2:0 32 0] [87] 0 0
s 4.872000000 _3_ AGT  --- 175 cbr 210 [0 0 0 0] ------- [3:0 4:0 32 0] [87] 0 0
r 4.891153400 _4_ AGT  --- 175 cbr 230 [5 4 3 0] ------- [3:0 4:0 30 4] [87] 1 0
r 4.891153767 _2_ AGT  --- 174 cbr 230 [5 2 1 0] ------- [0:0 2:0 29 2] [87] 2 0
s 4.928000000 _0_ AGT  --- 176 cbr 210 [0 0 0 0] ------- [0:0 2:0 32 0] [88] 0 0
s 4.928000000 _3_ AGT  --- 177 cbr 210 [0 0 0 0] ------- [3:0 4:0 32 0] [88] 0 0
r 4.939153400 _4_ AGT  --- 177 cbr 230 [5 4 3 0] ------- [3:0 4:0 30 4] [88] 1 0
r 4.939153767 _2_ AGT  --- 176 cbr 230 [5 2 1 0] ------- [0:0 2:0 29 2] [88] 2 0
s 4.984000000 _0_ AGT  --- 178 cbr 210 [0 0 0 0] ------- [0:0 2:0 32 0] [89] 0 0
s 4.984000000 _3_ AGT  --- 179 cbr 210 [0 0 0 0] ------- [3:0 4:0 32 0] [89] 0 0
r 4.987153400 _4_ AGT  --- 179 cbr 230 [5 4 3 0] ------- [3:0 4:0 30 4] [89] 1 0
r 5.011153767 _2_ AGT  --- 178 cbr 230 [5 2 1 0] ------- [0:0 2:0 29 2] [89] 2 0
s 5.040000000 _0_ AGT  --- 180 cbr 210 [0 0 0 0] ------- [0:0 2:0 32 0] [90] 0 0
s 5.040000000 _3_ AGT  --- 181 cbr 210 [0 0 0 0] ------- [3:0 4:0 32 0] [90] 0 0
r 5.059153400 _4_ AGT  --- 181 cbr 230 [5 4 3 0] ------- [3:0 4:0 30 4] [90] 1 0
r 5.059153767 _2_ AGT  --- 180 cbr 230 [5 2 1 0] ------- [0:0 2:0 29 2] [90] 2 0
s 5.096000000 _0_ AGT  --- 182 cbr 210 [0 0 0 0] ------- [0:0 2:0 32 0] [91] 0 0
s 5.096000000 _3_ AGT  --- 183 cbr 210 [0 0 0 0] ------- [3:0 4:0 32 0] [91] 0 0
r 5.107153400 _4_ AGT  --- 183 cbr 230 [5 4 3 0] ------- [3:0 4:0 30 4] [91] 1 0
r 5.107153767 _2_ AGT  --- 182 cbr 230 [5 2 1 0] ------- [0:0 2:0 29 2] [91] 2 0
s 5.152000000 _0_ AGT  --- 184 cbr 210 [0 0 0 0] ------- [0:0 2:0 32 0] [92] 0 0
s 5.152000000 _3_ AGT  --- 185 cbr 210 [0 0 0 0] ------- [3:0 4:0 32 0] [92] 0 0
r 5.155153400 _4_ AGT  --- 185 cbr 230 [5 4 3 0] ------- [3:0 4:0 30 4] [92] 1 0
r 5.179153767 _2_ AGT  --- 184 cbr 230 [5 2 1 0] ------- [0:0 2:0 29 2] [92] 2 0
s 5.208000000 _0_ AGT  --- 186 cbr 210 [0 0 0 0] ------- [0:0 2:0 32 0] [93] 0 0