Sconfig 0.00000 tap: on snoop: rts? on errs? on
Sconfig 0.00000 salvage: on !bd replies? on
Sconfig 0.00000 grat error: on grat reply: on
Sconfig 0.00000 $reply for props: on ring 0 search: on
Sconfig 0.00000 using MOBICACHE
s 17.208000000 _2_ MAC  --- 0 SYNC 9 [0.13 2 2] 
s 17.221000000 _9_ MAC  --- 0 SYNC 9 [0.12 9 9] 
s 17.223000000 _5_ MAC  --- 0 SYNC 9 [0.11 5 5] 
D 17.226000667 _4_ MAC  SLP 0 SYNC 9 [0.11 5 5] 
s 18.644000000 _4_ MAC  --- 0 SYNC 9 [0.13 4 4] 
s 18.647000000 _7_ MAC  --- 0 SYNC 9 [0.12 7 7] 
D 18.650000667 _6_ MAC  COL 0 SYNC 9 [0.12 7 7] 
s 18.659000667 _1_ MAC  --- 0 SYNC 9 [0.11 1 2] 
s 20.080000667 _5_ MAC  --- 0 SYNC 9 [0.12 5 4] 
s 20.096001333 _0_ MAC  --- 0 SYNC 9 [0.11 0 1] 
s 20.096001333 _2_ MAC  --- 0 SYNC 9 [0.11 2 1] 
D 20.096002000 _1_ MAC  COL 0 SYNC 9 [0.11 2 1] 
D 20.099002000 _1_ MAC  COL 0 SYNC 9 [0.11 0 1] 
D 20.099002000 _3_ MAC  SLP 0 SYNC 9 [0.11 2 1] 
s 20.100000667 _8_ MAC  --- 0 SYNC 9 [0.10 8 9] 
s 21.511000667 _8_ MAC  --- 0 SYNC 9 [0.12 8 9] 
s 21.518000667 _3_ MAC  --- 0 SYNC 9 [0.12 3 2] 
s 22.939001333 _9_ MAC  --- 0 SYNC 9 [0.13 9 8] 
s 22.943001333 _6_ MAC  --- 0 SYNC 9 [0.13 6 5] 
D 22.946002000 _7_ MAC  SLP 0 SYNC 9 [0.13 6 5] 
s 22.952000667 _3_ MAC  --- 0 SYNC 9 [0.12 3 2] 
D 22.955001333 _4_ MAC  SLP 0 SYNC 9 [0.12 3 2] 
s 24.385001333 _7_ MAC  --- 0 SYNC 9 [0.12 7 8] 
s 24.396001333 _4_ MAC  --- 0 SYNC 9 [0.11 4 5] 
s 25.808001333 _4_ MAC  --- 0 SYNC 9 [0.13 4 5] 
s 27.257002000 _6_ MAC  --- 0 SYNC 9 [0.11 6 5] 
s 28.696002000 _7_ MAC  --- 0 SYNC 9 [0.10 7 8] 
s 32.989000667 _1_ MAC  --- 0 SYNC 9 [0.11 1 2] 
s 34.402002000 _8_ MAC  --- 0 SYNC 9 [0.13 8 9] 
s 34.410002000 _5_ MAC  --- 0 SYNC 9 [0.12 5 4] 
s 34.416001333 _0_ MAC  --- 0 SYNC 9 [0.12 0 1] 
s 35.836000667 _3_ MAC  --- 0 SYNC 9 [0.13 3 2] 
s 35.851002000 _8_ MAC  --- 0 SYNC 9 [0.11 8 9] 
s 37.270002667 _6_ MAC  --- 0 SYNC 9 [0.13 6 5] 
s 37.271002667 _9_ MAC  --- 0 SYNC 9 [0.13 9 8] 
D 37.274003333 _8_ MAC  COL 0 SYNC 9 [0.13 9 8] 
s 37.290002000 _3_ MAC  --- 0 SYNC 9 [0.11 3 2] 
s 38.707002667 _7_ MAC  --- 0 SYNC 9 [0.12 7 8] 
s 38.717001333 _2_ MAC  --- 0 SYNC 9 [0.11 2 1] 
s 40.154001333 _4_ MAC  --- 0 SYNC 9 [0.11 4 5] 
s 41.574002667 _4_ MAC  --- 0 SYNC 9 [0.12 4 5] 
s 43.003003333 _6_ MAC  --- 0 SYNC 9 [0.13 6 5] 
s 44.454003333 _7_ MAC  --- 0 SYNC 9 [0.11 7 8] 
s 47.326002000 _1_ MAC  --- 0 SYNC 9 [0.10 1 2] 
s 48.738002667 _0_ MAC  --- 0 SYNC 9 [0.12 0 1] 
s 48.745003333 _5_ MAC  --- 0 SYNC 9 [0.12 5 4] 
s 48.762002000 _8_ MAC  --- 0 SYNC 9 [0.10 8 9] 
s 50.179002000 _3_ MAC  --- 0 SYNC 9 [0.12 3 2] 
s 50.184003333 _8_ MAC  --- 0 SYNC 9 [0.11 8 9] 
s 51.618003333 _3_ MAC  --- 0 SYNC 9 [0.11 3 2] 
s 51.620004000 _6_ MAC  --- 0 SYNC 9 [0.11 6 5] 
D 51.623004667 _5_ MAC  COL 0 SYNC 9 [0.11 6 5] 
s 51.626002667 _9_ MAC  --- 0 SYNC 9 [0.10 9 8] 
s 53.052002667 _7_ MAC  --- 0 SYNC 9 [0.11 7 8] 
s 53.057002667 _2_ MAC  --- 0 SYNC 9 [0.10 2 1] 
s 54.494002667 _4_ MAC  --- 0 SYNC 9 [0.10 4 5] 
s 55.903004000 _4_ MAC  --- 0 SYNC 9 [0.12 4 5] 
s 57.357003333 _6_ MAC  --- 0 SYNC 9 [0.10 6 5] 
s 58.786004667 _7_ MAC  --- 0 SYNC 9 [0.11 7 8] 
s 61.647003333 _1_ MAC  --- 0 SYNC 9 [0.11 1 2] 
s 63.083004667 _5_ MAC  --- 0 SYNC 9 [0.11 5 4] 
s 63.085003333 _8_ MAC  --- 0 SYNC 9 [0.11 8 9] 
D 63.088004000 _7_ MAC  COL 0 SYNC 9 [0.11 8 9] 
s 63.090004000 _0_ MAC  --- 0 SYNC 9 [0.10 0 1] 
s 64.496003333 _3_ MAC  --- 0 SYNC 9 [0.13 3 2] 
s 64.497003333 _8_ MAC  --- 0 SYNC 9 [0.13 8 9] 
s 65.940005333 _6_ MAC  --- 0 SYNC 9 [0.12 6 5] 
s 65.941004667 _3_ MAC  --- 0 SYNC 9 [0.12 3 2] 
D 65.944005333 _4_ MAC  COL 0 SYNC 9 [0.12 3 2] 
s 65.948004000 _9_ MAC  --- 0 SYNC 9 [0.11 9 8] 
s 67.369004000 _7_ MAC  --- 0 SYNC 9 [0.12 7 8] 
s 67.389004000 _2_ MAC  --- 0 SYNC 9 [0.10 2 1] 
s 68.813004000 _4_ MAC  --- 0 SYNC 9 [0.11 4 5] 
s 70.228005333 _4_ MAC  --- 0 SYNC 9 [0.13 4 5] 
s 71.663004667 _6_ MAC  --- 0 SYNC 9 [0.13 6 5] 
s 73.119006000 _7_ MAC  --- 0 SYNC 9 [0.10 7 8] 
s 75.976004667 _1_ MAC  --- 0 SYNC 9 [0.11 1 2] 
s 77.394006000 _5_ MAC  --- 0 SYNC 9 [0.13 5 4] 
s 77.408005333 _0_ MAC  --- 0 SYNC 9 [0.11 0 1] 
s 77.421004667 _8_ MAC  --- 0 SYNC 9 [0.10 8 9] 
s 78.831004667 _8_ MAC  --- 0 SYNC 9 [0.12 8 9] 
s 78.854004667 _3_ MAC  --- 0 SYNC 9 [0.10 3 2] 
s 80.266006667 _6_ MAC  --- 0 SYNC 9 [0.12 6 5] 
s 80.268005333 _9_ MAC  --- 0 SYNC 9 [0.12 9 8] 
D 80.271006000 _8_ MAC  COL 0 SYNC 9 [0.12 9 8] 
s 80.277006000 _3_ MAC  --- 0 SYNC 9 [0.11 3 2] 
s 81.694005333 _7_ MAC  --- 0 SYNC 9 [0.13 7 8] 
s 81.716005333 _2_ MAC  --- 0 SYNC 9 [0.11 2 1] 
s 83.137005333 _4_ MAC  --- 0 SYNC 9 [0.12 4 5] 
s 84.582006667 _4_ MAC  --- 0 SYNC 9 [0.11 4 5] 
s 85.990006000 _6_ MAC  --- 0 SYNC 9 [0.13 6 5] 
s 87.437007333 _7_ MAC  --- 0 SYNC 9 [0.12 7 8] 
s 90.301006000 _1_ MAC  --- 0 SYNC 9 [0.12 1 2] 
s 91.726006667 _0_ MAC  --- 0 SYNC 9 [0.13 0 1] 
s 91.738004667 _8_ MAC  --- 0 SYNC 9 [0.11 8 9] 
s 91.740007333 _5_ MAC  --- 0 SYNC 9 [0.11 5 4] 
D 91.743008000 _6_ MAC  COL 0 SYNC 9 [0.11 5 4] 
s 93.159006000 _8_ MAC  --- 0 SYNC 9 [0.13 8 9] 
s 93.167006000 _3_ MAC  --- 0 SYNC 9 [0.12 3 2] 
s 94.602007333 _3_ MAC  --- 0 SYNC 9 [0.12 3 2] 
s 94.611005333 _9_ MAC  --- 0 SYNC 9 [0.11 9 8] 
s 94.618006667 _6_ MAC  --- 0 SYNC 9 [0.10 6 5] 
s 96.030005333 _7_ MAC  --- 0 SYNC 9 [0.12 7 8] 
s 96.042006667 _2_ MAC  --- 0 SYNC 9 [0.11 2 1] 
s 97.459006667 _4_ MAC  --- 0 SYNC 9 [0.13 4 5] 
s 98.911008000 _4_ MAC  --- 0 SYNC 9 [0.11 4 5] 
s 100.000000000 _0_ AGT  --- 0 cbr 50 [0.00 0 0] ------- [0:0 9:0 32 0] [0] 0 0
r 100.000000000 _0_ RTR  --- 0 cbr 50 [0.00 0 0] ------- [0:0 9:0 32 0] [0] 0 0
s 100.005498391 _0_ RTR  --- 1 DSR 32 [0.00 0 0] ------- [0:255 9:255 32 0] 1 [1 1] [0 1 0 0->0] [0 0 0 0->0]
s 100.063887377 _0_ RTR  --- 3 DSR 32 [0.00 0 0] ------- [0:255 9:255 32 0] 1 [1 2] [0 2 0 0->0] [0 0 0 0->0]
s 100.336006000 _6_ MAC  --- 0 SYNC 9 [0.11 6 5] 
s 100.407206667 _0_ MAC  --- 1 DSR 32 [0.00 -1 0] ------- [0:255 9:255 32 0] 1 [1 1] [0 1 0 0->0] [0 0 0 0->0]
r 100.450207333 _1_ MAC  --- 1 DSR 32 [0.00 -1 0] ------- [0:255 9:255 32 0] 1 [1 1] [0 1 0 0->0] [0 0 0 0->0]
r 100.450232333 _1_ RTR  --- 1 DSR 32 [0.00 -1 0] ------- [0:255 9:255 32 0] 1 [1 1] [0 1 0 0->0] [0 0 0 0->0]
s 101.782007333 _7_ MAC  --- 0 SYNC 9 [0.10 7 8] 
s 101.837206667 _0_ MAC  --- 3 DSR 32 [0.00 -1 0] ------- [0:255 9:255 32 0] 1 [1 2] [0 2 0 0->0] [0 0 0 0->0]
r 101.880207333 _1_ MAC  --- 3 DSR 32 [0.00 -1 0] ------- [0:255 9:255 32 0] 1 [1 2] [0 2 0 0->0] [0 0 0 0->0]
r 101.880232333 _1_ RTR  --- 3 DSR 32 [0.00 -1 0] ------- [0:255 9:255 32 0] 1 [1 2] [0 2 0 0->0] [0 0 0 0->0]
f 101.885178770 _1_ RTR  --- 3 DSR 48 [0.00 -1 0] ------- [0:255 9:255 32 0] 2 [1 2] [0 2 0 0->0] [0 0 0 0->0]
s 103.249207333 _1_ MAC  --- 3 DSR 48 [0.00 -1 1] ------- [0:255 9:255 32 0] 2 [1 2] [0 2 0 0->0] [0 0 0 0->0]
r 103.292208000 _0_ MAC  --- 3 DSR 48 [0.00 -1 1] ------- [0:255 9:255 32 0] 2 [1 2] [0 2 0 0->0] [0 0 0 0->0]
r 103.292208000 _2_ MAC  --- 3 DSR 48 [0.00 -1 1] ------- [0:255 9:255 32 0] 2 [1 2] [0 2 0 0->0] [0 0 0 0->0]
r 103.292233000 _0_ RTR  --- 3 DSR 48 [0.00 -1 1] ------- [0:255 9:255 32 0] 2 [1 2] [0 2 0 0->0] [0 0 0 0->0]
r 103.292233000 _2_ RTR  --- 3 DSR 48 [0.00 -1 1] ------- [0:255 9:255 32 0] 2 [1 2] [0 2 0 0->0] [0 0 0 0->0]
f 103.292401070 _2_ RTR  --- 3 DSR 68 [0.00 -1 1] ------- [0:255 9:255 32 0] 3 [1 2] [0 2 0 0->0] [0 0 0 0->0]
s 104.630007333 _1_ MAC  --- 0 SYNC 9 [0.12 1 2] 
s 104.732208000 _2_ MAC  --- 3 DSR 68 [0.00 -1 2] ------- [0:255 9:255 32 0] 3 [1 2] [0 2 0 0->0] [0 0 0 0->0]
r 104.775208667 _1_ MAC  --- 3 DSR 68 [0.00 -1 2] ------- [0:255 9:255 32 0] 3 [1 2] [0 2 0 0->0] [0 0 0 0->0]
r 104.775208667 _3_ MAC  --- 3 DSR 68 [0.00 -1 2] ------- [0:255 9:255 32 0] 3 [1 2] [0 2 0 0->0] [0 0 0 0->0]
r 104.775233667 _1_ RTR  --- 3 DSR 68 [0.00 -1 2] ------- [0:255 9:255 32 0] 3 [1 2] [0 2 0 0->0] [0 0 0 0->0]
r 104.775233667 _3_ RTR  --- 3 DSR 68 [0.00 -1 2] ------- [0:255 9:255 32 0] 3 [1 2] [0 2 0 0->0] [0 0 0 0->0]
f 104.776770195 _3_ RTR  --- 3 DSR 92 [0.00 -1 2] ------- [0:255 9:255 32 0] 4 [1 2] [0 2 0 0->0] [0 0 0 0->0]
s 106.055007333 _5_ MAC  --- 0 SYNC 9 [0.13 5 4] 
s 106.059006000 _8_ MAC  --- 0 SYNC 9 [0.12 8 9] 
s 106.074008000 _0_ MAC  --- 0 SYNC 9 [0.11 0 1] 
s 107.488007333 _3_ MAC  --- 0 SYNC 9 [0.13 3 2] 
s 107.497006000 _8_ MAC  --- 0 SYNC 9 [0.12 8 9] 
s 107.544207333 _3_ MAC  --- 3 DSR 92 [0.00 -1 3] ------- [0:255 9:255 32 0] 4 [1 2] [0 2 0 0->0] [0 0 0 0->0]
r 107.587208000 _2_ MAC  --- 3 DSR 92 [0.00 -1 3] ------- [0:255 9:255 32 0] 4 [1 2] [0 2 0 0->0] [0 0 0 0->0]
r 107.587208000 _4_ MAC  --- 3 DSR 92 [0.00 -1 3] ------- [0:255 9:255 32 0] 4 [1 2] [0 2 0 0->0] [0 0 0 0->0]
r 107.587233000 _2_ RTR  --- 3 DSR 92 [0.00 -1 3] ------- [0:255 9:255 32 0] 4 [1 2] [0 2 0 0->0] [0 0 0 0->0]
r 107.587233000 _4_ RTR  --- 3 DSR 92 [0.00 -1 3] ------- [0:255 9:255 32 0] 4 [1 2] [0 2 0 0->0] [0 0 0 0->0]
f 107.592967044 _4_ RTR  --- 3 DSR 120 [0.00 -1 3] ------- [0:255 9:255 32 0] 5 [1 2] [0 2 0 0->0] [0 0 0 0->0]
s 108.918008000 _6_ MAC  --- 0 SYNC 9 [0.13 6 5] 
s 108.936006667 _9_ MAC  --- 0 SYNC 9 [0.11 9 8] 
s 108.948008667 _3_ MAC  --- 0 SYNC 9 [0.10 3 2] 
s 109.005208667 _3_ MAC  --- 3 DSR 92 [0.00 -1 3] ------- [0:255 9:255 32 0] 4 [1 2] [0 2 0 0->0] [0 0 0 0->0]
r 109.048209333 _2_ MAC  --- 3 DSR 92 [0.00 -1 3] ------- [0:255 9:255 32 0] 4 [1 2] [0 2 0 0->0] [0 0 0 0->0]
r 109.048209333 _4_ MAC  --- 3 DSR 92 [0.00 -1 3] ------- [0:255 9:255 32 0] 4 [1 2] [0 2 0 0->0] [0 0 0 0->0]
r 109.048234333 _2_ RTR  --- 3 DSR 92 [0.00 -1 3] ------- [0:255 9:255 32 0] 4 [1 2] [0 2 0 0->0] [0 0 0 0->0]
r 109.048234333 _4_ RTR  --- 3 DSR 92 [0.00 -1 3] ------- [0:255 9:255 32 0] 4 [1 2] [0 2 0 0->0] [0 0 0 0->0]
s 110.365006667 _7_ MAC  --- 0 SYNC 9 [0.12 7 8] 
s 110.379008000 _2_ MAC  --- 0 SYNC 9 [0.10 2 1] 
s 111.804008000 _4_ MAC  --- 0 SYNC 9 [0.11 4 5] 
s 111.843208000 _4_ MAC  --- 3 DSR 120 [0.00 -1 4] ------- [0:255 9:255 32 0] 5 [1 2] [0 2 0 0->0] [0 0 0 0->0]
r 111.886208667 _3_ MAC  --- 3 DSR 120 [0.00 -1 4] ------- [0:255 9:255 32 0] 5 [1 2] [0 2 0 0->0] [0 0 0 0->0]
r 111.886208667 _5_ MAC  --- 3 DSR 120 [0.00 -1 4] ------- [0:255 9:255 32 0] 5 [1 2] [0 2 0 0->0] [0 0 0 0->0]
r 111.886233667 _3_ RTR  --- 3 DSR 120 [0.00 -1 4] ------- [0:255 9:255 32 0] 5 [1 2] [0 2 0 0->0] [0 0 0 0->0]
r 111.886233667 _5_ RTR  --- 3 DSR 120 [0.00 -1 4] ------- [0:255 9:255 32 0] 5 [1 2] [0 2 0 0->0] [0 0 0 0->0]
f 111.894332464 _5_ RTR  --- 3 DSR 152 [0.00 -1 4] ------- [0:255 9:255 32 0] 6 [1 2] [0 2 0 0->0] [0 0 0 0->0]
s 113.217008000 _4_ MAC  --- 0 SYNC 9 [0.13 4 5] 
s 113.309208000 _4_ MAC  --- 3 DSR 120 [0.00 -1 4] ------- [0:255 9:255 32 0] 5 [1 2] [0 2 0 0->0] [0 0 0 0->0]
r 113.352208667 _3_ MAC  --- 3 DSR 120 [0.00 -1 4] ------- [0:255 9:255 32 0] 5 [1 2] [0 2 0 0->0] [0 0 0 0->0]
r 113.352208667 _5_ MAC  --- 3 DSR 120 [0.00 -1 4] ------- [0:255 9:255 32 0] 5 [1 2] [0 2 0 0->0] [0 0 0 0->0]
r 113.352233667 _3_ RTR  --- 3 DSR 120 [0.00 -1 4] ------- [0:255 9:255 32 0] 5 [1 2] [0 2 0 0->0] [0 0 0 0->0]
r 113.352233667 _5_ RTR  --- 3 DSR 120 [0.00 -1 4] ------- [0:255 9:255 32 0] 5 [1 2] [0 2 0 0->0] [0 0 0 0->0]
s 114.651007333 _6_ MAC  --- 0 SYNC 9 [0.13 6 5] 
s 114.752208667 _5_ MAC  --- 3 DSR 152 [0.00 -1 5] ------- [0:255 9:255 32 0] 6 [1 2] [0 2 0 0->0] [0 0 0 0->0]
r 114.795209333 _4_ MAC  --- 3 DSR 152 [0.00 -1 5] ------- [0:255 9:255 32 0] 6 [1 2] [0 2 0 0->0] [0 0 0 0->0]
r 114.795209333 _6_ MAC  --- 3 DSR 152 [0.00 -1 5] ------- [0:255 9:255 32 0] 6 [1 2] [0 2 0 0->0] [0 0 0 0->0]
r 114.795234333 _4_ RTR  --- 3 DSR 152 [0.00 -1 5] ------- [0:255 9:255 32 0] 6 [1 2] [0 2 0 0->0] [0 0 0 0->0]
r 114.795234333 _6_ RTR  --- 3 DSR 152 [0.00 -1 5] ------- [0:255 9:255 32 0] 6 [1 2] [0 2 0 0->0] [0 0 0 0->0]
f 114.796163986 _6_ RTR  --- 3 DSR 188 [0.00 -1 5] ------- [0:255 9:255 32 0] 7 [1 2] [0 2 0 0->0] [0 0 0 0->0]
s 116.108008667 _7_ MAC  --- 0 SYNC 9 [0.11 7 8] 
s 116.171207333 _6_ MAC  --- 3 DSR 188 [0.00 -1 6] ------- [0:255 9:255 32 0] 7 [1 2] [0 2 0 0->0] [0 0 0 0->0]
r 116.214208000 _5_ MAC  --- 3 DSR 188 [0.00 -1 6] ------- [0:255 9:255 32 0] 7 [1 2] [0 2 0 0->0] [0 0 0 0->0]
r 116.214208000 _7_ MAC  --- 3 DSR 188 [0.00 -1 6] ------- [0:255 9:255 32 0] 7 [1 2] [0 2 0 0->0] [0 0 0 0->0]
r 116.214233000 _5_ RTR  --- 3 DSR 188 [0.00 -1 6] ------- [0:255 9:255 32 0] 7 [1 2] [0 2 0 0->0] [0 0 0 0->0]
r 116.214233000 _7_ RTR  --- 3 DSR 188 [0.00 -1 6] ------- [0:255 9:255 32 0] 7 [1 2] [0 2 0 0->0] [0 0 0 0->0]
f 116.214714911 _7_ RTR  --- 3 DSR 228 [0.00 -1 6] ------- [0:255 9:255 32 0] 8 [1 2] [0 2 0 0->0] [0 0 0 0->0]
s 117.586208000 _6_ MAC  --- 3 DSR 188 [0.00 -1 6] ------- [0:255 9:255 32 0] 7 [1 2] [0 2 0 0->0] [0 0 0 0->0]
r 117.629208667 _5_ MAC  --- 3 DSR 188 [0.00 -1 6] ------- [0:255 9:255 32 0] 7 [1 2] [0 2 0 0->0] [0 0 0 0->0]
r 117.629208667 _7_ MAC  --- 3 DSR 188 [0.00 -1 6] ------- [0:255 9:255 32 0] 7 [1 2] [0 2 0 0->0] [0 0 0 0->0]
r 117.629233667 _5_ RTR  --- 3 DSR 188 [0.00 -1 6] ------- [0:255 9:255 32 0] 7 [1 2] [0 2 0 0->0] [0 0 0 0->0]
r 117.629233667 _7_ RTR  --- 3 DSR 188 [0.00 -1 6] ------- [0:255 9:255 32 0] 7 [1 2] [0 2 0 0->0] [0 0 0 0->0]
s 118.973008667 _1_ MAC  --- 0 SYNC 9 [0.11 1 2] 
s 119.026206667 _7_ MAC  --- 3 DSR 228 [0.00 -1 7] ------- [0:255 9:255 32 0] 8 [1 2] [0 2 0 0->0] [0 0 0 0->0]
r 119.069207333 _6_ MAC  --- 3 DSR 228 [0.00 -1 7] ------- [0:255 9:255 32 0] 8 [1 2] [0 2 0 0->0] [0 0 0 0->0]
r 119.069207333 _8_ MAC  --- 3 DSR 228 [0.00 -1 7] ------- [0:255 9:255 32 0] 8 [1 2] [0 2 0 0->0] [0 0 0 0->0]
r 119.069232333 _6_ RTR  --- 3 DSR 228 [0.00 -1 7] ------- [0:255 9:255 32 0] 8 [1 2] [0 2 0 0->0] [0 0 0 0->0]
r 119.069232333 _8_ RTR  --- 3 DSR 228 [0.00 -1 7] ------- [0:255 9:255 32 0] 8 [1 2] [0 2 0 0->0] [0 0 0 0->0]
f 119.074102496 _8_ RTR  --- 3 DSR 272 [0.00 -1 7] ------- [0:255 9:255 32 0] 9 [1 2] [0 2 0 0->0] [0 0 0 0->0]
s 120.398008667 _5_ MAC  --- 0 SYNC 9 [0.11 5 4] 
s 120.402007333 _8_ MAC  --- 0 SYNC 9 [0.11 8 9] 
s 120.405009333 _0_ MAC  --- 0 SYNC 9 [0.11 0 1] 
s 120.480207333 _8_ MAC  --- 3 DSR 272 [0.00 -1 8] ------- [0:255 9:255 32 0] 9 [1 2] [0 2 0 0->0] [0 0 0 0->0]
r 120.523208000 _7_ MAC  --- 3 DSR 272 [0.00 -1 8] ------- [0:255 9:255 32 0] 9 [1 2] [0 2 0 0->0] [0 0 0 0->0]
r 120.523208000 _9_ MAC  --- 3 DSR 272 [0.00 -1 8] ------- [0:255 9:255 32 0] 9 [1 2] [0 2 0 0->0] [0 0 0 0->0]
r 120.523233000 _7_ RTR  --- 3 DSR 272 [0.00 -1 8] ------- [0:255 9:255 32 0] 9 [1 2] [0 2 0 0->0] [0 0 0 0->0]
r 120.523233000 _9_ RTR  --- 3 DSR 272 [0.00 -1 8] ------- [0:255 9:255 32 0] 9 [1 2] [0 2 0 0->0] [0 0 0 0->0]
s 120.532903079 _9_ RTR  --- 459 DSR 108 [0.00 0 0] ------- [9:255 0:255 254 8] 10 [0 2] [1 2 10 0->9] [0 0 0 0->0]
s 121.825007333 _8_ MAC  --- 0 SYNC 9 [0.12 8 9] 
s 121.832008667 _3_ MAC  --- 0 SYNC 9 [0.11 3 2] 
s 121.875207333 _8_ MAC  --- 3 DSR 272 [0.00 -1 8] ------- [0:255 9:255 32 0] 9 [1 2] [0 2 0 0->0] [0 0 0 0->0]
r 121.918208000 _7_ MAC  --- 3 DSR 272 [0.00 -1 8] ------- [0:255 9:255 32 0] 9 [1 2] [0 2 0 0->0] [0 0 0 0->0]
r 121.918208000 _9_ MAC  --- 3 DSR 272 [0.00 -1 8] ------- [0:255 9:255 32 0] 9 [1 2] [0 2 0 0->0] [0 0 0 0->0]
r 121.918233000 _7_ RTR  --- 3 DSR 272 [0.00 -1 8] ------- [0:255 9:255 32 0] 9 [1 2] [0 2 0 0->0] [0 0 0 0->0]
r 121.918233000 _9_ RTR  --- 3 DSR 272 [0.00 -1 8] ------- [0:255 9:255 32 0] 9 [1 2] [0 2 0 0->0] [0 0 0 0->0]
s 121.920385724 _9_ RTR  --- 491 DSR 108 [0.00 0 0] ------- [9:255 0:255 254 8] 10 [0 2] [1 2 10 0->9] [0 0 0 0->0]
D 121.920385724 _9_ IFQ  ARP 459 DSR 108 [0.00 0 9] ------- [9:255 0:255 254 8] 10 [0 2] [1 2 10 0->9] [0 0 0 0->0]
s 123.254008667 _3_ MAC  --- 0 SYNC 9 [0.12 3 2] 
s 123.259008000 _9_ MAC  --- 0 SYNC 9 [0.12 9 8] 
s 123.267009333 _6_ MAC  --- 0 SYNC 9 [0.11 6 5] 
s 123.333208000 _9_ MAC  --- 0 ARP 28 [0.00 -1 9] ------- [REQUEST 9/9 0/8]
r 123.376208667 _8_ MAC  --- 0 ARP 28 [0.00 -1 9] ------- [REQUEST 9/9 0/8]
s 124.683009333 _2_ MAC  --- 0 SYNC 9 [0.13 2 1] 
s 124.695008000 _7_ MAC  --- 0 SYNC 9 [0.12 7 8] 
s 124.736210000 _7_ MAC  --- 3 DSR 228 [0.00 -1 7] ------- [0:255 9:255 32 0] 8 [1 2] [0 2 0 0->0] [0 0 0 0->0]
r 124.779210667 _6_ MAC  --- 3 DSR 228 [0.00 -1 7] ------- [0:255 9:255 32 0] 8 [1 2] [0 2 0 0->0] [0 0 0 0->0]
r 124.779210667 _8_ MAC  --- 3 DSR 228 [0.00 -1 7] ------- [0:255 9:255 32 0] 8 [1 2] [0 2 0 0->0] [0 0 0 0->0]
r 124.779235667 _6_ RTR  --- 3 DSR 228 [0.00 -1 7] ------- [0:255 9:255 32 0] 8 [1 2] [0 2 0 0->0] [0 0 0 0->0]
r 124.779235667 _8_ RTR  --- 3 DSR 228 [0.00 -1 7] ------- [0:255 9:255 32 0] 8 [1 2] [0 2 0 0->0] [0 0 0 0->0]
s 126.121009333 _4_ MAC  --- 0 SYNC 9 [0.12 4 5] 
s 126.169208000 _9_ MAC  --- 0 ARP 28 [0.00 -1 9] ------- [REQUEST 9/9 0/8]
r 126.212208667 _8_ MAC  --- 0 ARP 28 [0.00 -1 9] ------- [REQUEST 9/9 0/8]
s 127.568009333 _4_ MAC  --- 0 SYNC 9 [0.11 4 5] 
s 127.623208667 _8_ MAC  --- 0 RTS 10 [0.07 9 8] 
s 127.634209333 _9_ MAC  --- 0 CTS 10 [0.06 8 9] 
s 127.645210000 _8_ MAC  --- 0 ARP 28 [0.01 9 8] ------- [REPLY 8/8 9/9]
s 127.688210667 _9_ MAC  --- 0 ACK 10 [0.00 8 9] 
r 127.688210667 _9_ MAC  --- 0 ARP 28 [0.01 9 8] ------- [REPLY 8/8 9/9]
s 129.000008667 _6_ MAC  --- 0 SYNC 9 [0.11 6 5] 
s 129.049208000 _9_ MAC  --- 0 RTS 10 [0.07 8 9] 
s 129.060208667 _8_ MAC  --- 0 CTS 10 [0.06 9 8] 
s 129.071209333 _9_ MAC  --- 491 DSR 108 [0.01 8 9] ------- [9:255 0:255 254 8] 10 [0 2] [1 2 10 0->9] [0 0 0 0->0]
s 129.114210000 _8_ MAC  --- 0 ACK 10 [0.00 9 8] 
r 129.114210000 _8_ MAC  --- 491 DSR 108 [0.01 8 9] ------- [9:255 0:255 254 8] 10 [0 2] [1 2 10 0->9] [0 0 0 0->0]
r 129.114235000 _8_ RTR  --- 491 DSR 108 [0.01 8 9] ------- [9:255 0:255 254 8] 10 [0 2] [1 2 10 0->9] [0 0 0 0->0]
f 129.114235000 _8_ RTR  --- 491 DSR 108 [0.01 8 9] ------- [9:255 0:255 253 7] 10 [0 2] [1 2 10 0->9] [0 0 0 0->0]
s 130.433010000 _7_ MAC  --- 0 SYNC 9 [0.11 7 8] 
s 130.479208667 _8_ MAC  --- 0 RTS 10 [0.07 9 8] 
s 130.490209333 _9_ MAC  --- 0 CTS 10 [0.06 8 9] 
s 130.501210000 _8_ MAC  --- 0 ARP 28 [0.01 9 8] ------- [REPLY 8/8 9/9]
s 130.544210667 _9_ MAC  --- 0 ACK 10 [0.00 8 9] 
r 130.544210667 _9_ MAC  --- 0 ARP 28 [0.01 9 8] ------- [REPLY 8/8 9/9]
s 131.906208667 _8_ MAC  --- 0 ARP 28 [0.00 -1 8] ------- [REQUEST 8/8 0/7]
r 131.949209333 _7_ MAC  --- 0 ARP 28 [0.00 -1 8] ------- [REQUEST 8/8 0/7]
r 131.949209333 _9_ MAC  --- 0 ARP 28 [0.00 -1 8] ------- [REQUEST 8/8 0/7]
s 133.281010000 _1_ MAC  --- 0 SYNC 9 [0.13 1 2] 
s 133.348208667 _8_ MAC  --- 0 ARP 28 [0.00 -1 8] ------- [REQUEST 8/8 0/7]
r 133.391209333 _7_ MAC  --- 0 ARP 28 [0.00 -1 8] ------- [REQUEST 8/8 0/7]
r 133.391209333 _9_ MAC  --- 0 ARP 28 [0.00 -1 8] ------- [REQUEST 8/8 0/7]
s 134.712010000 _5_ MAC  --- 0 SYNC 9 [0.13 5 4] 
s 134.719010667 _0_ MAC  --- 0 SYNC 9 [0.12 0 1] 
s 134.725008667 _8_ MAC  --- 0 SYNC 9 [0.12 8 9] 
s 136.145010000 _3_ MAC  --- 0 SYNC 9 [0.13 3 2] 
s 136.152008667 _8_ MAC  --- 0 SYNC 9 [0.12 8 9] 
s 136.224209333 _7_ MAC  --- 0 RTS 10 [0.07 8 7] 
s 136.235210000 _8_ MAC  --- 0 CTS 10 [0.06 7 8] 
s 136.246210667 _7_ MAC  --- 0 ARP 28 [0.01 8 7] ------- [REPLY 7/7 8/8]
s 136.289211333 _8_ MAC  --- 0 ACK 10 [0.00 7 8] 
r 136.289211333 _8_ MAC  --- 0 ARP 28 [0.01 8 7] ------- [REPLY 7/7 8/8]
s 137.583010000 _3_ MAC  --- 0 SYNC 9 [0.13 3 2] 
s 137.590010667 _6_ MAC  --- 0 SYNC 9 [0.12 6 5] 
s 137.599009333 _9_ MAC  --- 0 SYNC 9 [0.11 9 8] 
s 139.018009333 _7_ MAC  --- 0 SYNC 9 [0.12 7 8] 
s 139.035010667 _2_ MAC  --- 0 SYNC 9 [0.11 2 1] 
s 139.102210000 _8_ MAC  --- 0 RTS 10 [0.07 7 8] 
s 139.113210667 _7_ MAC  --- 0 CTS 10 [0.06 8 7] 
s 139.124211333 _8_ MAC  --- 491 DSR 108 [0.01 7 8] ------- [9:255 0:255 253 7] 10 [0 2] [1 2 10 0->9] [0 0 0 0->0]
s 139.167212000 _7_ MAC  --- 0 ACK 10 [0.00 8 7] 
r 139.167212000 _7_ MAC  --- 491 DSR 108 [0.01 7 8] ------- [9:255 0:255 253 7] 10 [0 2] [1 2 10 0->9] [0 0 0 0->0]
r 139.167237000 _7_ RTR  --- 491 DSR 108 [0.01 7 8] ------- [9:255 0:255 253 7] 10 [0 2] [1 2 10 0->9] [0 0 0 0->0]
f 139.167237000 _7_ RTR  --- 491 DSR 108 [0.01 7 8] ------- [9:255 0:255 252 6] 10 [0 2] [1 2 10 0->9] [0 0 0 0->0]
s 140.452010667 _4_ MAC  --- 0 SYNC 9 [0.12 4 5] 
s 140.552209333 _7_ MAC  --- 0 RTS 10 [0.07 8 7] 
s 140.563210000 _8_ MAC  --- 0 CTS 10 [0.06 7 8] 
s 140.574210667 _7_ MAC  --- 0 ARP 28 [0.01 8 7] ------- [REPLY 7/7 8/8]
s 140.617211333 _8_ MAC  --- 0 ACK 10 [0.00 7 8] 
r 140.617211333 _8_ MAC  --- 0 ARP 28 [0.01 8 7] ------- [REPLY 7/7 8/8]
s 141.878010667 _4_ MAC  --- 0 SYNC 9 [0.13 4 5] 
s 141.986209333 _7_ MAC  --- 0 ARP 28 [0.00 -1 7] ------- [REQUEST 7/7 0/6]
r 142.029210000 _6_ MAC  --- 0 ARP 28 [0.00 -1 7] ------- [REQUEST 7/7 0/6]
r 142.029210000 _8_ MAC  --- 0 ARP 28 [0.00 -1 7] ------- [REQUEST 7/7 0/6]
s 143.311010000 _6_ MAC  --- 0 SYNC 9 [0.13 6 5] 
s 143.382211333 _7_ MAC  --- 0 ARP 28 [0.00 -1 7] ------- [REQUEST 7/7 0/6]
r 143.425212000 _6_ MAC  --- 0 ARP 28 [0.00 -1 7] ------- [REQUEST 7/7 0/6]
r 143.425212000 _8_ MAC  --- 0 ARP 28 [0.00 -1 7] ------- [REQUEST 7/7 0/6]
s 144.772011333 _7_ MAC  --- 0 SYNC 9 [0.10 7 8] 
s 144.832210000 _6_ MAC  --- 0 RTS 10 [0.07 7 6] 
s 144.843210667 _7_ MAC  --- 0 CTS 10 [0.06 6 7] 
s 144.854211333 _6_ MAC  --- 0 ARP 28 [0.01 7 6] ------- [REPLY 6/6 7/7]
s 144.897212000 _7_ MAC  --- 0 ACK 10 [0.00 6 7] 
r 144.897212000 _7_ MAC  --- 0 ARP 28 [0.01 7 6] ------- [REPLY 6/6 7/7]
s 146.244210000 _6_ MAC  --- 0 RTS 10 [0.07 7 6] 
s 146.255210667 _7_ MAC  --- 0 CTS 10 [0.06 6 7] 
s 146.266211333 _6_ MAC  --- 0 ARP 28 [0.01 7 6] ------- [REPLY 6/6 7/7]
s 146.309212000 _7_ MAC  --- 0 ACK 10 [0.00 6 7] 
r 146.309212000 _7_ MAC  --- 0 ARP 28 [0.01 7 6] ------- [REPLY 6/6 7/7]
s 147.611011333 _1_ MAC  --- 0 SYNC 9 [0.13 1 2] 
s 147.674211333 _7_ MAC  --- 0 RTS 10 [0.07 6 7] 
s 147.685212000 _6_ MAC  --- 0 CTS 10 [0.06 7 6] 
s 147.696212667 _7_ MAC  --- 491 DSR 108 [0.01 6 7] ------- [9:255 0:255 252 6] 10 [0 2] [1 2 10 0->9] [0 0 0 0->0]
s 147.739213333 _6_ MAC  --- 0 ACK 10 [0.00 7 6] 
r 147.739213333 _6_ MAC  --- 491 DSR 108 [0.01 6 7] ------- [9:255 0:255 252 6] 10 [0 2] [1 2 10 0->9] [0 0 0 0->0]
r 147.739238333 _6_ RTR  --- 491 DSR 108 [0.01 6 7] ------- [9:255 0:255 252 6] 10 [0 2] [1 2 10 0->9] [0 0 0 0->0]
f 147.739238333 _6_ RTR  --- 491 DSR 108 [0.01 6 7] ------- [9:255 0:255 251 5] 10 [0 2] [1 2 10 0->9] [0 0 0 0->0]
s 149.042011333 _5_ MAC  --- 0 SYNC 9 [0.13 5 4] 
s 149.057012000 _0_ MAC  --- 0 SYNC 9 [0.12 0 1] 
s 149.065010000 _8_ MAC  --- 0 SYNC 9 [0.11 8 9] 
s 150.500010000 _8_ MAC  --- 0 SYNC 9 [0.11 8 9] 
s 150.502011333 _3_ MAC  --- 0 SYNC 9 [0.10 3 2] 
s 151.914010667 _9_ MAC  --- 0 SYNC 9 [0.12 9 8] 
s 151.920012000 _6_ MAC  --- 0 SYNC 9 [0.12 6 5] 
s 151.925011333 _3_ MAC  --- 0 SYNC 9 [0.11 3 2] 
s 151.986210000 _6_ MAC  --- 0 ARP 28 [0.00 -1 6] ------- [REQUEST 6/6 0/5]
r 152.029210667 _5_ MAC  --- 0 ARP 28 [0.00 -1 6] ------- [REQUEST 6/6 0/5]
r 152.029210667 _7_ MAC  --- 0 ARP 28 [0.00 -1 6] ------- [REQUEST 6/6 0/5]
s 153.342010667 _7_ MAC  --- 0 SYNC 9 [0.13 7 8] 
s 153.366012000 _2_ MAC  --- 0 SYNC 9 [0.11 2 1] 
s 153.410212000 _6_ MAC  --- 0 ARP 28 [0.00 -1 6] ------- [REQUEST 6/6 0/5]
r 153.453212667 _5_ MAC  --- 0 ARP 28 [0.00 -1 6] ------- [REQUEST 6/6 0/5]
r 153.453212667 _7_ MAC  --- 0 ARP 28 [0.00 -1 6] ------- [REQUEST 6/6 0/5]
s 154.783012000 _4_ MAC  --- 0 SYNC 9 [0.12 4 5] 
s 154.873212667 _5_ MAC  --- 0 RTS 10 [0.07 6 5] 
s 154.884213333 _6_ MAC  --- 0 CTS 10 [0.06 5 6] 
s 154.895214000 _5_ MAC  --- 0 ARP 28 [0.01 6 5] ------- [REPLY 5/5 6/6]
s 154.938214667 _6_ MAC  --- 0 ACK 10 [0.00 5 6] 
r 154.938214667 _6_ MAC  --- 0 ARP 28 [0.01 6 5] ------- [REPLY 5/5 6/6]
s 156.213012000 _4_ MAC  --- 0 SYNC 9 [0.12 4 5] 
s 156.280212667 _5_ MAC  --- 0 RTS 10 [0.07 6 5] 
s 156.291213333 _6_ MAC  --- 0 CTS 10 [0.06 5 6] 
s 156.302214000 _5_ MAC  --- 0 ARP 28 [0.01 6 5] ------- [REPLY 5/5 6/6]
s 156.345214667 _6_ MAC  --- 0 ACK 10 [0.00 5 6] 
r 156.345214667 _6_ MAC  --- 0 ARP 28 [0.01 6 5] ------- [REPLY 5/5 6/6]
s 157.663011333 _6_ MAC  --- 0 SYNC 9 [0.11 6 5] 
s 157.734212000 _6_ MAC  --- 0 RTS 10 [0.07 5 6] 
s 157.745212667 _5_ MAC  --- 0 CTS 10 [0.06 6 5] 
s 157.756213333 _6_ MAC  --- 491 DSR 108 [0.01 5 6] ------- [9:255 0:255 251 5] 10 [0 2] [1 2 10 0->9] [0 0 0 0->0]
s 157.799214000 _5_ MAC  --- 0 ACK 10 [0.00 6 5] 
r 157.799214000 _5_ MAC  --- 491 DSR 108 [0.01 5 6] ------- [9:255 0:255 251 5] 10 [0 2] [1 2 10 0->9] [0 0 0 0->0]
r 157.799239000 _5_ RTR  --- 491 DSR 108 [0.01 5 6] ------- [9:255 0:255 251 5] 10 [0 2] [1 2 10 0->9] [0 0 0 0->0]
f 157.799239000 _5_ RTR  --- 491 DSR 108 [0.01 5 6] ------- [9:255 0:255 250 4] 10 [0 2] [1 2 10 0->9] [0 0 0 0->0]
s 159.082012667 _7_ MAC  --- 0 SYNC 9 [0.12 7 8] 
s 160.603212667 _5_ MAC  --- 0 ARP 28 [0.00 -1 5] ------- [REQUEST 5/5 0/4]
r 160.646213333 _4_ MAC  --- 0 ARP 28 [0.00 -1 5] ------- [REQUEST 5/5 0/4]
r 160.646213333 _6_ MAC  --- 0 ARP 28 [0.00 -1 5] ------- [REQUEST 5/5 0/4]
s 161.952012667 _1_ MAC  --- 0 SYNC 9 [0.12 1 2] 
s 162.046212000 _4_ MAC  --- 0 RTS 10 [0.07 5 4] 
s 162.057212667 _5_ MAC  --- 0 CTS 10 [0.06 4 5] 
s 162.068213333 _4_ MAC  --- 0 ARP 28 [0.01 5 4] ------- [REPLY 4/4 5/5]
s 162.111214000 _5_ MAC  --- 0 ACK 10 [0.00 4 5] 
r 162.111214000 _5_ MAC  --- 0 ARP 28 [0.01 5 4] ------- [REPLY 4/4 5/5]
s 163.373013333 _0_ MAC  --- 0 SYNC 9 [0.13 0 1] 
s 163.380011333 _8_ MAC  --- 0 SYNC 9 [0.12 8 9] 
s 163.381012667 _5_ MAC  --- 0 SYNC 9 [0.12 5 4] 
D 163.384013333 _6_ MAC  COL 0 SYNC 9 [0.12 5 4] 
s 163.445212667 _5_ MAC  --- 0 RTS 10 [0.07 4 5] 
s 163.456213333 _4_ MAC  --- 0 CTS 10 [0.06 5 4] 
s 163.467214000 _5_ MAC  --- 491 DSR 108 [0.01 4 5] ------- [9:255 0:255 250 4] 10 [0 2] [1 2 10 0->9] [0 0 0 0->0]
s 163.510214667 _4_ MAC  --- 0 ACK 10 [0.00 5 4] 
r 163.510214667 _4_ MAC  --- 491 DSR 108 [0.01 4 5] ------- [9:255 0:255 250 4] 10 [0 2] [1 2 10 0->9] [0 0 0 0->0]
r 163.510239667 _4_ RTR  --- 491 DSR 108 [0.01 4 5] ------- [9:255 0:255 250 4] 10 [0 2] [1 2 10 0->9] [0 0 0 0->0]
f 163.510239667 _4_ RTR  --- 491 DSR 108 [0.01 4 5] ------- [9:255 0:255 249 3] 10 [0 2] [1 2 10 0->9] [0 0 0 0->0]
s 164.822012667 _3_ MAC  --- 0 SYNC 9 [0.11 3 2] 
s 164.833011333 _8_ MAC  --- 0 SYNC 9 [0.10 8 9] 
s 164.905213333 _4_ MAC  --- 0 ARP 28 [0.00 -1 4] ------- [REQUEST 4/4 0/3]
r 164.948214000 _3_ MAC  --- 0 ARP 28 [0.00 -1 4] ------- [REQUEST 4/4 0/3]
r 164.948214000 _5_ MAC  --- 0 ARP 28 [0.00 -1 4] ------- [REQUEST 4/4 0/3]
s 166.249012000 _6_ MAC  --- 0 SYNC 9 [0.12 6 5] 
s 166.259012667 _3_ MAC  --- 0 SYNC 9 [0.11 3 2] 
s 166.266012000 _9_ MAC  --- 0 SYNC 9 [0.10 9 8] 
s 166.305212667 _3_ MAC  --- 0 RTS 10 [0.07 4 3] 
s 166.316213333 _4_ MAC  --- 0 CTS 10 [0.06 3 4] 
s 166.327214000 _3_ MAC  --- 0 ARP 28 [0.01 4 3] ------- [REPLY 3/3 4/4]
s 166.370214667 _4_ MAC  --- 0 ACK 10 [0.00 3 4] 
r 166.370214667 _4_ MAC  --- 0 ARP 28 [0.01 4 3] ------- [REPLY 3/3 4/4]
s 167.697012000 _7_ MAC  --- 0 SYNC 9 [0.10 7 8] 
s 167.697013333 _2_ MAC  --- 0 SYNC 9 [0.10 2 1] 
s 169.127013333 _4_ MAC  --- 0 SYNC 9 [0.11 4 5] 
s 169.216213333 _4_ MAC  --- 0 ARP 28 [0.00 -1 4] ------- [REQUEST 4/4 0/3]
r 169.259214000 _3_ MAC  --- 0 ARP 28 [0.00 -1 4] ------- [REQUEST 4/4 0/3]
r 169.259214000 _5_ MAC  --- 0 ARP 28 [0.00 -1 4] ------- [REQUEST 4/4 0/3]
s 170.551013333 _4_ MAC  --- 0 SYNC 9 [0.12 4 5] 
s 170.629213333 _4_ MAC  --- 0 RTS 10 [0.07 3 4] 
s 170.640214000 _3_ MAC  --- 0 CTS 10 [0.06 4 3] 
s 170.651214667 _4_ MAC  --- 491 DSR 108 [0.01 3 4] ------- [9:255 0:255 249 3] 10 [0 2] [1 2 10 0->9] [0 0 0 0->0]
s 170.694215333 _3_ MAC  --- 0 ACK 10 [0.00 4 3] 
r 170.694215333 _3_ MAC  --- 491 DSR 108 [0.01 3 4] ------- [9:255 0:255 249 3] 10 [0 2] [1 2 10 0->9] [0 0 0 0->0]
r 170.694240333 _3_ RTR  --- 491 DSR 108 [0.01 3 4] ------- [9:255 0:255 249 3] 10 [0 2] [1 2 10 0->9] [0 0 0 0->0]
f 170.694240333 _3_ RTR  --- 491 DSR 108 [0.01 3 4] ------- [9:255 0:255 248 2] 10 [0 2] [1 2 10 0->9] [0 0 0 0->0]
s 171.974012667 _6_ MAC  --- 0 SYNC 9 [0.13 6 5] 
s 172.035214000 _3_ MAC  --- 0 RTS 10 [0.07 4 3] 
s 172.046214667 _4_ MAC  --- 0 CTS 10 [0.06 3 4] 
s 172.057215333 _3_ MAC  --- 0 ARP 28 [0.01 4 3] ------- [REPLY 3/3 4/4]
s 172.100216000 _4_ MAC  --- 0 ACK 10 [0.00 3 4] 
r 172.100216000 _4_ MAC  --- 0 ARP 28 [0.01 4 3] ------- [REPLY 3/3 4/4]
s 173.403012667 _7_ MAC  --- 0 SYNC 9 [0.13 7 8] 
s 173.516214000 _3_ MAC  --- 0 ARP 28 [0.00 -1 3] ------- [REQUEST 3/3 0/2]
r 173.559214667 _2_ MAC  --- 0 ARP 28 [0.00 -1 3] ------- [REQUEST 3/3 0/2]
r 173.559214667 _4_ MAC  --- 0 ARP 28 [0.00 -1 3] ------- [REQUEST 3/3 0/2]
s 174.904213333 _2_ MAC  --- 0 RTS 10 [0.07 3 2] 
s 174.915214000 _3_ MAC  --- 0 CTS 10 [0.06 2 3] 
s 174.926214667 _2_ MAC  --- 0 ARP 28 [0.01 3 2] ------- [REPLY 2/2 3/3]
s 174.969215333 _3_ MAC  --- 0 ACK 10 [0.00 2 3] 
r 174.969215333 _3_ MAC  --- 0 ARP 28 [0.01 3 2] ------- [REPLY 2/2 3/3]
s 176.296014000 _1_ MAC  --- 0 SYNC 9 [0.10 1 2] 
s 177.705012667 _5_ MAC  --- 0 SYNC 9 [0.13 5 4] 
s 177.710012667 _8_ MAC  --- 0 SYNC 9 [0.12 8 9] 
s 177.718014667 _0_ MAC  --- 0 SYNC 9 [0.11 0 1] 
s 179.142012667 _8_ MAC  --- 0 SYNC 9 [0.12 8 9] 
s 179.165014000 _3_ MAC  --- 0 SYNC 9 [0.10 3 2] 
s 179.240214000 _3_ MAC  --- 0 ARP 28 [0.00 -1 3] ------- [REQUEST 3/3 0/2]
r 179.283214667 _2_ MAC  --- 0 ARP 28 [0.00 -1 3] ------- [REQUEST 3/3 0/2]
r 179.283214667 _4_ MAC  --- 0 ARP 28 [0.00 -1 3] ------- [REQUEST 3/3 0/2]
s 180.569013333 _9_ MAC  --- 0 SYNC 9 [0.13 9 8] 
s 180.577014000 _3_ MAC  --- 0 SYNC 9 [0.12 3 2] 
s 180.593013333 _6_ MAC  --- 0 SYNC 9 [0.11 6 5] 
s 180.629214000 _3_ MAC  --- 0 RTS 10 [0.07 2 3] 
s 180.640214667 _2_ MAC  --- 0 CTS 10 [0.06 3 2] 
s 180.651215333 _3_ MAC  --- 491 DSR 108 [0.01 2 3] ------- [9:255 0:255 248 2] 10 [0 2] [1 2 10 0->9] [0 0 0 0->0]
s 180.694216000 _2_ MAC  --- 0 ACK 10 [0.00 3 2] 
r 180.694216000 _2_ MAC  --- 491 DSR 108 [0.01 2 3] ------- [9:255 0:255 248 2] 10 [0 2] [1 2 10 0->9] [0 0 0 0->0]
r 180.694241000 _2_ RTR  --- 491 DSR 108 [0.01 2 3] ------- [9:255 0:255 248 2] 10 [0 2] [1 2 10 0->9] [0 0 0 0->0]
f 180.694241000 _2_ RTR  --- 491 DSR 108 [0.01 2 3] ------- [9:255 0:255 247 1] 10 [0 2] [1 2 10 0->9] [0 0 0 0->0]