+ 0.1 4 1 encap 230 ------- 0 4.3 2.0 -1 1
- 0.1 4 1 encap 230 ------- 0 4.3 2.0 -1 1
v 0.1 eval {set sim_annotation {0.10000000000000001 1 join-group 1073741824}}
v 0.1 eval {set sim_annotation {0.10000000000000001 0 join-group 1073741824}}
v 0.1 eval {set sim_annotation {0.10000000000000001 3 join-group 1073741824}}
v 0.1 eval {set sim_annotation {0.10000000000000001 2 join-group 1073741824}}
v 0.1 eval {set sim_annotation {0.10000000000000001 4 join-group 1073741824}}
v 0.1 eval {set sim_annotation {0.10000000000000001 5 join-group 1073741824}}
+ 0.10375 4 1 encap 230 ------- 0 4.3 2.0 -1 3
- 0.10375 4 1 encap 230 ------- 0 4.3 2.0 -1 3
+ 0.1075 4 1 encap 230 ------- 0 4.3 2.0 -1 5
- 0.1075 4 1 encap 230 ------- 0 4.3 2.0 -1 5
r 0.111227 4 1 encap 230 ------- 0 4.3 2.0 -1 1
+ 0.111227 1 0 encap 230 ------- 0 4.3 2.0 -1 1
- 0.111227 1 0 encap 230 ------- 0 4.3 2.0 -1 1
+ 0.11125 4 1 encap 230 ------- 0 4.3 2.0 -1 7
- 0.11125 4 1 encap 230 ------- 0 4.3 2.0 -1 7
r 0.114977 4 1 encap 230 ------- 0 4.3 2.0 -1 3
+ 0.114977 1 0 encap 230 ------- 0 4.3 2.0 -1 3
- 0.114977 1 0 encap 230 ------- 0 4.3 2.0 -1 3
+ 0.115 4 1 encap 230 ------- 0 4.3 2.0 -1 9
- 0.115 4 1 encap 230 ------- 0 4.3 2.0 -1 9
r 0.118727 4 1 encap 230 ------- 0 4.3 2.0 -1 5
+ 0.118727 1 0 encap 230 ------- 0 4.3 2.0 -1 5
- 0.118727 1 0 encap 230 ------- 0 4.3 2.0 -1 5
+ 0.11875 4 1 encap 230 ------- 0 4.3 2.0 -1 11
- 0.11875 4 1 encap 230 ------- 0 4.3 2.0 -1 11
r 0.122453 1 0 encap 230 ------- 0 4.3 2.0 -1 1
+ 0.122453 0 2 encap 230 ------- 0 4.3 2.0 -1 1
- 0.122453 0 2 encap 230 ------- 0 4.3 2.0 -1 1
r 0.122477 4 1 encap 230 ------- 0 4.3 2.0 -1 7
+ 0.122477 1 0 encap 230 ------- 0 4.3 2.0 -1 7
- 0.122477 1 0 encap 230 ------- 0 4.3 2.0 -1 7
+ 0.1225 4 1 encap 230 ------- 0 4.3 2.0 -1 13
- 0.1225 4 1 encap 230 ------- 0 4.3 2.0 -1 13
r 0.126203 1 0 encap 230 ------- 0 4.3 2.0 -1 3
+ 0.126203 0 2 encap 230 ------- 0 4.3 2.0 -1 3
- 0.126203 0 2 encap 230 ------- 0 4.3 2.0 -1 3
r 0.126227 4 1 encap 230 ------- 0 4.3 2.0 -1 9
+ 0.126227 1 0 encap 230 ------- 0 4.3 2.0 -1 9
- 0.126227 1 0 encap 230 ------- 0 4.3 2.0 -1 9
+ 0.12625 4 1 encap 230 ------- 0 4.3 2.0 -1 15
- 0.12625 4 1 encap 230 ------- 0 4.3 2.0 -1 15
r 0.129953 1 0 encap 230 ------- 0 4.3 2.0 -1 5
+ 0.129953 0 2 encap 230 ------- 0 4.3 2.0 -1 5
- 0.129953 0 2 encap 230 ------- 0 4.3 2.0 -1 5
r 0.129977 4 1 encap 230 ------- 0 4.3 2.0 -1 11
+ 0.129977 1 0 encap 230 ------- 0 4.3 2.0 -1 11
- 0.129977 1 0 encap 230 ------- 0 4.3 2.0 -1 11
+ 0.13 4 1 encap 230 ------- 0 4.3 2.0 -1 17
- 0.13 4 1 encap 230 ------- 0 4.3 2.0 -1 17
r 0.13368 0 2 encap 230 ------- 0 4.3 2.0 -1 1
+ 0.13368 2 0 cbr 210 ------- 1 4.1 1073741824.0 0 0
- 0.13368 2 0 cbr 210 ------- 1 4.1 1073741824.0 0 0
+ 0.13368 2 5 cbr 210 ------- 1 4.1 1073741824.0 0 0
- 0.13368 2 5 cbr 210 ------- 1 4.1 1073741824.0 0 0
r 0.133703 1 0 encap 230 ------- 0 4.3 2.0 -1 7
+ 0.133703 0 2 encap 230 ------- 0 4.3 2.0 -1 7
- 0.133703 0 2 encap 230 ------- 0 4.3 2.0 -1 7
r 0.133727 4 1 encap 230 ------- 0 4.3 2.0 -1 13
+ 0.133727 1 0 encap 230 ------- 0 4.3 2.0 -1 13
- 0.133727 1 0 encap 230 ------- 0 4.3 2.0 -1 13
+ 0.13375 4 1 encap 230 ------- 0 4.3 2.0 -1 19
- 0.13375 4 1 encap 230 ------- 0 4.3 2.0 -1 19
r 0.13743 0 2 encap 230 ------- 0 4.3 2.0 -1 3
+ 0.13743 2 0 cbr 210 ------- 1 4.1 1073741824.0 1 2
- 0.13743 2 0 cbr 210 ------- 1 4.1 1073741824.0 1 2
+ 0.13743 2 5 cbr 210 ------- 1 4.1 1073741824.0 1 2
- 0.13743 2 5 cbr 210 ------- 1 4.1 1073741824.0 1 2
r 0.137453 1 0 encap 230 ------- 0 4.3 2.0 -1 9
+ 0.137453 0 2 encap 230 ------- 0 4.3 2.0 -1 9
- 0.137453 0 2 encap 230 ------- 0 4.3 2.0 -1 9
r 0.137477 4 1 encap 230 ------- 0 4.3 2.0 -1 15
+ 0.137477 1 0 encap 230 ------- 0 4.3 2.0 -1 15
- 0.137477 1 0 encap 230 ------- 0 4.3 2.0 -1 15
+ 0.1375 4 1 encap 230 ------- 0 4.3 2.0 -1 21
- 0.1375 4 1 encap 230 ------- 0 4.3 2.0 -1 21
r 0.14118 0 2 encap 230 ------- 0 4.3 2.0 -1 5
+ 0.14118 2 0 cbr 210 ------- 1 4.1 1073741824.0 2 4
- 0.14118 2 0 cbr 210 ------- 1 4.1 1073741824.0 2 4
+ 0.14118 2 5 cbr 210 ------- 1 4.1 1073741824.0 2 4
- 0.14118 2 5 cbr 210 ------- 1 4.1 1073741824.0 2 4
r 0.141203 1 0 encap 230 ------- 0 4.3 2.0 -1 11
+ 0.141203 0 2 encap 230 ------- 0 4.3 2.0 -1 11
- 0.141203 0 2 encap 230 ------- 0 4.3 2.0 -1 11
r 0.141227 4 1 encap 230 ------- 0 4.3 2.0 -1 17
+ 0.141227 1 0 encap 230 ------- 0 4.3 2.0 -1 17
- 0.141227 1 0 encap 230 ------- 0 4.3 2.0 -1 17
+ 0.14125 4 1 encap 230 ------- 0 4.3 2.0 -1 23
- 0.14125 4 1 encap 230 ------- 0 4.3 2.0 -1 23
r 0.1448 2 0 cbr 210 ------- 1 4.1 1073741824.0 0 0
+ 0.1448 0 1 cbr 210 ------- 1 4.1 1073741824.0 0 0
- 0.1448 0 1 cbr 210 ------- 1 4.1 1073741824.0 0 0
r 0.1448 2 5 cbr 210 ------- 1 4.1 1073741824.0 0 0
r 0.14493 0 2 encap 230 ------- 0 4.3 2.0 -1 7
+ 0.14493 2 0 cbr 210 ------- 1 4.1 1073741824.0 3 6
- 0.14493 2 0 cbr 210 ------- 1 4.1 1073741824.0 3 6
+ 0.14493 2 5 cbr 210 ------- 1 4.1 1073741824.0 3 6
- 0.14493 2 5 cbr 210 ------- 1 4.1 1073741824.0 3 6
r 0.144953 1 0 encap 230 ------- 0 4.3 2.0 -1 13
+ 0.144953 0 2 encap 230 ------- 0 4.3 2.0 -1 13
- 0.144953 0 2 encap 230 ------- 0 4.3 2.0 -1 13
r 0.144977 4 1 encap 230 ------- 0 4.3 2.0 -1 19
+ 0.144977 1 0 encap 230 ------- 0 4.3 2.0 -1 19
- 0.144977 1 0 encap 230 ------- 0 4.3 2.0 -1 19
+ 0.145 4 1 encap 230 ------- 0 4.3 2.0 -1 25
- 0.145 4 1 encap 230 ------- 0 4.3 2.0 -1 25
r 0.14855 2 0 cbr 210 ------- 1 4.1 1073741824.0 1 2
+ 0.14855 0 1 cbr 210 ------- 1 4.1 1073741824.0 1 2
- 0.14855 0 1 cbr 210 ------- 1 4.1 1073741824.0 1 2
r 0.14855 2 5 cbr 210 ------- 1 4.1 1073741824.0 1 2
r 0.14868 0 2 encap 230 ------- 0 4.3 2.0 -1 9
+ 0.14868 2 0 cbr 210 ------- 1 4.1 1073741824.0 4 8
- 0.14868 2 0 cbr 210 ------- 1 4.1 1073741824.0 4 8
+ 0.14868 2 5 cbr 210 ------- 1 4.1 1073741824.0 4 8
- 0.14868 2 5 cbr 210 ------- 1 4.1 1073741824.0 4 8
r 0.148703 1 0 encap 230 ------- 0 4.3 2.0 -1 15
+ 0.148703 0 2 encap 230 ------- 0 4.3 2.0 -1 15
- 0.148703 0 2 encap 230 ------- 0 4.3 2.0 -1 15
r 0.148727 4 1 encap 230 ------- 0 4.3 2.0 -1 21
+ 0.148727 1 0 encap 230 ------- 0 4.3 2.0 -1 21
- 0.148727 1 0 encap 230 ------- 0 4.3 2.0 -1 21
+ 0.14875 4 1 encap 230 ------- 0 4.3 2.0 -1 27
- 0.14875 4 1 encap 230 ------- 0 4.3 2.0 -1 27
r 0.1523 2 0 cbr 210 ------- 1 4.1 1073741824.0 2 4
+ 0.1523 0 1 cbr 210 ------- 1 4.1 1073741824.0 2 4
- 0.1523 0 1 cbr 210 ------- 1 4.1 1073741824.0 2 4
r 0.1523 2 5 cbr 210 ------- 1 4.1 1073741824.0 2 4
r 0.15243 0 2 encap 230 ------- 0 4.3 2.0 -1 11
+ 0.15243 2 0 cbr 210 ------- 1 4.1 1073741824.0 5 10
- 0.15243 2 0 cbr 210 ------- 1 4.1 1073741824.0 5 10
+ 0.15243 2 5 cbr 210 ------- 1 4.1 1073741824.0 5 10
- 0.15243 2 5 cbr 210 ------- 1 4.1 1073741824.0 5 10
r 0.152453 1 0 encap 230 ------- 0 4.3 2.0 -1 17
+ 0.152453 0 2 encap 230 ------- 0 4.3 2.0 -1 17
- 0.152453 0 2 encap 230 ------- 0 4.3 2.0 -1 17
r 0.152477 4 1 encap 230 ------- 0 4.3 2.0 -1 23
+ 0.152477 1 0 encap 230 ------- 0 4.3 2.0 -1 23
- 0.152477 1 0 encap 230 ------- 0 4.3 2.0 -1 23
+ 0.1525 4 1 encap 230 ------- 0 4.3 2.0 -1 29
- 0.1525 4 1 encap 230 ------- 0 4.3 2.0 -1 29
r 0.15592 0 1 cbr 210 ------- 1 4.1 1073741824.0 0 0
+ 0.15592 1 3 cbr 210 ------- 1 4.1 1073741824.0 0 0
- 0.15592 1 3 cbr 210 ------- 1 4.1 1073741824.0 0 0
+ 0.15592 1 4 cbr 210 ------- 1 4.1 1073741824.0 0 0
- 0.15592 1 4 cbr 210 ------- 1 4.1 1073741824.0 0 0
r 0.15605 2 0 cbr 210 ------- 1 4.1 1073741824.0 3 6
+ 0.15605 0 1 cbr 210 ------- 1 4.1 1073741824.0 3 6
- 0.15605 0 1 cbr 210 ------- 1 4.1 1073741824.0 3 6
r 0.15605 2 5 cbr 210 ------- 1 4.1 1073741824.0 3 6
r 0.15618 0 2 encap 230 ------- 0 4.3 2.0 -1 13
+ 0.15618 2 0 cbr 210 ------- 1 4.1 1073741824.0 6 12
- 0.15618 2 0 cbr 210 ------- 1 4.1 1073741824.0 6 12
+ 0.15618 2 5 cbr 210 ------- 1 4.1 1073741824.0 6 12
- 0.15618 2 5 cbr 210 ------- 1 4.1 1073741824.0 6 12
r 0.156203 1 0 encap 230 ------- 0 4.3 2.0 -1 19
+ 0.156203 0 2 encap 230 ------- 0 4.3 2.0 -1 19
- 0.156203 0 2 encap 230 ------- 0 4.3 2.0 -1 19
r 0.156227 4 1 encap 230 ------- 0 4.3 2.0 -1 25
+ 0.156227 1 0 encap 230 ------- 0 4.3 2.0 -1 25
- 0.156227 1 0 encap 230 ------- 0 4.3 2.0 -1 25
+ 0.15625 4 1 encap 230 ------- 0 4.3 2.0 -1 31
- 0.15625 4 1 encap 230 ------- 0 4.3 2.0 -1 31
r 0.15967 0 1 cbr 210 ------- 1 4.1 1073741824.0 1 2
+ 0.15967 1 3 cbr 210 ------- 1 4.1 1073741824.0 1 2
- 0.15967 1 3 cbr 210 ------- 1 4.1 1073741824.0 1 2
+ 0.15967 1 4 cbr 210 ------- 1 4.1 1073741824.0 1 2
- 0.15967 1 4 cbr 210 ------- 1 4.1 1073741824.0 1 2
r 0.1598 2 0 cbr 210 ------- 1 4.1 1073741824.0 4 8
+ 0.1598 0 1 cbr 210 ------- 1 4.1 1073741824.0 4 8
- 0.1598 0 1 cbr 210 ------- 1 4.1 1073741824.0 4 8
r 0.1598 2 5 cbr 210 ------- 1 4.1 1073741824.0 4 8
r 0.15993 0 2 encap 230 ------- 0 4.3 2.0 -1 15
+ 0.15993 2 0 cbr 210 ------- 1 4.1 1073741824.0 7 14
- 0.15993 2 0 cbr 210 ------- 1 4.1 1073741824.0 7 14
+ 0.15993 2 5 cbr 210 ------- 1 4.1 1073741824.0 7 14
- 0.15993 2 5 cbr 210 ------- 1 4.1 1073741824.0 7 14
r 0.159953 1 0 encap 230 ------- 0 4.3 2.0 -1 21
+ 0.159953 0 2 encap 230 ------- 0 4.3 2.0 -1 21
- 0.159953 0 2 encap 230 ------- 0 4.3 2.0 -1 21
r 0.159977 4 1 encap 230 ------- 0 4.3 2.0 -1 27
+ 0.159977 1 0 encap 230 ------- 0 4.3 2.0 -1 27
- 0.159977 1 0 encap 230 ------- 0 4.3 2.0 -1 27
+ 0.16 4 1 encap 230 ------- 0 4.3 2.0 -1 33
- 0.16 4 1 encap 230 ------- 0 4.3 2.0 -1 33
r 0.16342 0 1 cbr 210 ------- 1 4.1 1073741824.0 2 4
+ 0.16342 1 3 cbr 210 ------- 1 4.1 1073741824.0 2 4
- 0.16342 1 3 cbr 210 ------- 1 4.1 1073741824.0 2 4
+ 0.16342 1 4 cbr 210 ------- 1 4.1 1073741824.0 2 4
- 0.16342 1 4 cbr 210 ------- 1 4.1 1073741824.0 2 4
r 0.16355 2 0 cbr 210 ------- 1 4.1 1073741824.0 5 10
+ 0.16355 0 1 cbr 210 ------- 1 4.1 1073741824.0 5 10
- 0.16355 0 1 cbr 210 ------- 1 4.1 1073741824.0 5 10
r 0.16355 2 5 cbr 210 ------- 1 4.1 1073741824.0 5 10
r 0.16368 0 2 encap 230 ------- 0 4.3 2.0 -1 17
+ 0.16368 2 0 cbr 210 ------- 1 4.1 1073741824.0 8 16
- 0.16368 2 0 cbr 210 ------- 1 4.1 1073741824.0 8 16
+ 0.16368 2 5 cbr 210 ------- 1 4.1 1073741824.0 8 16
- 0.16368 2 5 cbr 210 ------- 1 4.1 1073741824.0 8 16
r 0.163703 1 0 encap 230 ------- 0 4.3 2.0 -1 23
+ 0.163703 0 2 encap 230 ------- 0 4.3 2.0 -1 23
- 0.163703 0 2 encap 230 ------- 0 4.3 2.0 -1 23
r 0.163727 4 1 encap 230 ------- 0 4.3 2.0 -1 29
+ 0.163727 1 0 encap 230 ------- 0 4.3 2.0 -1 29
- 0.163727 1 0 encap 230 ------- 0 4.3 2.0 -1 29
+ 0.16375 4 1 encap 230 ------- 0 4.3 2.0 -1 35
- 0.16375 4 1 encap 230 ------- 0 4.3 2.0 -1 35
r 0.16704 1 3 cbr 210 ------- 1 4.1 1073741824.0 0 0
r 0.16704 1 4 cbr 210 ------- 1 4.1 1073741824.0 0 0
r 0.16717 0 1 cbr 210 ------- 1 4.1 1073741824.0 3 6
+ 0.16717 1 3 cbr 210 ------- 1 4.1 1073741824.0 3 6
- 0.16717 1 3 cbr 210 ------- 1 4.1 1073741824.0 3 6
+ 0.16717 1 4 cbr 210 ------- 1 4.1 1073741824.0 3 6
- 0.16717 1 4 cbr 210 ------- 1 4.1 1073741824.0 3 6
r 0.1673 2 0 cbr 210 ------- 1 4.1 1073741824.0 6 12
+ 0.1673 0 1 cbr 210 ------- 1 4.1 1073741824.0 6 12
- 0.1673 0 1 cbr 210 ------- 1 4.1 1073741824.0 6 12
r 0.1673 2 5 cbr 210 ------- 1 4.1 1073741824.0 6 12
r 0.16743 0 2 encap 230 ------- 0 4.3 2.0 -1 19
+ 0.16743 2 0 cbr 210 ------- 1 4.1 1073741824.0 9 18
- 0.16743 2 0 cbr 210 ------- 1 4.1 1073741824.0 9 18
+ 0.16743 2 5 cbr 210 ------- 1 4.1 1073741824.0 9 18
- 0.16743 2 5 cbr 210 ------- 1 4.1 1073741824.0 9 18
r 0.167453 1 0 encap 230 ------- 0 4.3 2.0 -1 25
+ 0.167453 0 2 encap 230 ------- 0 4.3 2.0 -1 25
- 0.167453 0 2 encap 230 ------- 0 4.3 2.0 -1 25
r 0.167477 4 1 encap 230 ------- 0 4.3 2.0 -1 31
+ 0.167477 1 0 encap 230 ------- 0 4.3 2.0 -1 31
- 0.167477 1 0 encap 230 ------- 0 4.3 2.0 -1 31
+ 0.1675 4 1 encap 230 ------- 0 4.3 2.0 -1 37
- 0.1675 4 1 encap 230 ------- 0 4.3 2.0 -1 37
r 0.17079 1 3 cbr 210 ------- 1 4.1 1073741824.0 1 2
r 0.17079 1 4 cbr 210 ------- 1 4.1 1073741824.0 1 2
r 0.17092 0 1 cbr 210 ------- 1 4.1 1073741824.0 4 8
+ 0.17092 1 3 cbr 210 ------- 1 4.1 1073741824.0 4 8
- 0.17092 1 3 cbr 210 ------- 1 4.1 1073741824.0 4 8
+ 0.17092 1 4 cbr 210 ------- 1 4.1 1073741824.0 4 8
- 0.17092 1 4 cbr 210 ------- 1 4.1 1073741824.0 4 8
r 0.17105 2 0 cbr 210 ------- 1 4.1 1073741824.0 7 14
+ 0.17105 0 1 cbr 210 ------- 1 4.1 1073741824.0 7 14
- 0.17105 0 1 cbr 210 ------- 1 4.1 1073741824.0 7 14
r 0.17105 2 5 cbr 210 ------- 1 4.1 1073741824.0 7 14
r 0.17118 0 2 encap 230 ------- 0 4.3 2.0 -1 21
+ 0.17118 2 0 cbr 210 ------- 1 4.1 1073741824.0 10 20
- 0.17118 2 0 cbr 210 ------- 1 4.1 1073741824.0 10 20
+ 0.17118 2 5 cbr 210 ------- 1 4.1 1073741824.0 10 20
- 0.17118 2 5 cbr 210 ------- 1 4.1 1073741824.0 10 20
r 0.171203 1 0 encap 230 ------- 0 4.3 2.0 -1 27
+ 0.171203 0 2 encap 230 ------- 0 4.3 2.0 -1 27
- 0.171203 0 2 encap 230 ------- 0 4.3 2.0 -1 27
r 0.171227 4 1 encap 230 ------- 0 4.3 2.0 -1 33
+ 0.171227 1 0 encap 230 ------- 0 4.3 2.0 -1 33
- 0.171227 1 0 encap 230 ------- 0 4.3 2.0 -1 33
+ 0.17125 4 1 encap 230 ------- 0 4.3 2.0 -1 39
- 0.17125 4 1 encap 230 ------- 0 4.3 2.0 -1 39
r 0.17454 1 3 cbr 210 ------- 1 4.1 1073741824.0 2 4
r 0.17454 1 4 cbr 210 ------- 1 4.1 1073741824.0 2 4
r 0.17467 0 1 cbr 210 ------- 1 4.1 1073741824.0 5 10
+ 0.17467 1 3 cbr 210 ------- 1 4.1 1073741824.0 5 10
- 0.17467 1 3 cbr 210 ------- 1 4.1 1073741824.0 5 10
+ 0.17467 1 4 cbr 210 ------- 1 4.1 1073741824.0 5 10
- 0.17467 1 4 cbr 210 ------- 1 4.1 1073741824.0 5 10
r 0.1748 2 0 cbr 210 ------- 1 4.1 1073741824.0 8 16
+ 0.1748 0 1 cbr 210 ------- 1 4.1 1073741824.0 8 16
- 0.1748 0 1 cbr 210 ------- 1 4.1 1073741824.0 8 16
r 0.1748 2 5 cbr 210 ------- 1 4.1 1073741824.0 8 16
r 0.17493 0 2 encap 230 ------- 0 4.3 2.0 -1 23
+ 0.17493 2 0 cbr 210 ------- 1 4.1 1073741824.0 11 22
- 0.17493 2 0 cbr 210 ------- 1 4.1 1073741824.0 11 22
+ 0.17493 2 5 cbr 210 ------- 1 4.1 1073741824.0 11 22
- 0.17493 2 5 cbr 210 ------- 1 4.1 1073741824.0 11 22
r 0.174953 1 0 encap 230 ------- 0 4.3 2.0 -1 29
+ 0.174953 0 2 encap 230 ------- 0 4.3 2.0 -1 29
- 0.174953 0 2 encap 230 ------- 0 4.3 2.0 -1 29
r 0.174977 4 1 encap 230 ------- 0 4.3 2.0 -1 35
+ 0.174977 1 0 encap 230 ------- 0 4.3 2.0 -1 35
- 0.174977 1 0 encap 230 ------- 0 4.3 2.0 -1 35
+ 0.175 4 1 encap 230 ------- 0 4.3 2.0 -1 41
- 0.175 4 1 encap 230 ------- 0 4.3 2.0 -1 41
r 0.17829 1 3 cbr 210 ------- 1 4.1 1073741824.0 3 6
r 0.17829 1 4 cbr 210 ------- 1 4.1 1073741824.0 3 6
r 0.17842 0 1 cbr 210 ------- 1 4.1 1073741824.0 6 12
+ 0.17842 1 3 cbr 210 ------- 1 4.1 1073741824.0 6 12
- 0.17842 1 3 cbr 210 ------- 1 4.1 1073741824.0 6 12
+ 0.17842 1 4 cbr 210 ------- 1 4.1 1073741824.0 6 12
- 0.17842 1 4 cbr 210 ------- 1 4.1 1073741824.0 6 12
r 0.17855 2 0 cbr 210 ------- 1 4.1 1073741824.0 9 18
+ 0.17855 0 1 cbr 210 ------- 1 4.1 1073741824.0 9 18
- 0.17855 0 1 cbr 210 ------- 1 4.1 1073741824.0 9 18
r 0.17855 2 5 cbr 210 ------- 1 4.1 1073741824.0 9 18
r 0.17868 0 2 encap 230 ------- 0 4.3 2.0 -1 25
+ 0.17868 2 0 cbr 210 ------- 1 4.1 1073741824.0 12 24
- 0.17868 2 0 cbr 210 ------- 1 4.1 1073741824.0 12 24
+ 0.17868 2 5 cbr 210 ------- 1 4.1 1073741824.0 12 24
- 0.17868 2 5 cbr 210 ------- 1 4.1 1073741824.0 12 24
r 0.178703 1 0 encap 230 ------- 0 4.3 2.0 -1 31
+ 0.178703 0 2 encap 230 ------- 0 4.3 2.0 -1 31
- 0.178703 0 2 encap 230 ------- 0 4.3 2.0 -1 31
r 0.178727 4 1 encap 230 ------- 0 4.3 2.0 -1 37
+ 0.178727 1 0 encap 230 ------- 0 4.3 2.0 -1 37
- 0.178727 1 0 encap 230 ------- 0 4.3 2.0 -1 37
+ 0.17875 4 1 encap 230 ------- 0 4.3 2.0 -1 43
- 0.17875 4 1 encap 230 ------- 0 4.3 2.0 -1 43
r 0.18204 1 3 cbr 210 ------- 1 4.1 1073741824.0 4 8
r 0.18204 1 4 cbr 210 ------- 1 4.1 1073741824.0 4 8
r 0.18217 0 1 cbr 210 ------- 1 4.1 1073741824.0 7 14
+ 0.18217 1 3 cbr 210 ------- 1 4.1 1073741824.0 7 14
- 0.18217 1 3 cbr 210 ------- 1 4.1 1073741824.0 7 14
+ 0.18217 1 4 cbr 210 ------- 1 4.1 1073741824.0 7 14
- 0.18217 1 4 cbr 210 ------- 1 4.1 1073741824.0 7 14
r 0.1823 2 0 cbr 210 ------- 1 4.1 1073741824.0 10 20
+ 0.1823 0 1 cbr 210 ------- 1 4.1 1073741824.0 10 20
- 0.1823 0 1 cbr 210 ------- 1 4.1 1073741824.0 10 20
r 0.1823 2 5 cbr 210 ------- 1 4.1 1073741824.0 10 20
r 0.18243 0 2 encap 230 ------- 0 4.3 2.0 -1 27
+ 0.18243 2 0 cbr 210 ------- 1 4.1 1073741824.0 13 26
- 0.18243 2 0 cbr 210 ------- 1 4.1 1073741824.0 13 26
+ 0.18243 2 5 cbr 210 ------- 1 4.1 1073741824.0 13 26
- 0.18243 2 5 cbr 210 ------- 1 4.1 1073741824.0 13 26
r 0.182453 1 0 encap 230 ------- 0 4.3 2.0 -1 33
+ 0.182453 0 2 encap 230 ------- 0 4.3 2.0 -1 33
- 0.182453 0 2 encap 230 ------- 0 4.3 2.0 -1 33
r 0.182477 4 1 encap 230 ------- 0 4.3 2.0 -1 39
+ 0.182477 1 0 encap 230 ------- 0 4.3 2.0 -1 39
- 0.182477 1 0 encap 230 ------- 0 4.3 2.0 -1 39
+ 0.1825 4 1 encap 230 ------- 0 4.3 2.0 -1 45
- 0.1825 4 1 encap 230 ------- 0 4.3 2.0 -1 45
r 0.18579 1 3 cbr 210 ------- 1 4.1 1073741824.0 5 10
r 0.18579 1 4 cbr 210 ------- 1 4.1 1073741824.0 5 10
r 0.18592 0 1 cbr 210 ------- 1 4.1 1073741824.0 8 16
+ 0.18592 1 3 cbr 210 ------- 1 4.1 1073741824.0 8 16
- 0.18592 1 3 cbr 210 ------- 1 4.1 1073741824.0 8 16
+ 0.18592 1 4 cbr 210 ------- 1 4.1 1073741824.0 8 16
- 0.18592 1 4 cbr 210 ------- 1 4.1 1073741824.0 8 16
r 0.18605 2 0 cbr 210 ------- 1 4.1 1073741824.0 11 22
+ 0.18605 0 1 cbr 210 ------- 1 4.1 1073741824.0 11 22
- 0.18605 0 1 cbr 210 ------- 1 4.1 1073741824.0 11 22
r 0.18605 2 5 cbr 210 ------- 1 4.1 1073741824.0 11 22
r 0.18618 0 2 encap 230 ------- 0 4.3 2.0 -1 29
+ 0.18618 2 0 cbr 210 ------- 1 4.1 1073741824.0 14 28
- 0.18618 2 0 cbr 210 ------- 1 4.1 1073741824.0 14 28
+ 0.18618 2 5 cbr 210 ------- 1 4.1 1073741824.0 14 28
- 0.18618 2 5 cbr 210 ------- 1 4.1 1073741824.0 14 28
r 0.186203 1 0 encap 230 ------- 0 4.3 2.0 -1 35
+ 0.186203 0 2 encap 230 ------- 0 4.3 2.0 -1 35
- 0.186203 0 2 encap 230 ------- 0 4.3 2.0 -1 35
r 0.186227 4 1 encap 230 ------- 0 4.3 2.0 -1 41
+ 0.186227 1 0 encap 230 ------- 0 4.3 2.0 -1 41
- 0.186227 1 0 encap 230 ------- 0 4.3 2.0 -1 41
+ 0.18625 4 1 encap 230 ------- 0 4.3 2.0 -1 47
- 0.18625 4 1 encap 230 ------- 0 4.3 2.0 -1 47
r 0.18954 1 3 cbr 210 ------- 1 4.1 1073741824.0 6 12
r 0.18954 1 4 cbr 210 ------- 1 4.1 1073741824.0 6 12
r 0.18967 0 1 cbr 210 ------- 1 4.1 1073741824.0 9 18
+ 0.18967 1 3 cbr 210 ------- 1 4.1 1073741824.0 9 18
- 0.18967 1 3 cbr 210 ------- 1 4.1 1073741824.0 9 18
+ 0.18967 1 4 cbr 210 ------- 1 4.1 1073741824.0 9 18
- 0.18967 1 4 cbr 210 ------- 1 4.1 1073741824.0 9 18
r 0.1898 2 0 cbr 210 ------- 1 4.1 1073741824.0 12 24
+ 0.1898 0 1 cbr 210 ------- 1 4.1 1073741824.0 12 24
- 0.1898 0 1 cbr 210 ------- 1 4.1 1073741824.0 12 24
r 0.1898 2 5 cbr 210 ------- 1 4.1 1073741824.0 12 24
r 0.18993 0 2 encap 230 ------- 0 4.3 2.0 -1 31
+ 0.18993 2 0 cbr 210 ------- 1 4.1 1073741824.0 15 30
- 0.18993 2 0 cbr 210 ------- 1 4.1 1073741824.0 15 30
+ 0.18993 2 5 cbr 210 ------- 1 4.1 1073741824.0 15 30
- 0.18993 2 5 cbr 210 ------- 1 4.1 1073741824.0 15 30
r 0.189953 1 0 encap 230 ------- 0 4.3 2.0 -1 37
+ 0.189953 0 2 encap 230 ------- 0 4.3 2.0 -1 37
- 0.189953 0 2 encap 230 ------- 0 4.3 2.0 -1 37
r 0.189977 4 1 encap 230 ------- 0 4.3 2.0 -1 43
+ 0.189977 1 0 encap 230 ------- 0 4.3 2.0 -1 43
- 0.189977 1 0 encap 230 ------- 0 4.3 2.0 -1 43
+ 0.19 4 1 encap 230 ------- 0 4.3 2.0 -1 49
- 0.19 4 1 encap 230 ------- 0 4.3 2.0 -1 49
r 0.19329 1 3 cbr 210 ------- 1 4.1 1073741824.0 7 14
r 0.19329 1 4 cbr 210 ------- 1 4.1 1073741824.0 7 14
r 0.19342 0 1 cbr 210 ------- 1 4.1 1073741824.0 10 20
+ 0.19342 1 3 cbr 210 ------- 1 4.1 1073741824.0 10 20
- 0.19342 1 3 cbr 210 ------- 1 4.1 1073741824.0 10 20
+ 0.19342 1 4 cbr 210 ------- 1 4.1 1073741824.0 10 20
- 0.19342 1 4 cbr 210 ------- 1 4.1 1073741824.0 10 20
r 0.19355 2 0 cbr 210 ------- 1 4.1 1073741824.0 13 26
+ 0.19355 0 1 cbr 210 ------- 1 4.1 1073741824.0 13 26
- 0.19355 0 1 cbr 210 ------- 1 4.1 1073741824.0 13 26
r 0.19355 2 5 cbr 210 ------- 1 4.1 1073741824.0 13 26
r 0.19368 0 2 encap 230 ------- 0 4.3 2.0 -1 33
+ 0.19368 2 0 cbr 210 ------- 1 4.1 1073741824.0 16 32
- 0.19368 2 0 cbr 210 ------- 1 4.1 1073741824.0 16 32
+ 0.19368 2 5 cbr 210 ------- 1 4.1 1073741824.0 16 32
- 0.19368 2 5 cbr 210 ------- 1 4.1 1073741824.0 16 32
r 0.193703 1 0 encap 230 ------- 0 4.3 2.0 -1 39
+ 0.193703 0 2 encap 230 ------- 0 4.3 2.0 -1 39
- 0.193703 0 2 encap 230 ------- 0 4.3 2.0 -1 39
r 0.193727 4 1 encap 230 ------- 0 4.3 2.0 -1 45
+ 0.193727 1 0 encap 230 ------- 0 4.3 2.0 -1 45
- 0.193727 1 0 encap 230 ------- 0 4.3 2.0 -1 45
+ 0.19375 4 1 encap 230 ------- 0 4.3 2.0 -1 51
- 0.19375 4 1 encap 230 ------- 0 4.3 2.0 -1 51
r 0.19704 1 3 cbr 210 ------- 1 4.1 1073741824.0 8 16
r 0.19704 1 4 cbr 210 ------- 1 4.1 1073741824.0 8 16
r 0.19717 0 1 cbr 210 ------- 1 4.1 1073741824.0 11 22
+ 0.19717 1 3 cbr 210 ------- 1 4.1 1073741824.0 11 22
- 0.19717 1 3 cbr 210 ------- 1 4.1 1073741824.0 11 22
+ 0.19717 1 4 cbr 210 ------- 1 4.1 1073741824.0 11 22
- 0.19717 1 4 cbr 210 ------- 1 4.1 1073741824.0 11 22
r 0.1973 2 0 cbr 210 ------- 1 4.1 1073741824.0 14 28
+ 0.1973 0 1 cbr 210 ------- 1 4.1 1073741824.0 14 28
- 0.1973 0 1 cbr 210 ------- 1 4.1 1073741824.0 14 28
r 0.1973 2 5 cbr 210 ------- 1 4.1 1073741824.0 14 28
r 0.19743 0 2 encap 230 ------- 0 4.3 2.0 -1 35
+ 0.19743 2 0 cbr 210 ------- 1 4.1 1073741824.0 17 34
- 0.19743 2 0 cbr 210 ------- 1 4.1 1073741824.0 17 34
+ 0.19743 2 5 cbr 210 ------- 1 4.1 1073741824.0 17 34
- 0.19743 2 5 cbr 210 ------- 1 4.1 1073741824.0 17 34
r 0.197453 1 0 encap 230 ------- 0 4.3 2.0 -1 41
+ 0.197453 0 2 encap 230 ------- 0 4.3 2.0 -1 41
- 0.197453 0 2 encap 230 ------- 0 4.3 2.0 -1 41
r 0.197477 4 1 encap 230 ------- 0 4.3 2.0 -1 47
+ 0.197477 1 0 encap 230 ------- 0 4.3 2.0 -1 47
- 0.197477 1 0 encap 230 ------- 0 4.3 2.0 -1 47
+ 0.1975 4 1 encap 230 ------- 0 4.3 2.0 -1 53
- 0.1975 4 1 encap 230 ------- 0 4.3 2.0 -1 53
r 0.20079 1 3 cbr 210 ------- 1 4.1 1073741824.0 9 18
r 0.20079 1 4 cbr 210 ------- 1 4.1 1073741824.0 9 18
r 0.20092 0 1 cbr 210 ------- 1 4.1 1073741824.0 12 24
+ 0.20092 1 3 cbr 210 ------- 1 4.1 1073741824.0 12 24
- 0.20092 1 3 cbr 210 ------- 1 4.1 1073741824.0 12 24
+ 0.20092 1 4 cbr 210 ------- 1 4.1 1073741824.0 12 24
- 0.20092 1 4 cbr 210 ------- 1 4.1 1073741824.0 12 24
r 0.20105 2 0 cbr 210 ------- 1 4.1 1073741824.0 15 30
+ 0.20105 0 1 cbr 210 ------- 1 4.1 1073741824.0 15 30
- 0.20105 0 1 cbr 210 ------- 1 4.1 1073741824.0 15 30
r 0.20105 2 5 cbr 210 ------- 1 4.1 1073741824.0 15 30
r 0.20118 0 2 encap 230 ------- 0 4.3 2.0 -1 37
+ 0.20118 2 0 cbr 210 ------- 1 4.1 1073741824.0 18 36
- 0.20118 2 0 cbr 210 ------- 1 4.1 1073741824.0 18 36
+ 0.20118 2 5 cbr 210 ------- 1 4.1 1073741824.0 18 36
- 0.20118 2 5 cbr 210 ------- 1 4.1 1073741824.0 18 36
r 0.201203 1 0 encap 230 ------- 0 4.3 2.0 -1 43
+ 0.201203 0 2 encap 230 ------- 0 4.3 2.0 -1 43
- 0.201203 0 2 encap 230 ------- 0 4.3 2.0 -1 43
r 0.201227 4 1 encap 230 ------- 0 4.3 2.0 -1 49
+ 0.201227 1 0 encap 230 ------- 0 4.3 2.0 -1 49
- 0.201227 1 0 encap 230 ------- 0 4.3 2.0 -1 49
+ 0.20125 4 1 encap 230 ------- 0 4.3 2.0 -1 55
- 0.20125 4 1 encap 230 ------- 0 4.3 2.0 -1 55
r 0.20454 1 3 cbr 210 ------- 1 4.1 1073741824.0 10 20
r 0.20454 1 4 cbr 210 ------- 1 4.1 1073741824.0 10 20
r 0.20467 0 1 cbr 210 ------- 1 4.1 1073741824.0 13 26
+ 0.20467 1 3 cbr 210 ------- 1 4.1 1073741824.0 13 26
- 0.20467 1 3 cbr 210 ------- 1 4.1 1073741824.0 13 26
+ 0.20467 1 4 cbr 210 ------- 1 4.1 1073741824.0 13 26
- 0.20467 1 4 cbr 210 ------- 1 4.1 1073741824.0 13 26
r 0.2048 2 0 cbr 210 ------- 1 4.1 1073741824.0 16 32
+ 0.2048 0 1 cbr 210 ------- 1 4.1 1073741824.0 16 32
- 0.2048 0 1 cbr 210 ------- 1 4.1 1073741824.0 16 32
r 0.2048 2 5 cbr 210 ------- 1 4.1 1073741824.0 16 32
r 0.20493 0 2 encap 230 ------- 0 4.3 2.0 -1 39
+ 0.20493 2 0 cbr 210 ------- 1 4.1 1073741824.0 19 38
- 0.20493 2 0 cbr 210 ------- 1 4.1 1073741824.0 19 38
+ 0.20493 2 5 cbr 210 ------- 1 4.1 1073741824.0 19 38
- 0.20493 2 5 cbr 210 ------- 1 4.1 1073741824.0 19 38
r 0.204953 1 0 encap 230 ------- 0 4.3 2.0 -1 45
+ 0.204953 0 2 encap 230 ------- 0 4.3 2.0 -1 45
- 0.204953 0 2 encap 230 ------- 0 4.3 2.0 -1 45
r 0.204977 4 1 encap 230 ------- 0 4.3 2.0 -1 51
+ 0.204977 1 0 encap 230 ------- 0 4.3 2.0 -1 51
- 0.204977 1 0 encap 230 ------- 0 4.3 2.0 -1 51
+ 0.205 4 1 encap 230 ------- 0 4.3 2.0 -1 57
- 0.205 4 1 encap 230 ------- 0 4.3 2.0 -1 57
r 0.20829 1 3 cbr 210 ------- 1 4.1 1073741824.0 11 22
r 0.20829 1 4 cbr 210 ------- 1 4.1 1073741824.0 11 22
r 0.20842 0 1 cbr 210 ------- 1 4.1 1073741824.0 14 28
+ 0.20842 1 3 cbr 210 ------- 1 4.1 1073741824.0 14 28
- 0.20842 1 3 cbr 210 ------- 1 4.1 1073741824.0 14 28
+ 0.20842 1 4 cbr 210 ------- 1 4.1 1073741824.0 14 28
- 0.20842 1 4 cbr 210 ------- 1 4.1 1073741824.0 14 28
r 0.20855 2 0 cbr 210 ------- 1 4.1 1073741824.0 17 34
+ 0.20855 0 1 cbr 210 ------- 1 4.1 1073741824.0 17 34
- 0.20855 0 1 cbr 210 ------- 1 4.1 1073741824.0 17 34
r 0.20855 2 5 cbr 210 ------- 1 4.1 1073741824.0 17 34
r 0.20868 0 2 encap 230 ------- 0 4.3 2.0 -1 41
+ 0.20868 2 0 cbr 210 ------- 1 4.1 1073741824.0 20 40
- 0.20868 2 0 cbr 210 ------- 1 4.1 1073741824.0 20 40
+ 0.20868 2 5 cbr 210 ------- 1 4.1 1073741824.0 20 40
- 0.20868 2 5 cbr 210 ------- 1 4.1 1073741824.0 20 40
r 0.208703 1 0 encap 230 ------- 0 4.3 2.0 -1 47
+ 0.208703 0 2 encap 230 ------- 0 4.3 2.0 -1 47
- 0.208703 0 2 encap 230 ------- 0 4.3 2.0 -1 47
r 0.208727 4 1 encap 230 ------- 0 4.3 2.0 -1 53
+ 0.208727 1 0 encap 230 ------- 0 4.3 2.0 -1 53
- 0.208727 1 0 encap 230 ------- 0 4.3 2.0 -1 53
+ 0.20875 4 1 encap 230 ------- 0 4.3 2.0 -1 59
- 0.20875 4 1 encap 230 ------- 0 4.3 2.0 -1 59
r 0.21204 1 3 cbr 210 ------- 1 4.1 1073741824.0 12 24
r 0.21204 1 4 cbr 210 ------- 1 4.1 1073741824.0 12 24
r 0.21217 0 1 cbr 210 ------- 1 4.1 1073741824.0 15 30
+ 0.21217 1 3 cbr 210 ------- 1 4.1 1073741824.0 15 30
- 0.21217 1 3 cbr 210 ------- 1 4.1 1073741824.0 15 30
+ 0.21217 1 4 cbr 210 ------- 1 4.1 1073741824.0 15 30
- 0.21217 1 4 cbr 210 ------- 1 4.1 1073741824.0 15 30
r 0.2123 2 0 cbr 210 ------- 1 4.1 1073741824.0 18 36
+ 0.2123 0 1 cbr 210 ------- 1 4.1 1073741824.0 18 36
- 0.2123 0 1 cbr 210 ------- 1 4.1 1073741824.0 18 36
r 0.2123 2 5 cbr 210 ------- 1 4.1 1073741824.0 18 36
r 0.21243 0 2 encap 230 ------- 0 4.3 2.0 -1 43
+ 0.21243 2 0 cbr 210 ------- 1 4.1 1073741824.0 21 42
- 0.21243 2 0 cbr 210 ------- 1 4.1 1073741824.0 21 42
+ 0.21243 2 5 cbr 210 ------- 1 4.1 1073741824.0 21 42
- 0.21243 2 5 cbr 210 ------- 1 4.1 1073741824.0 21 42
r 0.212453 1 0 encap 230 ------- 0 4.3 2.0 -1 49
+ 0.212453 0 2 encap 230 ------- 0 4.3 2.0 -1 49
- 0.212453 0 2 encap 230 ------- 0 4.3 2.0 -1 49
r 0.212477 4 1 encap 230 ------- 0 4.3 2.0 -1 55
+ 0.212477 1 0 encap 230 ------- 0 4.3 2.0 -1 55
- 0.212477 1 0 encap 230 ------- 0 4.3 2.0 -1 55
+ 0.2125 4 1 encap 230 ------- 0 4.3 2.0 -1 61
- 0.2125 4 1 encap 230 ------- 0 4.3 2.0 -1 61
r 0.21579 1 3 cbr 210 ------- 1 4.1 1073741824.0 13 26
r 0.21579 1 4 cbr 210 ------- 1 4.1 1073741824.0 13 26
r 0.21592 0 1 cbr 210 ------- 1 4.1 1073741824.0 16 32
+ 0.21592 1 3 cbr 210 ------- 1 4.1 1073741824.0 16 32
- 0.21592 1 3 cbr 210 ------- 1 4.1 1073741824.0 16 32
+ 0.21592 1 4 cbr 210 ------- 1 4.1 1073741824.0 16 32
- 0.21592 1 4 cbr 210 ------- 1 4.1 1073741824.0 16 32
r 0.21605 2 0 cbr 210 ------- 1 4.1 1073741824.0 19 38
+ 0.21605 0 1 cbr 210 ------- 1 4.1 1073741824.0 19 38
- 0.21605 0 1 cbr 210 ------- 1 4.1 1073741824.0 19 38
r 0.21605 2 5 cbr 210 ------- 1 4.1 1073741824.0 19 38
r 0.21618 0 2 encap 230 ------- 0 4.3 2.0 -1 45
+ 0.21618 2 0 cbr 210 ------- 1 4.1 1073741824.0 22 44
- 0.21618 2 0 cbr 210 ------- 1 4.1 1073741824.0 22 44
+ 0.21618 2 5 cbr 210 ------- 1 4.1 1073741824.0 22 44
- 0.21618 2 5 cbr 210 ------- 1 4.1 1073741824.0 22 44
r 0.216203 1 0 encap 230 ------- 0 4.3 2.0 -1 51
+ 0.216203 0 2 encap 230 ------- 0 4.3 2.0 -1 51
- 0.216203 0 2 encap 230 ------- 0 4.3 2.0 -1 51
r 0.216227 4 1 encap 230 ------- 0 4.3 2.0 -1 57
+ 0.216227 1 0 encap 230 ------- 0 4.3 2.0 -1 57
- 0.216227 1 0 encap 230 ------- 0 4.3 2.0 -1 57
+ 0.21625 4 1 encap 230 ------- 0 4.3 2.0 -1 63
- 0.21625 4 1 encap 230 ------- 0 4.3 2.0 -1 63
r 0.21954 1 3 cbr 210 ------- 1 4.1 1073741824.0 14 28
r 0.21954 1 4 cbr 210 ------- 1 4.1 1073741824.0 14 28
r 0.21967 0 1 cbr 210 ------- 1 4.1 1073741824.0 17 34
+ 0.21967 1 3 cbr 210 ------- 1 4.1 1073741824.0 17 34
- 0.21967 1 3 cbr 210 ------- 1 4.1 1073741824.0 17 34
+ 0.21967 1 4 cbr 210 ------- 1 4.1 1073741824.0 17 34
- 0.21967 1 4 cbr 210 ------- 1 4.1 1073741824.0 17 34
r 0.2198 2 0 cbr 210 ------- 1 4.1 1073741824.0 20 40
+ 0.2198 0 1 cbr 210 ------- 1 4.1 1073741824.0 20 40
- 0.2198 0 1 cbr 210 ------- 1 4.1 1073741824.0 20 40
r 0.2198 2 5 cbr 210 ------- 1 4.1 1073741824.0 20 40
r 0.21993 0 2 encap 230 ------- 0 4.3 2.0 -1 47
+ 0.21993 2 0 cbr 210 ------- 1 4.1 1073741824.0 23 46
- 0.21993 2 0 cbr 210 ------- 1 4.1 1073741824.0 23 46
+ 0.21993 2 5 cbr 210 ------- 1 4.1 1073741824.0 23 46
- 0.21993 2 5 cbr 210 ------- 1 4.1 1073741824.0 23 46
r 0.219953 1 0 encap 230 ------- 0 4.3 2.0 -1 53
+ 0.219953 0 2 encap 230 ------- 0 4.3 2.0 -1 53
- 0.219953 0 2 encap 230 ------- 0 4.3 2.0 -1 53
r 0.219977 4 1 encap 230 ------- 0 4.3 2.0 -1 59
+ 0.219977 1 0 encap 230 ------- 0 4.3 2.0 -1 59
- 0.219977 1 0 encap 230 ------- 0 4.3 2.0 -1 59
+ 0.22 4 1 encap 230 ------- 0 4.3 2.0 -1 65
- 0.22 4 1 encap 230 ------- 0 4.3 2.0 -1 65
r 0.22329 1 3 cbr 210 ------- 1 4.1 1073741824.0 15 30
r 0.22329 1 4 cbr 210 ------- 1 4.1 1073741824.0 15 30
r 0.22342 0 1 cbr 210 ------- 1 4.1 1073741824.0 18 36
+ 0.22342 1 3 cbr 210 ------- 1 4.1 1073741824.0 18 36
- 0.22342 1 3 cbr 210 ------- 1 4.1 1073741824.0 18 36
+ 0.22342 1 4 cbr 210 ------- 1 4.1 1073741824.0 18 36
- 0.22342 1 4 cbr 210 ------- 1 4.1 1073741824.0 18 36
r 0.22355 2 0 cbr 210 ------- 1 4.1 1073741824.0 21 42
+ 0.22355 0 1 cbr 210 ------- 1 4.1 1073741824.0 21 42
- 0.22355 0 1 cbr 210 ------- 1 4.1 1073741824.0 21 42
r 0.22355 2 5 cbr 210 ------- 1 4.1 1073741824.0 21 42
r 0.22368 0 2 encap 230 ------- 0 4.3 2.0 -1 49
+ 0.22368 2 0 cbr 210 ------- 1 4.1 1073741824.0 24 48