+ 0 2 3 cbr 250 ------- 1 2.0 3.0 0 0
- 0 2 3 cbr 250 ------- 1 2.0 3.0 0 0
+ 0 2 3 cbr 250 ------- 2 2.1 3.0 0 1
+ 0 2 3 cbr 250 ------- 3 2.2 3.0 0 2
+ 0 2 3 cbr 250 ------- 4 2.3 3.0 0 3
- 0.013333 2 3 cbr 250 ------- 2 2.1 3.0 0 1
r 0.014333 2 3 cbr 250 ------- 1 2.0 3.0 0 0
+ 0.02 2 3 cbr 250 ------- 1 2.0 3.0 1 4
+ 0.02 2 3 cbr 250 ------- 2 2.1 3.0 1 5
+ 0.02 2 3 cbr 250 ------- 3 2.2 3.0 1 6
+ 0.02 2 3 cbr 250 ------- 4 2.3 3.0 1 7
- 0.026667 2 3 cbr 250 ------- 3 2.2 3.0 0 2
r 0.027667 2 3 cbr 250 ------- 2 2.1 3.0 0 1
+ 0.04 2 3 cbr 250 ------- 1 2.0 3.0 2 8
+ 0.04 2 3 cbr 250 ------- 2 2.1 3.0 2 9
+ 0.04 2 3 cbr 250 ------- 3 2.2 3.0 2 10
+ 0.04 2 3 cbr 250 ------- 4 2.3 3.0 2 11
- 0.04 2 3 cbr 250 ------- 1 2.0 3.0 1 4
r 0.041 2 3 cbr 250 ------- 3 2.2 3.0 0 2
- 0.053333 2 3 cbr 250 ------- 2 2.1 3.0 1 5
r 0.054333 2 3 cbr 250 ------- 1 2.0 3.0 1 4
+ 0.06 2 3 cbr 250 ------- 1 2.0 3.0 3 12
+ 0.06 2 3 cbr 250 ------- 2 2.1 3.0 3 13
+ 0.06 2 3 cbr 250 ------- 3 2.2 3.0 3 14
+ 0.06 2 3 cbr 250 ------- 4 2.3 3.0 3 15
- 0.066667 2 3 cbr 250 ------- 1 2.0 3.0 2 8
r 0.067667 2 3 cbr 250 ------- 2 2.1 3.0 1 5
+ 0.08 2 3 cbr 250 ------- 1 2.0 3.0 4 16
+ 0.08 2 3 cbr 250 ------- 2 2.1 3.0 4 17
+ 0.08 2 3 cbr 250 ------- 3 2.2 3.0 4 18
+ 0.08 2 3 cbr 250 ------- 4 2.3 3.0 4 19
- 0.08 2 3 cbr 250 ------- 4 2.3 3.0 0 3
r 0.081 2 3 cbr 250 ------- 1 2.0 3.0 2 8
- 0.093333 2 3 cbr 250 ------- 1 2.0 3.0 3 12
r 0.094333 2 3 cbr 250 ------- 4 2.3 3.0 0 3
+ 0.1 2 3 cbr 250 ------- 1 2.0 3.0 5 20
+ 0.1 2 3 cbr 250 ------- 2 2.1 3.0 5 21
+ 0.1 2 3 cbr 250 ------- 3 2.2 3.0 5 22
+ 0.1 2 3 cbr 250 ------- 4 2.3 3.0 5 23
- 0.106667 2 3 cbr 250 ------- 2 2.1 3.0 2 9
r 0.107667 2 3 cbr 250 ------- 1 2.0 3.0 3 12
+ 0.12 2 3 cbr 250 ------- 1 2.0 3.0 6 24
+ 0.12 2 3 cbr 250 ------- 2 2.1 3.0 6 25
+ 0.12 2 3 cbr 250 ------- 3 2.2 3.0 6 26
+ 0.12 2 3 cbr 250 ------- 4 2.3 3.0 6 27
- 0.12 2 3 cbr 250 ------- 1 2.0 3.0 4 16
r 0.121 2 3 cbr 250 ------- 2 2.1 3.0 2 9
- 0.133333 2 3 cbr 250 ------- 3 2.2 3.0 1 6
r 0.134333 2 3 cbr 250 ------- 1 2.0 3.0 4 16
+ 0.14 2 3 cbr 250 ------- 1 2.0 3.0 7 28
+ 0.14 2 3 cbr 250 ------- 2 2.1 3.0 7 29
+ 0.14 2 3 cbr 250 ------- 3 2.2 3.0 7 30
+ 0.14 2 3 cbr 250 ------- 4 2.3 3.0 7 31
- 0.146667 2 3 cbr 250 ------- 1 2.0 3.0 5 20
r 0.147667 2 3 cbr 250 ------- 3 2.2 3.0 1 6
+ 0.16 2 3 cbr 250 ------- 1 2.0 3.0 8 32
+ 0.16 2 3 cbr 250 ------- 2 2.1 3.0 8 33
+ 0.16 2 3 cbr 250 ------- 3 2.2 3.0 8 34
+ 0.16 2 3 cbr 250 ------- 4 2.3 3.0 8 35
- 0.16 2 3 cbr 250 ------- 2 2.1 3.0 3 13
r 0.161 2 3 cbr 250 ------- 1 2.0 3.0 5 20
- 0.173333 2 3 cbr 250 ------- 1 2.0 3.0 6 24
r 0.174333 2 3 cbr 250 ------- 2 2.1 3.0 3 13
+ 0.18 2 3 cbr 250 ------- 1 2.0 3.0 9 36
+ 0.18 2 3 cbr 250 ------- 2 2.1 3.0 9 37
+ 0.18 2 3 cbr 250 ------- 3 2.2 3.0 9 38
+ 0.18 2 3 cbr 250 ------- 4 2.3 3.0 9 39
- 0.186667 2 3 cbr 250 ------- 1 2.0 3.0 7 28
r 0.187667 2 3 cbr 250 ------- 1 2.0 3.0 6 24
+ 0.2 2 3 cbr 250 ------- 1 2.0 3.0 10 40
+ 0.2 2 3 cbr 250 ------- 2 2.1 3.0 10 41
+ 0.2 2 3 cbr 250 ------- 3 2.2 3.0 10 42
+ 0.2 2 3 cbr 250 ------- 4 2.3 3.0 10 43
- 0.2 2 3 cbr 250 ------- 2 2.1 3.0 4 17
r 0.201 2 3 cbr 250 ------- 1 2.0 3.0 7 28
- 0.213333 2 3 cbr 250 ------- 1 2.0 3.0 8 32
r 0.214333 2 3 cbr 250 ------- 2 2.1 3.0 4 17
+ 0.22 2 3 cbr 250 ------- 1 2.0 3.0 11 44
+ 0.22 2 3 cbr 250 ------- 2 2.1 3.0 11 45
+ 0.22 2 3 cbr 250 ------- 3 2.2 3.0 11 46
+ 0.22 2 3 cbr 250 ------- 4 2.3 3.0 11 47
- 0.226667 2 3 cbr 250 ------- 3 2.2 3.0 2 10
r 0.227667 2 3 cbr 250 ------- 1 2.0 3.0 8 32
+ 0.24 2 3 cbr 250 ------- 1 2.0 3.0 12 48
+ 0.24 2 3 cbr 250 ------- 2 2.1 3.0 12 49
+ 0.24 2 3 cbr 250 ------- 3 2.2 3.0 12 50
+ 0.24 2 3 cbr 250 ------- 4 2.3 3.0 12 51
- 0.24 2 3 cbr 250 ------- 1 2.0 3.0 9 36
r 0.241 2 3 cbr 250 ------- 3 2.2 3.0 2 10
- 0.253333 2 3 cbr 250 ------- 2 2.1 3.0 5 21
r 0.254333 2 3 cbr 250 ------- 1 2.0 3.0 9 36
+ 0.26 2 3 cbr 250 ------- 1 2.0 3.0 13 52
+ 0.26 2 3 cbr 250 ------- 2 2.1 3.0 13 53
+ 0.26 2 3 cbr 250 ------- 3 2.2 3.0 13 54
+ 0.26 2 3 cbr 250 ------- 4 2.3 3.0 13 55
- 0.266667 2 3 cbr 250 ------- 1 2.0 3.0 10 40
r 0.267667 2 3 cbr 250 ------- 2 2.1 3.0 5 21
+ 0.28 2 3 cbr 250 ------- 1 2.0 3.0 14 56
+ 0.28 2 3 cbr 250 ------- 2 2.1 3.0 14 57
+ 0.28 2 3 cbr 250 ------- 3 2.2 3.0 14 58
+ 0.28 2 3 cbr 250 ------- 4 2.3 3.0 14 59
- 0.28 2 3 cbr 250 ------- 4 2.3 3.0 1 7
r 0.281 2 3 cbr 250 ------- 1 2.0 3.0 10 40
- 0.293333 2 3 cbr 250 ------- 1 2.0 3.0 11 44
r 0.294333 2 3 cbr 250 ------- 4 2.3 3.0 1 7
+ 0.3 2 3 cbr 250 ------- 1 2.0 3.0 15 60
+ 0.3 2 3 cbr 250 ------- 2 2.1 3.0 15 61
+ 0.3 2 3 cbr 250 ------- 3 2.2 3.0 15 62
+ 0.3 2 3 cbr 250 ------- 4 2.3 3.0 15 63
- 0.306667 2 3 cbr 250 ------- 2 2.1 3.0 6 25
r 0.307667 2 3 cbr 250 ------- 1 2.0 3.0 11 44
- 0.32 2 3 cbr 250 ------- 1 2.0 3.0 12 48
+ 0.32 2 3 cbr 250 ------- 1 2.0 3.0 16 64
+ 0.32 2 3 cbr 250 ------- 2 2.1 3.0 16 65
+ 0.32 2 3 cbr 250 ------- 3 2.2 3.0 16 66
+ 0.32 2 3 cbr 250 ------- 4 2.3 3.0 16 67
r 0.321 2 3 cbr 250 ------- 2 2.1 3.0 6 25
- 0.333333 2 3 cbr 250 ------- 3 2.2 3.0 3 14
r 0.334333 2 3 cbr 250 ------- 1 2.0 3.0 12 48
+ 0.34 2 3 cbr 250 ------- 1 2.0 3.0 17 68
+ 0.34 2 3 cbr 250 ------- 2 2.1 3.0 17 69
+ 0.34 2 3 cbr 250 ------- 3 2.2 3.0 17 70
+ 0.34 2 3 cbr 250 ------- 4 2.3 3.0 17 71
- 0.346667 2 3 cbr 250 ------- 1 2.0 3.0 13 52
r 0.347667 2 3 cbr 250 ------- 3 2.2 3.0 3 14
- 0.36 2 3 cbr 250 ------- 2 2.1 3.0 7 29
+ 0.36 2 3 cbr 250 ------- 1 2.0 3.0 18 72
+ 0.36 2 3 cbr 250 ------- 2 2.1 3.0 18 73
+ 0.36 2 3 cbr 250 ------- 3 2.2 3.0 18 74
+ 0.36 2 3 cbr 250 ------- 4 2.3 3.0 18 75
r 0.361 2 3 cbr 250 ------- 1 2.0 3.0 13 52
- 0.373333 2 3 cbr 250 ------- 1 2.0 3.0 14 56
r 0.374333 2 3 cbr 250 ------- 2 2.1 3.0 7 29
+ 0.38 2 3 cbr 250 ------- 1 2.0 3.0 19 76
+ 0.38 2 3 cbr 250 ------- 2 2.1 3.0 19 77
+ 0.38 2 3 cbr 250 ------- 3 2.2 3.0 19 78
+ 0.38 2 3 cbr 250 ------- 4 2.3 3.0 19 79
- 0.386667 2 3 cbr 250 ------- 1 2.0 3.0 15 60
r 0.387667 2 3 cbr 250 ------- 1 2.0 3.0 14 56
- 0.4 2 3 cbr 250 ------- 2 2.1 3.0 8 33
+ 0.4 2 3 cbr 250 ------- 1 2.0 3.0 20 80
+ 0.4 2 3 cbr 250 ------- 2 2.1 3.0 20 81
+ 0.4 2 3 cbr 250 ------- 3 2.2 3.0 20 82
+ 0.4 2 3 cbr 250 ------- 4 2.3 3.0 20 83
r 0.401 2 3 cbr 250 ------- 1 2.0 3.0 15 60
- 0.413333 2 3 cbr 250 ------- 1 2.0 3.0 16 64
r 0.414333 2 3 cbr 250 ------- 2 2.1 3.0 8 33
+ 0.42 2 3 cbr 250 ------- 1 2.0 3.0 21 84
+ 0.42 2 3 cbr 250 ------- 2 2.1 3.0 21 85
+ 0.42 2 3 cbr 250 ------- 3 2.2 3.0 21 86
+ 0.42 2 3 cbr 250 ------- 4 2.3 3.0 21 87
- 0.426667 2 3 cbr 250 ------- 3 2.2 3.0 4 18
r 0.427667 2 3 cbr 250 ------- 1 2.0 3.0 16 64
- 0.44 2 3 cbr 250 ------- 1 2.0 3.0 17 68
+ 0.44 2 3 cbr 250 ------- 1 2.0 3.0 22 88
+ 0.44 2 3 cbr 250 ------- 2 2.1 3.0 22 89
+ 0.44 2 3 cbr 250 ------- 3 2.2 3.0 22 90
+ 0.44 2 3 cbr 250 ------- 4 2.3 3.0 22 91
r 0.441 2 3 cbr 250 ------- 3 2.2 3.0 4 18
- 0.453333 2 3 cbr 250 ------- 2 2.1 3.0 9 37
r 0.454333 2 3 cbr 250 ------- 1 2.0 3.0 17 68
+ 0.46 2 3 cbr 250 ------- 1 2.0 3.0 23 92
+ 0.46 2 3 cbr 250 ------- 2 2.1 3.0 23 93
+ 0.46 2 3 cbr 250 ------- 3 2.2 3.0 23 94
+ 0.46 2 3 cbr 250 ------- 4 2.3 3.0 23 95
- 0.466667 2 3 cbr 250 ------- 1 2.0 3.0 18 72
r 0.467667 2 3 cbr 250 ------- 2 2.1 3.0 9 37
- 0.48 2 3 cbr 250 ------- 4 2.3 3.0 2 11
+ 0.48 2 3 cbr 250 ------- 1 2.0 3.0 24 96
+ 0.48 2 3 cbr 250 ------- 2 2.1 3.0 24 97
+ 0.48 2 3 cbr 250 ------- 3 2.2 3.0 24 98
+ 0.48 2 3 cbr 250 ------- 4 2.3 3.0 24 99
r 0.481 2 3 cbr 250 ------- 1 2.0 3.0 18 72
- 0.493333 2 3 cbr 250 ------- 1 2.0 3.0 19 76
r 0.494333 2 3 cbr 250 ------- 4 2.3 3.0 2 11
+ 0.5 2 3 cbr 250 ------- 1 2.0 3.0 25 100
+ 0.5 2 3 cbr 250 ------- 2 2.1 3.0 25 101
+ 0.5 2 3 cbr 250 ------- 3 2.2 3.0 25 102
+ 0.5 2 3 cbr 250 ------- 4 2.3 3.0 25 103
- 0.506667 2 3 cbr 250 ------- 2 2.1 3.0 10 41
r 0.507667 2 3 cbr 250 ------- 1 2.0 3.0 19 76
- 0.52 2 3 cbr 250 ------- 1 2.0 3.0 20 80
+ 0.52 2 3 cbr 250 ------- 1 2.0 3.0 26 104
+ 0.52 2 3 cbr 250 ------- 2 2.1 3.0 26 105
+ 0.52 2 3 cbr 250 ------- 3 2.2 3.0 26 106
+ 0.52 2 3 cbr 250 ------- 4 2.3 3.0 26 107
r 0.521 2 3 cbr 250 ------- 2 2.1 3.0 10 41
- 0.533333 2 3 cbr 250 ------- 3 2.2 3.0 5 22
r 0.534333 2 3 cbr 250 ------- 1 2.0 3.0 20 80
+ 0.54 2 3 cbr 250 ------- 1 2.0 3.0 27 108
+ 0.54 2 3 cbr 250 ------- 2 2.1 3.0 27 109
+ 0.54 2 3 cbr 250 ------- 3 2.2 3.0 27 110
+ 0.54 2 3 cbr 250 ------- 4 2.3 3.0 27 111
- 0.546667 2 3 cbr 250 ------- 1 2.0 3.0 21 84
r 0.547667 2 3 cbr 250 ------- 3 2.2 3.0 5 22
- 0.56 2 3 cbr 250 ------- 2 2.1 3.0 11 45
+ 0.56 2 3 cbr 250 ------- 1 2.0 3.0 28 112
+ 0.56 2 3 cbr 250 ------- 2 2.1 3.0 28 113
+ 0.56 2 3 cbr 250 ------- 3 2.2 3.0 28 114
+ 0.56 2 3 cbr 250 ------- 4 2.3 3.0 28 115
r 0.561 2 3 cbr 250 ------- 1 2.0 3.0 21 84
- 0.573333 2 3 cbr 250 ------- 1 2.0 3.0 22 88
r 0.574333 2 3 cbr 250 ------- 2 2.1 3.0 11 45
+ 0.58 2 3 cbr 250 ------- 1 2.0 3.0 29 116
+ 0.58 2 3 cbr 250 ------- 2 2.1 3.0 29 117
+ 0.58 2 3 cbr 250 ------- 3 2.2 3.0 29 118
+ 0.58 2 3 cbr 250 ------- 4 2.3 3.0 29 119
- 0.586667 2 3 cbr 250 ------- 1 2.0 3.0 23 92
r 0.587667 2 3 cbr 250 ------- 1 2.0 3.0 22 88
- 0.6 2 3 cbr 250 ------- 2 2.1 3.0 12 49
+ 0.6 2 3 cbr 250 ------- 1 2.0 3.0 30 120
+ 0.6 2 3 cbr 250 ------- 2 2.1 3.0 30 121
+ 0.6 2 3 cbr 250 ------- 3 2.2 3.0 30 122
+ 0.6 2 3 cbr 250 ------- 4 2.3 3.0 30 123
r 0.601 2 3 cbr 250 ------- 1 2.0 3.0 23 92
- 0.613333 2 3 cbr 250 ------- 1 2.0 3.0 24 96
r 0.614333 2 3 cbr 250 ------- 2 2.1 3.0 12 49
+ 0.62 2 3 cbr 250 ------- 1 2.0 3.0 31 124
+ 0.62 2 3 cbr 250 ------- 2 2.1 3.0 31 125
+ 0.62 2 3 cbr 250 ------- 3 2.2 3.0 31 126
+ 0.62 2 3 cbr 250 ------- 4 2.3 3.0 31 127
- 0.626667 2 3 cbr 250 ------- 3 2.2 3.0 6 26
r 0.627667 2 3 cbr 250 ------- 1 2.0 3.0 24 96
- 0.64 2 3 cbr 250 ------- 1 2.0 3.0 25 100
+ 0.64 2 3 cbr 250 ------- 1 2.0 3.0 32 128
+ 0.64 2 3 cbr 250 ------- 2 2.1 3.0 32 129
+ 0.64 2 3 cbr 250 ------- 3 2.2 3.0 32 130
+ 0.64 2 3 cbr 250 ------- 4 2.3 3.0 32 131
r 0.641 2 3 cbr 250 ------- 3 2.2 3.0 6 26
- 0.653333 2 3 cbr 250 ------- 2 2.1 3.0 13 53
r 0.654333 2 3 cbr 250 ------- 1 2.0 3.0 25 100
+ 0.66 2 3 cbr 250 ------- 1 2.0 3.0 33 132
+ 0.66 2 3 cbr 250 ------- 2 2.1 3.0 33 133
+ 0.66 2 3 cbr 250 ------- 3 2.2 3.0 33 134
+ 0.66 2 3 cbr 250 ------- 4 2.3 3.0 33 135
- 0.666667 2 3 cbr 250 ------- 1 2.0 3.0 26 104
r 0.667667 2 3 cbr 250 ------- 2 2.1 3.0 13 53
- 0.68 2 3 cbr 250 ------- 4 2.3 3.0 3 15
+ 0.68 2 3 cbr 250 ------- 1 2.0 3.0 34 136
+ 0.68 2 3 cbr 250 ------- 2 2.1 3.0 34 137
+ 0.68 2 3 cbr 250 ------- 3 2.2 3.0 34 138
+ 0.68 2 3 cbr 250 ------- 4 2.3 3.0 34 139
r 0.681 2 3 cbr 250 ------- 1 2.0 3.0 26 104
- 0.693333 2 3 cbr 250 ------- 1 2.0 3.0 27 108
r 0.694333 2 3 cbr 250 ------- 4 2.3 3.0 3 15
+ 0.7 2 3 cbr 250 ------- 1 2.0 3.0 35 140
+ 0.7 2 3 cbr 250 ------- 2 2.1 3.0 35 141
+ 0.7 2 3 cbr 250 ------- 3 2.2 3.0 35 142
+ 0.7 2 3 cbr 250 ------- 4 2.3 3.0 35 143
- 0.706667 2 3 cbr 250 ------- 2 2.1 3.0 14 57
r 0.707667 2 3 cbr 250 ------- 1 2.0 3.0 27 108
- 0.72 2 3 cbr 250 ------- 1 2.0 3.0 28 112
+ 0.72 2 3 cbr 250 ------- 1 2.0 3.0 36 144
+ 0.72 2 3 cbr 250 ------- 2 2.1 3.0 36 145
+ 0.72 2 3 cbr 250 ------- 3 2.2 3.0 36 146
+ 0.72 2 3 cbr 250 ------- 4 2.3 3.0 36 147
r 0.721 2 3 cbr 250 ------- 2 2.1 3.0 14 57
- 0.733333 2 3 cbr 250 ------- 3 2.2 3.0 7 30
r 0.734333 2 3 cbr 250 ------- 1 2.0 3.0 28 112
+ 0.74 2 3 cbr 250 ------- 1 2.0 3.0 37 148
+ 0.74 2 3 cbr 250 ------- 2 2.1 3.0 37 149
+ 0.74 2 3 cbr 250 ------- 3 2.2 3.0 37 150
+ 0.74 2 3 cbr 250 ------- 4 2.3 3.0 37 151
- 0.746667 2 3 cbr 250 ------- 1 2.0 3.0 29 116
r 0.747667 2 3 cbr 250 ------- 3 2.2 3.0 7 30
- 0.76 2 3 cbr 250 ------- 2 2.1 3.0 15 61
+ 0.76 2 3 cbr 250 ------- 1 2.0 3.0 38 152
+ 0.76 2 3 cbr 250 ------- 2 2.1 3.0 38 153
+ 0.76 2 3 cbr 250 ------- 3 2.2 3.0 38 154
+ 0.76 2 3 cbr 250 ------- 4 2.3 3.0 38 155
r 0.761 2 3 cbr 250 ------- 1 2.0 3.0 29 116
- 0.773333 2 3 cbr 250 ------- 1 2.0 3.0 30 120
r 0.774333 2 3 cbr 250 ------- 2 2.1 3.0 15 61
+ 0.78 2 3 cbr 250 ------- 1 2.0 3.0 39 156
+ 0.78 2 3 cbr 250 ------- 2 2.1 3.0 39 157
+ 0.78 2 3 cbr 250 ------- 3 2.2 3.0 39 158
+ 0.78 2 3 cbr 250 ------- 4 2.3 3.0 39 159
- 0.786667 2 3 cbr 250 ------- 1 2.0 3.0 31 124
r 0.787667 2 3 cbr 250 ------- 1 2.0 3.0 30 120
- 0.8 2 3 cbr 250 ------- 2 2.1 3.0 16 65
+ 0.8 2 3 cbr 250 ------- 1 2.0 3.0 40 160
+ 0.8 2 3 cbr 250 ------- 2 2.1 3.0 40 161
+ 0.8 2 3 cbr 250 ------- 3 2.2 3.0 40 162
+ 0.8 2 3 cbr 250 ------- 4 2.3 3.0 40 163
r 0.801 2 3 cbr 250 ------- 1 2.0 3.0 31 124
- 0.813333 2 3 cbr 250 ------- 1 2.0 3.0 32 128
r 0.814333 2 3 cbr 250 ------- 2 2.1 3.0 16 65
+ 0.82 2 3 cbr 250 ------- 1 2.0 3.0 41 164
+ 0.82 2 3 cbr 250 ------- 2 2.1 3.0 41 165
+ 0.82 2 3 cbr 250 ------- 3 2.2 3.0 41 166
+ 0.82 2 3 cbr 250 ------- 4 2.3 3.0 41 167
- 0.826667 2 3 cbr 250 ------- 3 2.2 3.0 8 34
r 0.827667 2 3 cbr 250 ------- 1 2.0 3.0 32 128
- 0.84 2 3 cbr 250 ------- 1 2.0 3.0 33 132
+ 0.84 2 3 cbr 250 ------- 1 2.0 3.0 42 168
+ 0.84 2 3 cbr 250 ------- 2 2.1 3.0 42 169
+ 0.84 2 3 cbr 250 ------- 3 2.2 3.0 42 170
+ 0.84 2 3 cbr 250 ------- 4 2.3 3.0 42 171
r 0.841 2 3 cbr 250 ------- 3 2.2 3.0 8 34
- 0.853333 2 3 cbr 250 ------- 2 2.1 3.0 17 69
r 0.854333 2 3 cbr 250 ------- 1 2.0 3.0 33 132
+ 0.86 2 3 cbr 250 ------- 1 2.0 3.0 43 172
+ 0.86 2 3 cbr 250 ------- 2 2.1 3.0 43 173
+ 0.86 2 3 cbr 250 ------- 3 2.2 3.0 43 174
+ 0.86 2 3 cbr 250 ------- 4 2.3 3.0 43 175
- 0.866667 2 3 cbr 250 ------- 1 2.0 3.0 34 136
r 0.867667 2 3 cbr 250 ------- 2 2.1 3.0 17 69
- 0.88 2 3 cbr 250 ------- 4 2.3 3.0 4 19
+ 0.88 2 3 cbr 250 ------- 1 2.0 3.0 44 176
+ 0.88 2 3 cbr 250 ------- 2 2.1 3.0 44 177
+ 0.88 2 3 cbr 250 ------- 3 2.2 3.0 44 178
+ 0.88 2 3 cbr 250 ------- 4 2.3 3.0 44 179
r 0.881 2 3 cbr 250 ------- 1 2.0 3.0 34 136
- 0.893333 2 3 cbr 250 ------- 1 2.0 3.0 35 140
r 0.894333 2 3 cbr 250 ------- 4 2.3 3.0 4 19
+ 0.9 2 3 cbr 250 ------- 1 2.0 3.0 45 180
+ 0.9 2 3 cbr 250 ------- 2 2.1 3.0 45 181
+ 0.9 2 3 cbr 250 ------- 3 2.2 3.0 45 182
+ 0.9 2 3 cbr 250 ------- 4 2.3 3.0 45 183
- 0.906667 2 3 cbr 250 ------- 2 2.1 3.0 18 73
r 0.907667 2 3 cbr 250 ------- 1 2.0 3.0 35 140
- 0.92 2 3 cbr 250 ------- 1 2.0 3.0 36 144
+ 0.92 2 3 cbr 250 ------- 1 2.0 3.0 46 184
+ 0.92 2 3 cbr 250 ------- 2 2.1 3.0 46 185
+ 0.92 2 3 cbr 250 ------- 3 2.2 3.0 46 186
+ 0.92 2 3 cbr 250 ------- 4 2.3 3.0 46 187
r 0.921 2 3 cbr 250 ------- 2 2.1 3.0 18 73
- 0.933333 2 3 cbr 250 ------- 3 2.2 3.0 9 38
r 0.934333 2 3 cbr 250 ------- 1 2.0 3.0 36 144
+ 0.94 2 3 cbr 250 ------- 1 2.0 3.0 47 188
+ 0.94 2 3 cbr 250 ------- 2 2.1 3.0 47 189
+ 0.94 2 3 cbr 250 ------- 3 2.2 3.0 47 190
+ 0.94 2 3 cbr 250 ------- 4 2.3 3.0 47 191
- 0.946667 2 3 cbr 250 ------- 1 2.0 3.0 37 148
r 0.947667 2 3 cbr 250 ------- 3 2.2 3.0 9 38
- 0.96 2 3 cbr 250 ------- 2 2.1 3.0 19 77
+ 0.96 2 3 cbr 250 ------- 1 2.0 3.0 48 192
+ 0.96 2 3 cbr 250 ------- 2 2.1 3.0 48 193
+ 0.96 2 3 cbr 250 ------- 3 2.2 3.0 48 194
+ 0.96 2 3 cbr 250 ------- 4 2.3 3.0 48 195
r 0.961 2 3 cbr 250 ------- 1 2.0 3.0 37 148
- 0.973333 2 3 cbr 250 ------- 1 2.0 3.0 38 152
r 0.974333 2 3 cbr 250 ------- 2 2.1 3.0 19 77
+ 0.98 2 3 cbr 250 ------- 1 2.0 3.0 49 196
+ 0.98 2 3 cbr 250 ------- 2 2.1 3.0 49 197
+ 0.98 2 3 cbr 250 ------- 3 2.2 3.0 49 198
+ 0.98 2 3 cbr 250 ------- 4 2.3 3.0 49 199
- 0.986667 2 3 cbr 250 ------- 1 2.0 3.0 39 156
r 0.987667 2 3 cbr 250 ------- 1 2.0 3.0 38 152
- 1 2 3 cbr 250 ------- 2 2.1 3.0 20 81
+ 1 2 3 cbr 250 ------- 1 2.0 3.0 50 200
+ 1 2 3 cbr 250 ------- 2 2.1 3.0 50 201
+ 1 2 3 cbr 250 ------- 3 2.2 3.0 50 202
+ 1 2 3 cbr 250 ------- 4 2.3 3.0 50 203
r 1.001 2 3 cbr 250 ------- 1 2.0 3.0 39 156
- 1.013333 2 3 cbr 250 ------- 1 2.0 3.0 40 160
r 1.014333 2 3 cbr 250 ------- 2 2.1 3.0 20 81
+ 1.02 2 3 cbr 250 ------- 1 2.0 3.0 51 204
+ 1.02 2 3 cbr 250 ------- 2 2.1 3.0 51 205
+ 1.02 2 3 cbr 250 ------- 3 2.2 3.0 51 206
+ 1.02 2 3 cbr 250 ------- 4 2.3 3.0 51 207
- 1.026667 2 3 cbr 250 ------- 3 2.2 3.0 10 42
r 1.027667 2 3 cbr 250 ------- 1 2.0 3.0 40 160
- 1.04 2 3 cbr 250 ------- 1 2.0 3.0 41 164
+ 1.04 2 3 cbr 250 ------- 1 2.0 3.0 52 208
+ 1.04 2 3 cbr 250 ------- 2 2.1 3.0 52 209
+ 1.04 2 3 cbr 250 ------- 3 2.2 3.0 52 210
+ 1.04 2 3 cbr 250 ------- 4 2.3 3.0 52 211
r 1.041 2 3 cbr 250 ------- 3 2.2 3.0 10 42
- 1.053333 2 3 cbr 250 ------- 2 2.1 3.0 21 85
r 1.054333 2 3 cbr 250 ------- 1 2.0 3.0 41 164
+ 1.06 2 3 cbr 250 ------- 1 2.0 3.0 53 212
+ 1.06 2 3 cbr 250 ------- 2 2.1 3.0 53 213
+ 1.06 2 3 cbr 250 ------- 3 2.2 3.0 53 214
+ 1.06 2 3 cbr 250 ------- 4 2.3 3.0 53 215
- 1.066667 2 3 cbr 250 ------- 1 2.0 3.0 42 168
r 1.067667 2 3 cbr 250 ------- 2 2.1 3.0 21 85
- 1.08 2 3 cbr 250 ------- 4 2.3 3.0 5 23
+ 1.08 2 3 cbr 250 ------- 1 2.0 3.0 54 216
+ 1.08 2 3 cbr 250 ------- 2 2.1 3.0 54 217
+ 1.08 2 3 cbr 250 ------- 3 2.2 3.0 54 218
+ 1.08 2 3 cbr 250 ------- 4 2.3 3.0 54 219
r 1.081 2 3 cbr 250 ------- 1 2.0 3.0 42 168
- 1.093333 2 3 cbr 250 ------- 1 2.0 3.0 43 172
r 1.094333 2 3 cbr 250 ------- 4 2.3 3.0 5 23
+ 1.1 2 3 cbr 250 ------- 1 2.0 3.0 55 220
+ 1.1 2 3 cbr 250 ------- 2 2.1 3.0 55 221
+ 1.1 2 3 cbr 250 ------- 3 2.2 3.0 55 222
+ 1.1 2 3 cbr 250 ------- 4 2.3 3.0 55 223
- 1.106667 2 3 cbr 250 ------- 2 2.1 3.0 22 89
r 1.107667 2 3 cbr 250 ------- 1 2.0 3.0 43 172
- 1.12 2 3 cbr 250 ------- 1 2.0 3.0 44 176
+ 1.12 2 3 cbr 250 ------- 1 2.0 3.0 56 224
+ 1.12 2 3 cbr 250 ------- 2 2.1 3.0 56 225
+ 1.12 2 3 cbr 250 ------- 3 2.2 3.0 56 226
+ 1.12 2 3 cbr 250 ------- 4 2.3 3.0 56 227
d 1.12 2 3 cbr 250 ------- 4 2.3 3.0 56 227
r 1.121 2 3 cbr 250 ------- 2 2.1 3.0 22 89
- 1.133333 2 3 cbr 250 ------- 3 2.2 3.0 11 46
r 1.134333 2 3 cbr 250 ------- 1 2.0 3.0 44 176
+ 1.14 2 3 cbr 250 ------- 1 2.0 3.0 57 228
+ 1.14 2 3 cbr 250 ------- 2 2.1 3.0 57 229
+ 1.14 2 3 cbr 250 ------- 3 2.2 3.0 57 230
+ 1.14 2 3 cbr 250 ------- 4 2.3 3.0 57 231
d 1.14 2 3 cbr 250 ------- 4 2.3 3.0 57 231
- 1.146667 2 3 cbr 250 ------- 1 2.0 3.0 45 180
r 1.147667 2 3 cbr 250 ------- 3 2.2 3.0 11 46
- 1.16 2 3 cbr 250 ------- 2 2.1 3.0 23 93
+ 1.16 2 3 cbr 250 ------- 1 2.0 3.0 58 232
+ 1.16 2 3 cbr 250 ------- 2 2.1 3.0 58 233
+ 1.16 2 3 cbr 250 ------- 3 2.2 3.0 58 234
+ 1.16 2 3 cbr 250 ------- 4 2.3 3.0 58 235
d 1.16 2 3 cbr 250 ------- 4 2.3 3.0 58 235
r 1.161 2 3 cbr 250 ------- 1 2.0 3.0 45 180
- 1.173333 2 3 cbr 250 ------- 1 2.0 3.0 46 184
r 1.174333 2 3 cbr 250 ------- 2 2.1 3.0 23 93
+ 1.18 2 3 cbr 250 ------- 1 2.0 3.0 59 236
+ 1.18 2 3 cbr 250 ------- 2 2.1 3.0 59 237
+ 1.18 2 3 cbr 250 ------- 3 2.2 3.0 59 238
+ 1.18 2 3 cbr 250 ------- 4 2.3 3.0 59 239
d 1.18 2 3 cbr 250 ------- 4 2.3 3.0 59 239
- 1.186667 2 3 cbr 250 ------- 1 2.0 3.0 47 188
r 1.187667 2 3 cbr 250 ------- 1 2.0 3.0 46 184
- 1.2 2 3 cbr 250 ------- 2 2.1 3.0 24 97
+ 1.2 2 3 cbr 250 ------- 1 2.0 3.0 60 240
+ 1.2 2 3 cbr 250 ------- 2 2.1 3.0 60 241
+ 1.2 2 3 cbr 250 ------- 3 2.2 3.0 60 242
+ 1.2 2 3 cbr 250 ------- 4 2.3 3.0 60 243
d 1.2 2 3 cbr 250 ------- 4 2.3 3.0 60 243
r 1.201 2 3 cbr 250 ------- 1 2.0 3.0 47 188
- 1.213333 2 3 cbr 250 ------- 1 2.0 3.0 48 192
r 1.214333 2 3 cbr 250 ------- 2 2.1 3.0 24 97
+ 1.22 2 3 cbr 250 ------- 1 2.0 3.0 61 244
+ 1.22 2 3 cbr 250 ------- 2 2.1 3.0 61 245
+ 1.22 2 3 cbr 250 ------- 3 2.2 3.0 61 246
+ 1.22 2 3 cbr 250 ------- 4 2.3 3.0 61 247
d 1.22 2 3 cbr 250 ------- 4 2.3 3.0 61 247
- 1.226667 2 3 cbr 250 ------- 3 2.2 3.0 12 50
r 1.227667 2 3 cbr 250 ------- 1 2.0 3.0 48 192
- 1.24 2 3 cbr 250 ------- 1 2.0 3.0 49 196
+ 1.24 2 3 cbr 250 ------- 1 2.0 3.0 62 248
+ 1.24 2 3 cbr 250 ------- 2 2.1 3.0 62 249
+ 1.24 2 3 cbr 250 ------- 3 2.2 3.0 62 250
+ 1.24 2 3 cbr 250 ------- 4 2.3 3.0 62 251
d 1.24 2 3 cbr 250 ------- 4 2.3 3.0 62 251
r 1.241 2 3 cbr 250 ------- 3 2.2 3.0 12 50
- 1.253333 2 3 cbr 250 ------- 2 2.1 3.0 25 101
r 1.254333 2 3 cbr 250 ------- 1 2.0 3.0 49 196
+ 1.26 2 3 cbr 250 ------- 1 2.0 3.0 63 252
+ 1.26 2 3 cbr 250 ------- 2 2.1 3.0 63 253
+ 1.26 2 3 cbr 250 ------- 3 2.2 3.0 63 254
d 1.26 2 3 cbr 250 ------- 3 2.2 3.0 63 254
+ 1.26 2 3 cbr 250 ------- 4 2.3 3.0 63 255
d 1.26 2 3 cbr 250 ------- 4 2.3 3.0 63 255
- 1.266667 2 3 cbr 250 ------- 1 2.0 3.0 50 200
r 1.267667 2 3 cbr 250 ------- 2 2.1 3.0 25 101
- 1.28 2 3 cbr 250 ------- 4 2.3 3.0 6 27
+ 1.28 2 3 cbr 250 ------- 1 2.0 3.0 64 256
+ 1.28 2 3 cbr 250 ------- 2 2.1 3.0 64 257
+ 1.28 2 3 cbr 250 ------- 3 2.2 3.0 64 258
d 1.28 2 3 cbr 250 ------- 3 2.2 3.0 64 258
+ 1.28 2 3 cbr 250 ------- 4 2.3 3.0 64 259
d 1.28 2 3 cbr 250 ------- 4 2.3 3.0 64 259
r 1.281 2 3 cbr 250 ------- 1 2.0 3.0 50 200
- 1.293333 2 3 cbr 250 ------- 1 2.0 3.0 51 204
r 1.294333 2 3 cbr 250 ------- 4 2.3 3.0 6 27
+ 1.3 2 3 cbr 250 ------- 1 2.0 3.0 65 260
+ 1.3 2 3 cbr 250 ------- 2 2.1 3.0 65 261
+ 1.3 2 3 cbr 250 ------- 3 2.2 3.0 65 262
d 1.3 2 3 cbr 250 ------- 3 2.2 3.0 65 262
+ 1.3 2 3 cbr 250 ------- 4 2.3 3.0 65 263
- 1.306667 2 3 cbr 250 ------- 2 2.1 3.0 26 105
r 1.307667 2 3 cbr 250 ------- 1 2.0 3.0 51 204
+ 1.32 2 3 cbr 250 ------- 1 2.0 3.0 66 264
+ 1.32 2 3 cbr 250 ------- 2 2.1 3.0 66 265
+ 1.32 2 3 cbr 250 ------- 3 2.2 3.0 66 266
d 1.32 2 3 cbr 250 ------- 3 2.2 3.0 66 266
+ 1.32 2 3 cbr 250 ------- 4 2.3 3.0 66 267
d 1.32 2 3 cbr 250 ------- 4 2.3 3.0 66 267
- 1.32 2 3 cbr 250 ------- 1 2.0 3.0 52 208
r 1.321 2 3 cbr 250 ------- 2 2.1 3.0 26 105
- 1.333333 2 3 cbr 250 ------- 3 2.2 3.0 13 54
r 1.334333 2 3 cbr 250 ------- 1 2.0 3.0 52 208
+ 1.34 2 3 cbr 250 ------- 1 2.0 3.0 67 268
+ 1.34 2 3 cbr 250 ------- 2 2.1 3.0 67 269
+ 1.34 2 3 cbr 250 ------- 3 2.2 3.0 67 270
d 1.34 2 3 cbr 250 ------- 3 2.2 3.0 67 270
+ 1.34 2 3 cbr 250 ------- 4 2.3 3.0 67 271
d 1.34 2 3 cbr 250 ------- 4 2.3 3.0 67 271
- 1.346667 2 3 cbr 250 ------- 1 2.0 3.0 53 212
r 1.347667 2 3 cbr 250 ------- 3 2.2 3.0 13 54
+ 1.36 2 3 cbr 250 ------- 1 2.0 3.0 68 272
+ 1.36 2 3 cbr 250 ------- 2 2.1 3.0 68 273
+ 1.36 2 3 cbr 250 ------- 3 2.2 3.0 68 274
+ 1.36 2 3 cbr 250 ------- 4 2.3 3.0 68 275
d 1.36 2 3 cbr 250 ------- 4 2.3 3.0 68 275
- 1.36 2 3 cbr 250 ------- 2 2.1 3.0 27 109
r 1.361 2 3 cbr 250 ------- 1 2.0 3.0 53 212
- 1.373333 2 3 cbr 250 ------- 1 2.0 3.0 54 216
r 1.374333 2 3 cbr 250 ------- 2 2.1 3.0 27 109
+ 1.38 2 3 cbr 250 ------- 1 2.0 3.0 69 276
+ 1.38 2 3 cbr 250 ------- 2 2.1 3.0 69 277
+ 1.38 2 3 cbr 250 ------- 3 2.2 3.0 69 278
d 1.38 2 3 cbr 250 ------- 3 2.2 3.0 69 278
+ 1.38 2 3 cbr 250 ------- 4 2.3 3.0 69 279
d 1.38 2 3 cbr 250 ------- 4 2.3 3.0 69 279
- 1.386667 2 3 cbr 250 ------- 1 2.0 3.0 55 220
r 1.387667 2 3 cbr 250 ------- 1 2.0 3.0 54 216
+ 1.4 2 3 cbr 250 ------- 1 2.0 3.0 70 280
+ 1.4 2 3 cbr 250 ------- 2 2.1 3.0 70 281
+ 1.4 2 3 cbr 250 ------- 3 2.2 3.0 70 282
d 1.4 2 3 cbr 250 ------- 3 2.2 3.0 70 282
+ 1.4 2 3 cbr 250 ------- 4 2.3 3.0 70 283
d 1.4 2 3 cbr 250 ------- 4 2.3 3.0 70 283
- 1.4 2 3 cbr 250 ------- 2 2.1 3.0 28 113
r 1.401 2 3 cbr 250 ------- 1 2.0 3.0 55 220
- 1.413333 2 3 cbr 250 ------- 1 2.0 3.0 56 224
r 1.414333 2 3 cbr 250 ------- 2 2.1 3.0 28 113
+ 1.42 2 3 cbr 250 ------- 1 2.0 3.0 71 284
+ 1.42 2 3 cbr 250 ------- 2 2.1 3.0 71 285
+ 1.42 2 3 cbr 250 ------- 3 2.2 3.0 71 286
d 1.42 2 3 cbr 250 ------- 3 2.2 3.0 71 286
+ 1.42 2 3 cbr 250 ------- 4 2.3 3.0 71 287
d 1.42 2 3 cbr 250 ------- 4 2.3 3.0 71 287
- 1.426667 2 3 cbr 250 ------- 3 2.2 3.0 14 58
r 1.427667 2 3 cbr 250 ------- 1 2.0 3.0 56 224
+ 1.44 2 3 cbr 250 ------- 1 2.0 3.0 72 288
+ 1.44 2 3 cbr 250 ------- 2 2.1 3.0 72 289
+ 1.44 2 3 cbr 250 ------- 3 2.2 3.0 72 290
d 1.44 2 3 cbr 250 ------- 3 2.2 3.0 72 290
+ 1.44 2 3 cbr 250 ------- 4 2.3 3.0 72 291
d 1.44 2 3 cbr 250 ------- 4 2.3 3.0 72 291
- 1.44 2 3 cbr 250 ------- 1 2.0 3.0 57 228
r 1.441 2 3 cbr 250 ------- 3 2.2 3.0 14 58
- 1.453333 2 3 cbr 250 ------- 2 2.1 3.0 29 117
r 1.454333 2 3 cbr 250 ------- 1 2.0 3.0 57 228
+ 1.46 2 3 cbr 250 ------- 1 2.0 3.0 73 292
+ 1.46 2 3 cbr 250 ------- 2 2.1 3.0 73 293
+ 1.46 2 3 cbr 250 ------- 3 2.2 3.0 73 294
+ 1.46 2 3 cbr 250 ------- 4 2.3 3.0 73 295
d 1.46 2 3 cbr 250 ------- 4 2.3 3.0 73 295
- 1.466667 2 3 cbr 250 ------- 1 2.0 3.0 58 232
r 1.467667 2 3 cbr 250 ------- 2 2.1 3.0 29 117
+ 1.48 2 3 cbr 250 ------- 1 2.0 3.0 74 296
+ 1.48 2 3 cbr 250 ------- 2 2.1 3.0 74 297
+ 1.48 2 3 cbr 250 ------- 3 2.2 3.0 74 298
d 1.48 2 3 cbr 250 ------- 3 2.2 3.0 74 298
+ 1.48 2 3 cbr 250 ------- 4 2.3 3.0 74 299
d 1.48 2 3 cbr 250 ------- 4 2.3 3.0 74 299
- 1.48 2 3 cbr 250 ------- 4 2.3 3.0 7 31
r 1.481 2 3 cbr 250 ------- 1 2.0 3.0 58 232
- 1.493333 2 3 cbr 250 ------- 1 2.0 3.0 59 236
r 1.494333 2 3 cbr 250 ------- 4 2.3 3.0 7 31
+ 1.5 2 3 cbr 250 ------- 1 2.0 3.0 75 300
+ 1.5 2 3 cbr 250 ------- 2 2.1 3.0 75 301
+ 1.5 2 3 cbr 250 ------- 3 2.2 3.0 75 302
d 1.5 2 3 cbr 250 ------- 3 2.2 3.0 75 302
+ 1.5 2 3 cbr 250 ------- 4 2.3 3.0 75 303
- 1.506667 2 3 cbr 250 ------- 2 2.1 3.0 30 121
r 1.507667 2 3 cbr 250 ------- 1 2.0 3.0 59 236
+ 1.52 2 3 cbr 250 ------- 1 2.0 3.0 76 304
+ 1.52 2 3 cbr 250 ------- 2 2.1 3.0 76 305
+ 1.52 2 3 cbr 250 ------- 3 2.2 3.0 76 306
d 1.52 2 3 cbr 250 ------- 3 2.2 3.0 76 306
+ 1.52 2 3 cbr 250 ------- 4 2.3 3.0 76 307
d 1.52 2 3 cbr 250 ------- 4 2.3 3.0 76 307
- 1.52 2 3 cbr 250 ------- 1 2.0 3.0 60 240
r 1.521 2 3 cbr 250 ------- 2 2.1 3.0 30 121
- 1.533333 2 3 cbr 250 ------- 3 2.2 3.0 15 62
r 1.534333 2 3 cbr 250 ------- 1 2.0 3.0 60 240
+ 1.54 2 3 cbr 250 ------- 1 2.0 3.0 77 308
+ 1.54 2 3 cbr 250 ------- 2 2.1 3.0 77 309
+ 1.54 2 3 cbr 250 ------- 3 2.2 3.0 77 310
d 1.54 2 3 cbr 250 ------- 3 2.2 3.0 77 310
+ 1.54 2 3 cbr 250 ------- 4 2.3 3.0 77 311
d 1.54 2 3 cbr 250 ------- 4 2.3 3.0 77 311
- 1.546667 2 3 cbr 250 ------- 1 2.0 3.0 61 244
r 1.547667 2 3 cbr 250 ------- 3 2.2 3.0 15 62
+ 1.56 2 3 cbr 250 ------- 1 2.0 3.0 78 312
+ 1.56 2 3 cbr 250 ------- 2 2.1 3.0 78 313
+ 1.56 2 3 cbr 250 ------- 3 2.2 3.0 78 314
+ 1.56 2 3 cbr 250 ------- 4 2.3 3.0 78 315
d 1.56 2 3 cbr 250 ------- 4 2.3 3.0 78 315
- 1.56 2 3 cbr 250 ------- 2 2.1 3.0 31 125
r 1.561 2 3 cbr 250 ------- 1 2.0 3.0 61 244
- 1.573333 2 3 cbr 250 ------- 1 2.0 3.0 62 248
r 1.574333 2 3 cbr 250 ------- 2 2.1 3.0 31 125
+ 1.58 2 3 cbr 250 ------- 1 2.0 3.0 79 316
+ 1.58 2 3 cbr 250 ------- 2 2.1 3.0 79 317
+ 1.58 2 3 cbr 250 ------- 3 2.2 3.0 79 318
d 1.58 2 3 cbr 250 ------- 3 2.2 3.0 79 318
+ 1.58 2 3 cbr 250 ------- 4 2.3 3.0 79 319
d 1.58 2 3 cbr 250 ------- 4 2.3 3.0 79 319
- 1.586667 2 3 cbr 250 ------- 1 2.0 3.0 63 252
r 1.587667 2 3 cbr 250 ------- 1 2.0 3.0 62 248
+ 1.6 2 3 cbr 250 ------- 1 2.0 3.0 80 320
+ 1.6 2 3 cbr 250 ------- 2 2.1 3.0 80 321
+ 1.6 2 3 cbr 250 ------- 3 2.2 3.0 80 322
d 1.6 2 3 cbr 250 ------- 3 2.2 3.0 80 322
+ 1.6 2 3 cbr 250 ------- 4 2.3 3.0 80 323
d 1.6 2 3 cbr 250 ------- 4 2.3 3.0 80 323
- 1.6 2 3 cbr 250 ------- 2 2.1 3.0 32 129
r 1.601 2 3 cbr 250 ------- 1 2.0 3.0 63 252
- 1.613333 2 3 cbr 250 ------- 1 2.0 3.0 64 256
r 1.614333 2 3 cbr 250 ------- 2 2.1 3.0 32 129
+ 1.62 2 3 cbr 250 ------- 1 2.0 3.0 81 324
+ 1.62 2 3 cbr 250 ------- 2 2.1 3.0 81 325
+ 1.62 2 3 cbr 250 ------- 3 2.2 3.0 81 326
d 1.62 2 3 cbr 250 ------- 3 2.2 3.0 81 326
+ 1.62 2 3 cbr 250 ------- 4 2.3 3.0 81 327
d 1.62 2 3 cbr 250 ------- 4 2.3 3.0 81 327
- 1.626667 2 3 cbr 250 ------- 3 2.2 3.0 16 66
r 1.627667 2 3 cbr 250 ------- 1 2.0 3.0 64 256
+ 1.64 2 3 cbr 250 ------- 1 2.0 3.0 82 328
+ 1.64 2 3 cbr 250 ------- 2 2.1 3.0 82 329
+ 1.64 2 3 cbr 250 ------- 3 2.2 3.0 82 330
d 1.64 2 3 cbr 250 ------- 3 2.2 3.0 82 330
+ 1.64 2 3 cbr 250 ------- 4 2.3 3.0 82 331
d 1.64 2 3 cbr 250 ------- 4 2.3 3.0 82 331
- 1.64 2 3 cbr 250 ------- 1 2.0 3.0 65 260
r 1.641 2 3 cbr 250 ------- 3 2.2 3.0 16 66
- 1.653333 2 3 cbr 250 ------- 2 2.1 3.0 33 133
r 1.654333 2 3 cbr 250 ------- 1 2.0 3.0 65 260
+ 1.66 2 3 cbr 250 ------- 1 2.0 3.0 83 332
+ 1.66 2 3 cbr 250 ------- 2 2.1 3.0 83 333
d 1.66 2 3 cbr 250 ------- 2 2.1 3.0 83 333
+ 1.66 2 3 cbr 250 ------- 3 2.2 3.0 83 334
+ 1.66 2 3 cbr 250 ------- 4 2.3 3.0 83 335
d 1.66 2 3 cbr 250 ------- 4 2.3 3.0 83 335
- 1.666667 2 3 cbr 250 ------- 1 2.0 3.0 66 264
r 1.667667 2 3 cbr 250 ------- 2 2.1 3.0 33 133
+ 1.68 2 3 cbr 250 ------- 1 2.0 3.0 84 336
+ 1.68 2 3 cbr 250 ------- 2 2.1 3.0 84 337
+ 1.68 2 3 cbr 250 ------- 3 2.2 3.0 84 338
d 1.68 2 3 cbr 250 ------- 3 2.2 3.0 84 338
+ 1.68 2 3 cbr 250 ------- 4 2.3 3.0 84 339
d 1.68 2 3 cbr 250 ------- 4 2.3 3.0 84 339
- 1.68 2 3 cbr 250 ------- 4 2.3 3.0 8 35
r 1.681 2 3 cbr 250 ------- 1 2.0 3.0 66 264
- 1.693333 2 3 cbr 250 ------- 1 2.0 3.0 67 268
r 1.694333 2 3 cbr 250 ------- 4 2.3 3.0 8 35
+ 1.7 2 3 cbr 250 ------- 1 2.0 3.0 85 340
+ 1.7 2 3 cbr 250 ------- 2 2.1 3.0 85 341
d 1.7 2 3 cbr 250 ------- 2 2.1 3.0 85 341
+ 1.7 2 3 cbr 250 ------- 3 2.2 3.0 85 342
d 1.7 2 3 cbr 250 ------- 3 2.2 3.0 85 342
+ 1.7 2 3 cbr 250 ------- 4 2.3 3.0 85 343
- 1.706667 2 3 cbr 250 ------- 2 2.1 3.0 34 137
r 1.707667 2 3 cbr 250 ------- 1 2.0 3.0 67 268
+ 1.72 2 3 cbr 250 ------- 1 2.0 3.0 86 344
+ 1.72 2 3 cbr 250 ------- 2 2.1 3.0 86 345
d 1.72 2 3 cbr 250 ------- 2 2.1 3.0 86 345
+ 1.72 2 3 cbr 250 ------- 3 2.2 3.0 86 346
d 1.72 2 3 cbr 250 ------- 3 2.2 3.0 86 346
+ 1.72 2 3 cbr 250 ------- 4 2.3 3.0 86 347
d 1.72 2 3 cbr 250 ------- 4 2.3 3.0 86 347
- 1.72 2 3 cbr 250 ------- 1 2.0 3.0 68 272
r 1.721 2 3 cbr 250 ------- 2 2.1 3.0 34 137
- 1.733333 2 3 cbr 250 ------- 3 2.2 3.0 17 70
r 1.734333 2 3 cbr 250 ------- 1 2.0 3.0 68 272
+ 1.74 2 3 cbr 250 ------- 1 2.0 3.0 87 348
+ 1.74 2 3 cbr 250 ------- 2 2.1 3.0 87 349
+ 1.74 2 3 cbr 250 ------- 3 2.2 3.0 87 350
d 1.74 2 3 cbr 250 ------- 3 2.2 3.0 87 350
+ 1.74 2 3 cbr 250 ------- 4 2.3 3.0 87 351
d 1.74 2 3 cbr 250 ------- 4 2.3 3.0 87 351
- 1.746667 2 3 cbr 250 ------- 1 2.0 3.0 69 276
r 1.747667 2 3 cbr 250 ------- 3 2.2 3.0 17 70
+ 1.76 2 3 cbr 250 ------- 1 2.0 3.0 88 352
+ 1.76 2 3 cbr 250 ------- 2 2.1 3.0 88 353
d 1.76 2 3 cbr 250 ------- 2 2.1 3.0 88 353
+ 1.76 2 3 cbr 250 ------- 3 2.2 3.0 88 354
+ 1.76 2 3 cbr 250 ------- 4 2.3 3.0 88 355
d 1.76 2 3 cbr 250 ------- 4 2.3 3.0 88 355
- 1.76 2 3 cbr 250 ------- 2 2.1 3.0 35 141
r 1.761 2 3 cbr 250 ------- 1 2.0 3.0 69 276