+ 0 0 1 tcp 1000 ------- 0 0.0 4.2 0 0
- 0 0 1 tcp 1000 ------- 0 0.0 4.2 0 0
+ 0.00034 2 4 udp 48 ------- 0 2.0 -1.0 0 1
- 0.00034 2 4 udp 48 ------- 0 2.0 -1.0 0 1
r 0.005532 2 4 udp 48 ------- 0 2.0 -1.0 0 1
+ 0.005532 4 2 udp 52 ------- 0 4.0 2.0 0 2
- 0.005532 4 2 udp 52 ------- 0 4.0 2.0 0 2
r 0.009 0 1 tcp 1000 ------- 0 0.0 4.2 0 0
+ 0.009 1 2 tcp 1000 ------- 0 0.0 4.2 0 0
- 0.009 1 2 tcp 1000 ------- 0 0.0 4.2 0 0
r 0.01074 4 2 udp 52 ------- 0 4.0 2.0 0 2
+ 0.01074 2 4 udp 52 ------- 0 2.0 4.0 0 2
- 0.01074 2 4 udp 52 ------- 0 2.0 4.0 0 2
r 0.015948 2 4 udp 52 ------- 0 2.0 4.0 0 2
r 0.018 1 2 tcp 1000 ------- 0 0.0 4.2 0 0
+ 0.018 2 4 tcp 1000 ------- 0 0.0 4.2 0 0
- 0.018 2 4 tcp 1000 ------- 0 0.0 4.2 0 0
r 0.027 2 4 tcp 1000 ------- 0 0.0 4.2 0 0
+ 0.027 4 2 ack 40 ------- 0 4.2 0.0 0 3
- 0.027 4 2 ack 40 ------- 0 4.2 0.0 0 3
r 0.03216 4 2 ack 40 ------- 0 4.2 0.0 0 3
+ 0.03216 2 1 ack 40 ------- 0 4.2 0.0 0 3
- 0.03216 2 1 ack 40 ------- 0 4.2 0.0 0 3
r 0.03732 2 1 ack 40 ------- 0 4.2 0.0 0 3
+ 0.03732 1 0 ack 40 ------- 0 4.2 0.0 0 3
- 0.03732 1 0 ack 40 ------- 0 4.2 0.0 0 3
r 0.04248 1 0 ack 40 ------- 0 4.2 0.0 0 3
+ 0.04248 0 1 tcp 1000 ------- 0 0.0 4.2 1 4
- 0.04248 0 1 tcp 1000 ------- 0 0.0 4.2 1 4
+ 0.04248 0 1 tcp 1000 ------- 0 0.0 4.2 2 5
- 0.04648 0 1 tcp 1000 ------- 0 0.0 4.2 2 5
r 0.05148 0 1 tcp 1000 ------- 0 0.0 4.2 1 4
+ 0.05148 1 2 tcp 1000 ------- 0 0.0 4.2 1 4
- 0.05148 1 2 tcp 1000 ------- 0 0.0 4.2 1 4
r 0.05548 0 1 tcp 1000 ------- 0 0.0 4.2 2 5
+ 0.05548 1 2 tcp 1000 ------- 0 0.0 4.2 2 5
- 0.05548 1 2 tcp 1000 ------- 0 0.0 4.2 2 5
r 0.06048 1 2 tcp 1000 ------- 0 0.0 4.2 1 4
+ 0.06048 2 4 tcp 1000 ------- 0 0.0 4.2 1 4
- 0.06048 2 4 tcp 1000 ------- 0 0.0 4.2 1 4
r 0.06448 1 2 tcp 1000 ------- 0 0.0 4.2 2 5
+ 0.06448 2 4 tcp 1000 ------- 0 0.0 4.2 2 5
- 0.06448 2 4 tcp 1000 ------- 0 0.0 4.2 2 5
r 0.06948 2 4 tcp 1000 ------- 0 0.0 4.2 1 4
+ 0.06948 4 2 ack 40 ------- 0 4.2 0.0 1 6
- 0.06948 4 2 ack 40 ------- 0 4.2 0.0 1 6
r 0.07348 2 4 tcp 1000 ------- 0 0.0 4.2 2 5
+ 0.07348 4 2 ack 40 ------- 0 4.2 0.0 2 7
- 0.07348 4 2 ack 40 ------- 0 4.2 0.0 2 7
r 0.07464 4 2 ack 40 ------- 0 4.2 0.0 1 6
+ 0.07464 2 1 ack 40 ------- 0 4.2 0.0 1 6
- 0.07464 2 1 ack 40 ------- 0 4.2 0.0 1 6
r 0.07864 4 2 ack 40 ------- 0 4.2 0.0 2 7
+ 0.07864 2 1 ack 40 ------- 0 4.2 0.0 2 7
- 0.07864 2 1 ack 40 ------- 0 4.2 0.0 2 7
r 0.0798 2 1 ack 40 ------- 0 4.2 0.0 1 6
+ 0.0798 1 0 ack 40 ------- 0 4.2 0.0 1 6
- 0.0798 1 0 ack 40 ------- 0 4.2 0.0 1 6
r 0.0838 2 1 ack 40 ------- 0 4.2 0.0 2 7
+ 0.0838 1 0 ack 40 ------- 0 4.2 0.0 2 7
- 0.0838 1 0 ack 40 ------- 0 4.2 0.0 2 7
r 0.08496 1 0 ack 40 ------- 0 4.2 0.0 1 6
+ 0.08496 0 1 tcp 1000 ------- 0 0.0 4.2 3 8
- 0.08496 0 1 tcp 1000 ------- 0 0.0 4.2 3 8
+ 0.08496 0 1 tcp 1000 ------- 0 0.0 4.2 4 9
- 0.08896 0 1 tcp 1000 ------- 0 0.0 4.2 4 9
r 0.08896 1 0 ack 40 ------- 0 4.2 0.0 2 7
+ 0.08896 0 1 tcp 1000 ------- 0 0.0 4.2 5 10
+ 0.08896 0 1 tcp 1000 ------- 0 0.0 4.2 6 11
- 0.09296 0 1 tcp 1000 ------- 0 0.0 4.2 5 10
r 0.09396 0 1 tcp 1000 ------- 0 0.0 4.2 3 8
+ 0.09396 1 2 tcp 1000 ------- 0 0.0 4.2 3 8
- 0.09396 1 2 tcp 1000 ------- 0 0.0 4.2 3 8
- 0.09696 0 1 tcp 1000 ------- 0 0.0 4.2 6 11
r 0.09796 0 1 tcp 1000 ------- 0 0.0 4.2 4 9
+ 0.09796 1 2 tcp 1000 ------- 0 0.0 4.2 4 9
- 0.09796 1 2 tcp 1000 ------- 0 0.0 4.2 4 9
v 0.10000000000000001 link-down 3 4
v 0.10000000000000001 link-down 3 4
v 0.10000000000000001 link-down 3 4
v 0.10000000000000001 link-down 3 4
v 0.10000000000000001 link-down 4 3
v 0.10000000000000001 link-down 4 3
v 0.10000000000000001 link-down 4 3
v 0.10000000000000001 link-down 4 3
r 0.10196 0 1 tcp 1000 ------- 0 0.0 4.2 5 10
+ 0.10196 1 2 tcp 1000 ------- 0 0.0 4.2 5 10
- 0.10196 1 2 tcp 1000 ------- 0 0.0 4.2 5 10
r 0.10296 1 2 tcp 1000 ------- 0 0.0 4.2 3 8
+ 0.10296 2 4 tcp 1000 ------- 0 0.0 4.2 3 8
- 0.10296 2 4 tcp 1000 ------- 0 0.0 4.2 3 8
r 0.10596 0 1 tcp 1000 ------- 0 0.0 4.2 6 11
+ 0.10596 1 2 tcp 1000 ------- 0 0.0 4.2 6 11
- 0.10596 1 2 tcp 1000 ------- 0 0.0 4.2 6 11
r 0.10696 1 2 tcp 1000 ------- 0 0.0 4.2 4 9
+ 0.10696 2 4 tcp 1000 ------- 0 0.0 4.2 4 9
- 0.10696 2 4 tcp 1000 ------- 0 0.0 4.2 4 9
r 0.11096 1 2 tcp 1000 ------- 0 0.0 4.2 5 10
+ 0.11096 2 4 tcp 1000 ------- 0 0.0 4.2 5 10
- 0.11096 2 4 tcp 1000 ------- 0 0.0 4.2 5 10
r 0.11196 2 4 tcp 1000 ------- 0 0.0 4.2 3 8
+ 0.11196 4 2 ack 40 ------- 0 4.2 0.0 3 12
- 0.11196 4 2 ack 40 ------- 0 4.2 0.0 3 12
r 0.11496 1 2 tcp 1000 ------- 0 0.0 4.2 6 11
+ 0.11496 2 4 tcp 1000 ------- 0 0.0 4.2 6 11
- 0.11496 2 4 tcp 1000 ------- 0 0.0 4.2 6 11
r 0.11596 2 4 tcp 1000 ------- 0 0.0 4.2 4 9
+ 0.11596 4 2 ack 40 ------- 0 4.2 0.0 4 13
- 0.11596 4 2 ack 40 ------- 0 4.2 0.0 4 13
r 0.11712 4 2 ack 40 ------- 0 4.2 0.0 3 12
+ 0.11712 2 1 ack 40 ------- 0 4.2 0.0 3 12
- 0.11712 2 1 ack 40 ------- 0 4.2 0.0 3 12
r 0.11996 2 4 tcp 1000 ------- 0 0.0 4.2 5 10
+ 0.11996 4 2 ack 40 ------- 0 4.2 0.0 5 14
- 0.11996 4 2 ack 40 ------- 0 4.2 0.0 5 14
r 0.12112 4 2 ack 40 ------- 0 4.2 0.0 4 13
+ 0.12112 2 1 ack 40 ------- 0 4.2 0.0 4 13
- 0.12112 2 1 ack 40 ------- 0 4.2 0.0 4 13
r 0.12228 2 1 ack 40 ------- 0 4.2 0.0 3 12
+ 0.12228 1 0 ack 40 ------- 0 4.2 0.0 3 12
- 0.12228 1 0 ack 40 ------- 0 4.2 0.0 3 12
r 0.12396 2 4 tcp 1000 ------- 0 0.0 4.2 6 11
+ 0.12396 4 2 ack 40 ------- 0 4.2 0.0 6 15
- 0.12396 4 2 ack 40 ------- 0 4.2 0.0 6 15
r 0.12512 4 2 ack 40 ------- 0 4.2 0.0 5 14
+ 0.12512 2 1 ack 40 ------- 0 4.2 0.0 5 14
- 0.12512 2 1 ack 40 ------- 0 4.2 0.0 5 14
r 0.12628 2 1 ack 40 ------- 0 4.2 0.0 4 13
+ 0.12628 1 0 ack 40 ------- 0 4.2 0.0 4 13
- 0.12628 1 0 ack 40 ------- 0 4.2 0.0 4 13
r 0.12744 1 0 ack 40 ------- 0 4.2 0.0 3 12
+ 0.12744 0 1 tcp 1000 ------- 0 0.0 4.2 7 16
- 0.12744 0 1 tcp 1000 ------- 0 0.0 4.2 7 16
+ 0.12744 0 1 tcp 1000 ------- 0 0.0 4.2 8 17
r 0.12912 4 2 ack 40 ------- 0 4.2 0.0 6 15
+ 0.12912 2 1 ack 40 ------- 0 4.2 0.0 6 15
- 0.12912 2 1 ack 40 ------- 0 4.2 0.0 6 15
r 0.13028 2 1 ack 40 ------- 0 4.2 0.0 5 14
+ 0.13028 1 0 ack 40 ------- 0 4.2 0.0 5 14
- 0.13028 1 0 ack 40 ------- 0 4.2 0.0 5 14
r 0.13144 1 0 ack 40 ------- 0 4.2 0.0 4 13
+ 0.13144 0 1 tcp 1000 ------- 0 0.0 4.2 9 18
+ 0.13144 0 1 tcp 1000 ------- 0 0.0 4.2 10 19
- 0.13144 0 1 tcp 1000 ------- 0 0.0 4.2 8 17
r 0.13428 2 1 ack 40 ------- 0 4.2 0.0 6 15
+ 0.13428 1 0 ack 40 ------- 0 4.2 0.0 6 15
- 0.13428 1 0 ack 40 ------- 0 4.2 0.0 6 15
r 0.13544 1 0 ack 40 ------- 0 4.2 0.0 5 14
+ 0.13544 0 1 tcp 1000 ------- 0 0.0 4.2 11 20
+ 0.13544 0 1 tcp 1000 ------- 0 0.0 4.2 12 21
- 0.13544 0 1 tcp 1000 ------- 0 0.0 4.2 9 18
r 0.13644 0 1 tcp 1000 ------- 0 0.0 4.2 7 16
+ 0.13644 1 2 tcp 1000 ------- 0 0.0 4.2 7 16
- 0.13644 1 2 tcp 1000 ------- 0 0.0 4.2 7 16
r 0.13944 1 0 ack 40 ------- 0 4.2 0.0 6 15
+ 0.13944 0 1 tcp 1000 ------- 0 0.0 4.2 13 22
+ 0.13944 0 1 tcp 1000 ------- 0 0.0 4.2 14 23
- 0.13944 0 1 tcp 1000 ------- 0 0.0 4.2 10 19
r 0.14044 0 1 tcp 1000 ------- 0 0.0 4.2 8 17
+ 0.14044 1 2 tcp 1000 ------- 0 0.0 4.2 8 17
- 0.14044 1 2 tcp 1000 ------- 0 0.0 4.2 8 17
- 0.14344 0 1 tcp 1000 ------- 0 0.0 4.2 11 20
r 0.14444 0 1 tcp 1000 ------- 0 0.0 4.2 9 18
+ 0.14444 1 2 tcp 1000 ------- 0 0.0 4.2 9 18
- 0.14444 1 2 tcp 1000 ------- 0 0.0 4.2 9 18
r 0.14544 1 2 tcp 1000 ------- 0 0.0 4.2 7 16
+ 0.14544 2 4 tcp 1000 ------- 0 0.0 4.2 7 16
- 0.14544 2 4 tcp 1000 ------- 0 0.0 4.2 7 16
- 0.14744 0 1 tcp 1000 ------- 0 0.0 4.2 12 21
r 0.14844 0 1 tcp 1000 ------- 0 0.0 4.2 10 19
+ 0.14844 1 2 tcp 1000 ------- 0 0.0 4.2 10 19
- 0.14844 1 2 tcp 1000 ------- 0 0.0 4.2 10 19
r 0.14944 1 2 tcp 1000 ------- 0 0.0 4.2 8 17
+ 0.14944 2 4 tcp 1000 ------- 0 0.0 4.2 8 17
- 0.14944 2 4 tcp 1000 ------- 0 0.0 4.2 8 17
- 0.15144 0 1 tcp 1000 ------- 0 0.0 4.2 13 22
r 0.15244 0 1 tcp 1000 ------- 0 0.0 4.2 11 20
+ 0.15244 1 2 tcp 1000 ------- 0 0.0 4.2 11 20
- 0.15244 1 2 tcp 1000 ------- 0 0.0 4.2 11 20
r 0.15344 1 2 tcp 1000 ------- 0 0.0 4.2 9 18
+ 0.15344 2 4 tcp 1000 ------- 0 0.0 4.2 9 18
- 0.15344 2 4 tcp 1000 ------- 0 0.0 4.2 9 18
r 0.15444 2 4 tcp 1000 ------- 0 0.0 4.2 7 16
+ 0.15444 4 2 ack 40 ------- 0 4.2 0.0 7 24
- 0.15444 4 2 ack 40 ------- 0 4.2 0.0 7 24
- 0.15544 0 1 tcp 1000 ------- 0 0.0 4.2 14 23
r 0.15644 0 1 tcp 1000 ------- 0 0.0 4.2 12 21
+ 0.15644 1 2 tcp 1000 ------- 0 0.0 4.2 12 21
- 0.15644 1 2 tcp 1000 ------- 0 0.0 4.2 12 21
r 0.15744 1 2 tcp 1000 ------- 0 0.0 4.2 10 19
+ 0.15744 2 4 tcp 1000 ------- 0 0.0 4.2 10 19
- 0.15744 2 4 tcp 1000 ------- 0 0.0 4.2 10 19
r 0.15844 2 4 tcp 1000 ------- 0 0.0 4.2 8 17
+ 0.15844 4 2 ack 40 ------- 0 4.2 0.0 8 25
- 0.15844 4 2 ack 40 ------- 0 4.2 0.0 8 25
r 0.1596 4 2 ack 40 ------- 0 4.2 0.0 7 24
+ 0.1596 2 1 ack 40 ------- 0 4.2 0.0 7 24
- 0.1596 2 1 ack 40 ------- 0 4.2 0.0 7 24
r 0.16044 0 1 tcp 1000 ------- 0 0.0 4.2 13 22
+ 0.16044 1 2 tcp 1000 ------- 0 0.0 4.2 13 22
- 0.16044 1 2 tcp 1000 ------- 0 0.0 4.2 13 22
r 0.16144 1 2 tcp 1000 ------- 0 0.0 4.2 11 20
+ 0.16144 2 4 tcp 1000 ------- 0 0.0 4.2 11 20
- 0.16144 2 4 tcp 1000 ------- 0 0.0 4.2 11 20
r 0.16244 2 4 tcp 1000 ------- 0 0.0 4.2 9 18
+ 0.16244 4 2 ack 40 ------- 0 4.2 0.0 9 26
- 0.16244 4 2 ack 40 ------- 0 4.2 0.0 9 26
r 0.1636 4 2 ack 40 ------- 0 4.2 0.0 8 25
+ 0.1636 2 1 ack 40 ------- 0 4.2 0.0 8 25
- 0.1636 2 1 ack 40 ------- 0 4.2 0.0 8 25
r 0.16444 0 1 tcp 1000 ------- 0 0.0 4.2 14 23
+ 0.16444 1 2 tcp 1000 ------- 0 0.0 4.2 14 23
- 0.16444 1 2 tcp 1000 ------- 0 0.0 4.2 14 23
r 0.16476 2 1 ack 40 ------- 0 4.2 0.0 7 24
+ 0.16476 1 0 ack 40 ------- 0 4.2 0.0 7 24
- 0.16476 1 0 ack 40 ------- 0 4.2 0.0 7 24
r 0.16544 1 2 tcp 1000 ------- 0 0.0 4.2 12 21
+ 0.16544 2 4 tcp 1000 ------- 0 0.0 4.2 12 21
- 0.16544 2 4 tcp 1000 ------- 0 0.0 4.2 12 21
r 0.16644 2 4 tcp 1000 ------- 0 0.0 4.2 10 19
+ 0.16644 4 2 ack 40 ------- 0 4.2 0.0 10 27
- 0.16644 4 2 ack 40 ------- 0 4.2 0.0 10 27
r 0.1676 4 2 ack 40 ------- 0 4.2 0.0 9 26
+ 0.1676 2 1 ack 40 ------- 0 4.2 0.0 9 26
- 0.1676 2 1 ack 40 ------- 0 4.2 0.0 9 26
r 0.16876 2 1 ack 40 ------- 0 4.2 0.0 8 25
+ 0.16876 1 0 ack 40 ------- 0 4.2 0.0 8 25
- 0.16876 1 0 ack 40 ------- 0 4.2 0.0 8 25
r 0.16944 1 2 tcp 1000 ------- 0 0.0 4.2 13 22
+ 0.16944 2 4 tcp 1000 ------- 0 0.0 4.2 13 22
- 0.16944 2 4 tcp 1000 ------- 0 0.0 4.2 13 22
r 0.16992 1 0 ack 40 ------- 0 4.2 0.0 7 24
+ 0.16992 0 1 tcp 1000 ------- 0 0.0 4.2 15 28
- 0.16992 0 1 tcp 1000 ------- 0 0.0 4.2 15 28
+ 0.16992 0 1 tcp 1000 ------- 0 0.0 4.2 16 29
r 0.17044 2 4 tcp 1000 ------- 0 0.0 4.2 11 20
+ 0.17044 4 2 ack 40 ------- 0 4.2 0.0 11 30
- 0.17044 4 2 ack 40 ------- 0 4.2 0.0 11 30
r 0.1716 4 2 ack 40 ------- 0 4.2 0.0 10 27
+ 0.1716 2 1 ack 40 ------- 0 4.2 0.0 10 27
- 0.1716 2 1 ack 40 ------- 0 4.2 0.0 10 27
r 0.17276 2 1 ack 40 ------- 0 4.2 0.0 9 26
+ 0.17276 1 0 ack 40 ------- 0 4.2 0.0 9 26
- 0.17276 1 0 ack 40 ------- 0 4.2 0.0 9 26
r 0.17344 1 2 tcp 1000 ------- 0 0.0 4.2 14 23
+ 0.17344 2 4 tcp 1000 ------- 0 0.0 4.2 14 23
- 0.17344 2 4 tcp 1000 ------- 0 0.0 4.2 14 23
r 0.17392 1 0 ack 40 ------- 0 4.2 0.0 8 25
+ 0.17392 0 1 tcp 1000 ------- 0 0.0 4.2 17 31
+ 0.17392 0 1 tcp 1000 ------- 0 0.0 4.2 18 32
- 0.17392 0 1 tcp 1000 ------- 0 0.0 4.2 16 29
r 0.17444 2 4 tcp 1000 ------- 0 0.0 4.2 12 21
+ 0.17444 4 2 ack 40 ------- 0 4.2 0.0 12 33
- 0.17444 4 2 ack 40 ------- 0 4.2 0.0 12 33
r 0.1756 4 2 ack 40 ------- 0 4.2 0.0 11 30
+ 0.1756 2 1 ack 40 ------- 0 4.2 0.0 11 30
- 0.1756 2 1 ack 40 ------- 0 4.2 0.0 11 30
r 0.17676 2 1 ack 40 ------- 0 4.2 0.0 10 27
+ 0.17676 1 0 ack 40 ------- 0 4.2 0.0 10 27
- 0.17676 1 0 ack 40 ------- 0 4.2 0.0 10 27
r 0.17792 1 0 ack 40 ------- 0 4.2 0.0 9 26
+ 0.17792 0 1 tcp 1000 ------- 0 0.0 4.2 19 34
+ 0.17792 0 1 tcp 1000 ------- 0 0.0 4.2 20 35
- 0.17792 0 1 tcp 1000 ------- 0 0.0 4.2 17 31
r 0.17844 2 4 tcp 1000 ------- 0 0.0 4.2 13 22
+ 0.17844 4 2 ack 40 ------- 0 4.2 0.0 13 36
- 0.17844 4 2 ack 40 ------- 0 4.2 0.0 13 36
r 0.17892 0 1 tcp 1000 ------- 0 0.0 4.2 15 28
+ 0.17892 1 2 tcp 1000 ------- 0 0.0 4.2 15 28
- 0.17892 1 2 tcp 1000 ------- 0 0.0 4.2 15 28
r 0.1796 4 2 ack 40 ------- 0 4.2 0.0 12 33
+ 0.1796 2 1 ack 40 ------- 0 4.2 0.0 12 33
- 0.1796 2 1 ack 40 ------- 0 4.2 0.0 12 33
r 0.18076 2 1 ack 40 ------- 0 4.2 0.0 11 30
+ 0.18076 1 0 ack 40 ------- 0 4.2 0.0 11 30
- 0.18076 1 0 ack 40 ------- 0 4.2 0.0 11 30
r 0.18192 1 0 ack 40 ------- 0 4.2 0.0 10 27
+ 0.18192 0 1 tcp 1000 ------- 0 0.0 4.2 21 37
+ 0.18192 0 1 tcp 1000 ------- 0 0.0 4.2 22 38
- 0.18192 0 1 tcp 1000 ------- 0 0.0 4.2 18 32
r 0.18244 2 4 tcp 1000 ------- 0 0.0 4.2 14 23
+ 0.18244 4 2 ack 40 ------- 0 4.2 0.0 14 39
- 0.18244 4 2 ack 40 ------- 0 4.2 0.0 14 39
r 0.18292 0 1 tcp 1000 ------- 0 0.0 4.2 16 29
+ 0.18292 1 2 tcp 1000 ------- 0 0.0 4.2 16 29
- 0.18292 1 2 tcp 1000 ------- 0 0.0 4.2 16 29
r 0.1836 4 2 ack 40 ------- 0 4.2 0.0 13 36
+ 0.1836 2 1 ack 40 ------- 0 4.2 0.0 13 36
- 0.1836 2 1 ack 40 ------- 0 4.2 0.0 13 36
r 0.18476 2 1 ack 40 ------- 0 4.2 0.0 12 33
+ 0.18476 1 0 ack 40 ------- 0 4.2 0.0 12 33
- 0.18476 1 0 ack 40 ------- 0 4.2 0.0 12 33
r 0.18592 1 0 ack 40 ------- 0 4.2 0.0 11 30
+ 0.18592 0 1 tcp 1000 ------- 0 0.0 4.2 23 40
+ 0.18592 0 1 tcp 1000 ------- 0 0.0 4.2 24 41
- 0.18592 0 1 tcp 1000 ------- 0 0.0 4.2 19 34
r 0.18692 0 1 tcp 1000 ------- 0 0.0 4.2 17 31
+ 0.18692 1 2 tcp 1000 ------- 0 0.0 4.2 17 31
- 0.18692 1 2 tcp 1000 ------- 0 0.0 4.2 17 31
r 0.1876 4 2 ack 40 ------- 0 4.2 0.0 14 39
+ 0.1876 2 1 ack 40 ------- 0 4.2 0.0 14 39
- 0.1876 2 1 ack 40 ------- 0 4.2 0.0 14 39
r 0.18792 1 2 tcp 1000 ------- 0 0.0 4.2 15 28
+ 0.18792 2 4 tcp 1000 ------- 0 0.0 4.2 15 28
- 0.18792 2 4 tcp 1000 ------- 0 0.0 4.2 15 28
r 0.18876 2 1 ack 40 ------- 0 4.2 0.0 13 36
+ 0.18876 1 0 ack 40 ------- 0 4.2 0.0 13 36
- 0.18876 1 0 ack 40 ------- 0 4.2 0.0 13 36
r 0.18992 1 0 ack 40 ------- 0 4.2 0.0 12 33
+ 0.18992 0 1 tcp 1000 ------- 0 0.0 4.2 25 42
+ 0.18992 0 1 tcp 1000 ------- 0 0.0 4.2 26 43
- 0.18992 0 1 tcp 1000 ------- 0 0.0 4.2 20 35
r 0.19092 0 1 tcp 1000 ------- 0 0.0 4.2 18 32
+ 0.19092 1 2 tcp 1000 ------- 0 0.0 4.2 18 32
- 0.19092 1 2 tcp 1000 ------- 0 0.0 4.2 18 32
r 0.19192 1 2 tcp 1000 ------- 0 0.0 4.2 16 29
+ 0.19192 2 4 tcp 1000 ------- 0 0.0 4.2 16 29
- 0.19192 2 4 tcp 1000 ------- 0 0.0 4.2 16 29
r 0.19276 2 1 ack 40 ------- 0 4.2 0.0 14 39
+ 0.19276 1 0 ack 40 ------- 0 4.2 0.0 14 39
- 0.19276 1 0 ack 40 ------- 0 4.2 0.0 14 39
r 0.19392 1 0 ack 40 ------- 0 4.2 0.0 13 36
+ 0.19392 0 1 tcp 1000 ------- 0 0.0 4.2 27 44
+ 0.19392 0 1 tcp 1000 ------- 0 0.0 4.2 28 45
- 0.19392 0 1 tcp 1000 ------- 0 0.0 4.2 21 37
r 0.19492 0 1 tcp 1000 ------- 0 0.0 4.2 19 34
+ 0.19492 1 2 tcp 1000 ------- 0 0.0 4.2 19 34
- 0.19492 1 2 tcp 1000 ------- 0 0.0 4.2 19 34
r 0.19592 1 2 tcp 1000 ------- 0 0.0 4.2 17 31
+ 0.19592 2 4 tcp 1000 ------- 0 0.0 4.2 17 31
- 0.19592 2 4 tcp 1000 ------- 0 0.0 4.2 17 31
r 0.19692 2 4 tcp 1000 ------- 0 0.0 4.2 15 28
+ 0.19692 4 2 ack 40 ------- 0 4.2 0.0 15 46
- 0.19692 4 2 ack 40 ------- 0 4.2 0.0 15 46
r 0.19792 1 0 ack 40 ------- 0 4.2 0.0 14 39
+ 0.19792 0 1 tcp 1000 ------- 0 0.0 4.2 29 47
+ 0.19792 0 1 tcp 1000 ------- 0 0.0 4.2 30 48
- 0.19792 0 1 tcp 1000 ------- 0 0.0 4.2 22 38
r 0.19892 0 1 tcp 1000 ------- 0 0.0 4.2 20 35
+ 0.19892 1 2 tcp 1000 ------- 0 0.0 4.2 20 35
- 0.19892 1 2 tcp 1000 ------- 0 0.0 4.2 20 35
r 0.19992 1 2 tcp 1000 ------- 0 0.0 4.2 18 32
+ 0.19992 2 4 tcp 1000 ------- 0 0.0 4.2 18 32
- 0.19992 2 4 tcp 1000 ------- 0 0.0 4.2 18 32
r 0.20092 2 4 tcp 1000 ------- 0 0.0 4.2 16 29
+ 0.20092 4 2 ack 40 ------- 0 4.2 0.0 16 49
- 0.20092 4 2 ack 40 ------- 0 4.2 0.0 16 49
- 0.20192 0 1 tcp 1000 ------- 0 0.0 4.2 23 40
r 0.20208 4 2 ack 40 ------- 0 4.2 0.0 15 46
+ 0.20208 2 1 ack 40 ------- 0 4.2 0.0 15 46
- 0.20208 2 1 ack 40 ------- 0 4.2 0.0 15 46
r 0.20292 0 1 tcp 1000 ------- 0 0.0 4.2 21 37
+ 0.20292 1 2 tcp 1000 ------- 0 0.0 4.2 21 37
- 0.20292 1 2 tcp 1000 ------- 0 0.0 4.2 21 37
r 0.20392 1 2 tcp 1000 ------- 0 0.0 4.2 19 34
+ 0.20392 2 4 tcp 1000 ------- 0 0.0 4.2 19 34
- 0.20392 2 4 tcp 1000 ------- 0 0.0 4.2 19 34
r 0.20492 2 4 tcp 1000 ------- 0 0.0 4.2 17 31
+ 0.20492 4 2 ack 40 ------- 0 4.2 0.0 17 50
- 0.20492 4 2 ack 40 ------- 0 4.2 0.0 17 50
- 0.20592 0 1 tcp 1000 ------- 0 0.0 4.2 24 41
r 0.20608 4 2 ack 40 ------- 0 4.2 0.0 16 49
+ 0.20608 2 1 ack 40 ------- 0 4.2 0.0 16 49
- 0.20608 2 1 ack 40 ------- 0 4.2 0.0 16 49
r 0.20692 0 1 tcp 1000 ------- 0 0.0 4.2 22 38
+ 0.20692 1 2 tcp 1000 ------- 0 0.0 4.2 22 38
- 0.20692 1 2 tcp 1000 ------- 0 0.0 4.2 22 38
r 0.20724 2 1 ack 40 ------- 0 4.2 0.0 15 46
+ 0.20724 1 0 ack 40 ------- 0 4.2 0.0 15 46
- 0.20724 1 0 ack 40 ------- 0 4.2 0.0 15 46
r 0.20792 1 2 tcp 1000 ------- 0 0.0 4.2 20 35
+ 0.20792 2 4 tcp 1000 ------- 0 0.0 4.2 20 35
- 0.20792 2 4 tcp 1000 ------- 0 0.0 4.2 20 35
r 0.20892 2 4 tcp 1000 ------- 0 0.0 4.2 18 32
+ 0.20892 4 2 ack 40 ------- 0 4.2 0.0 18 51
- 0.20892 4 2 ack 40 ------- 0 4.2 0.0 18 51
- 0.20992 0 1 tcp 1000 ------- 0 0.0 4.2 25 42
r 0.21008 4 2 ack 40 ------- 0 4.2 0.0 17 50
+ 0.21008 2 1 ack 40 ------- 0 4.2 0.0 17 50
- 0.21008 2 1 ack 40 ------- 0 4.2 0.0 17 50
r 0.21092 0 1 tcp 1000 ------- 0 0.0 4.2 23 40
+ 0.21092 1 2 tcp 1000 ------- 0 0.0 4.2 23 40
- 0.21092 1 2 tcp 1000 ------- 0 0.0 4.2 23 40
r 0.21124 2 1 ack 40 ------- 0 4.2 0.0 16 49
+ 0.21124 1 0 ack 40 ------- 0 4.2 0.0 16 49
- 0.21124 1 0 ack 40 ------- 0 4.2 0.0 16 49
r 0.21192 1 2 tcp 1000 ------- 0 0.0 4.2 21 37
+ 0.21192 2 4 tcp 1000 ------- 0 0.0 4.2 21 37
- 0.21192 2 4 tcp 1000 ------- 0 0.0 4.2 21 37
r 0.2124 1 0 ack 40 ------- 0 4.2 0.0 15 46
+ 0.2124 0 1 tcp 1000 ------- 0 0.0 4.2 31 52
+ 0.2124 0 1 tcp 1000 ------- 0 0.0 4.2 32 53
r 0.21292 2 4 tcp 1000 ------- 0 0.0 4.2 19 34
+ 0.21292 4 2 ack 40 ------- 0 4.2 0.0 19 54
- 0.21292 4 2 ack 40 ------- 0 4.2 0.0 19 54
- 0.21392 0 1 tcp 1000 ------- 0 0.0 4.2 26 43
r 0.21408 4 2 ack 40 ------- 0 4.2 0.0 18 51
+ 0.21408 2 1 ack 40 ------- 0 4.2 0.0 18 51
- 0.21408 2 1 ack 40 ------- 0 4.2 0.0 18 51
r 0.21492 0 1 tcp 1000 ------- 0 0.0 4.2 24 41
+ 0.21492 1 2 tcp 1000 ------- 0 0.0 4.2 24 41
- 0.21492 1 2 tcp 1000 ------- 0 0.0 4.2 24 41
r 0.21524 2 1 ack 40 ------- 0 4.2 0.0 17 50
+ 0.21524 1 0 ack 40 ------- 0 4.2 0.0 17 50
- 0.21524 1 0 ack 40 ------- 0 4.2 0.0 17 50
r 0.21592 1 2 tcp 1000 ------- 0 0.0 4.2 22 38
+ 0.21592 2 4 tcp 1000 ------- 0 0.0 4.2 22 38
- 0.21592 2 4 tcp 1000 ------- 0 0.0 4.2 22 38
r 0.2164 1 0 ack 40 ------- 0 4.2 0.0 16 49
+ 0.2164 0 1 tcp 1000 ------- 0 0.0 4.2 33 55
+ 0.2164 0 1 tcp 1000 ------- 0 0.0 4.2 34 56
r 0.21692 2 4 tcp 1000 ------- 0 0.0 4.2 20 35
+ 0.21692 4 2 ack 40 ------- 0 4.2 0.0 20 57
- 0.21692 4 2 ack 40 ------- 0 4.2 0.0 20 57
- 0.21792 0 1 tcp 1000 ------- 0 0.0 4.2 27 44
r 0.21808 4 2 ack 40 ------- 0 4.2 0.0 19 54
+ 0.21808 2 1 ack 40 ------- 0 4.2 0.0 19 54
- 0.21808 2 1 ack 40 ------- 0 4.2 0.0 19 54
r 0.21892 0 1 tcp 1000 ------- 0 0.0 4.2 25 42
+ 0.21892 1 2 tcp 1000 ------- 0 0.0 4.2 25 42
- 0.21892 1 2 tcp 1000 ------- 0 0.0 4.2 25 42
r 0.21924 2 1 ack 40 ------- 0 4.2 0.0 18 51
+ 0.21924 1 0 ack 40 ------- 0 4.2 0.0 18 51
- 0.21924 1 0 ack 40 ------- 0 4.2 0.0 18 51
r 0.21992 1 2 tcp 1000 ------- 0 0.0 4.2 23 40
+ 0.21992 2 4 tcp 1000 ------- 0 0.0 4.2 23 40
- 0.21992 2 4 tcp 1000 ------- 0 0.0 4.2 23 40
r 0.2204 1 0 ack 40 ------- 0 4.2 0.0 17 50
+ 0.2204 0 1 tcp 1000 ------- 0 0.0 4.2 35 58
+ 0.2204 0 1 tcp 1000 ------- 0 0.0 4.2 36 59
r 0.22092 2 4 tcp 1000 ------- 0 0.0 4.2 21 37
+ 0.22092 4 2 ack 40 ------- 0 4.2 0.0 21 60
- 0.22092 4 2 ack 40 ------- 0 4.2 0.0 21 60
- 0.22192 0 1 tcp 1000 ------- 0 0.0 4.2 28 45
r 0.22208 4 2 ack 40 ------- 0 4.2 0.0 20 57
+ 0.22208 2 1 ack 40 ------- 0 4.2 0.0 20 57
- 0.22208 2 1 ack 40 ------- 0 4.2 0.0 20 57
r 0.22292 0 1 tcp 1000 ------- 0 0.0 4.2 26 43
+ 0.22292 1 2 tcp 1000 ------- 0 0.0 4.2 26 43
- 0.22292 1 2 tcp 1000 ------- 0 0.0 4.2 26 43
r 0.22324 2 1 ack 40 ------- 0 4.2 0.0 19 54
+ 0.22324 1 0 ack 40 ------- 0 4.2 0.0 19 54
- 0.22324 1 0 ack 40 ------- 0 4.2 0.0 19 54
r 0.22392 1 2 tcp 1000 ------- 0 0.0 4.2 24 41
+ 0.22392 2 4 tcp 1000 ------- 0 0.0 4.2 24 41
- 0.22392 2 4 tcp 1000 ------- 0 0.0 4.2 24 41
r 0.2244 1 0 ack 40 ------- 0 4.2 0.0 18 51
+ 0.2244 0 1 tcp 1000 ------- 0 0.0 4.2 37 61
+ 0.2244 0 1 tcp 1000 ------- 0 0.0 4.2 38 62
r 0.22492 2 4 tcp 1000 ------- 0 0.0 4.2 22 38
+ 0.22492 4 2 ack 40 ------- 0 4.2 0.0 22 63
- 0.22492 4 2 ack 40 ------- 0 4.2 0.0 22 63
- 0.22592 0 1 tcp 1000 ------- 0 0.0 4.2 29 47
r 0.22608 4 2 ack 40 ------- 0 4.2 0.0 21 60
+ 0.22608 2 1 ack 40 ------- 0 4.2 0.0 21 60
- 0.22608 2 1 ack 40 ------- 0 4.2 0.0 21 60
r 0.22692 0 1 tcp 1000 ------- 0 0.0 4.2 27 44
+ 0.22692 1 2 tcp 1000 ------- 0 0.0 4.2 27 44
- 0.22692 1 2 tcp 1000 ------- 0 0.0 4.2 27 44
r 0.22724 2 1 ack 40 ------- 0 4.2 0.0 20 57
+ 0.22724 1 0 ack 40 ------- 0 4.2 0.0 20 57
- 0.22724 1 0 ack 40 ------- 0 4.2 0.0 20 57
r 0.22792 1 2 tcp 1000 ------- 0 0.0 4.2 25 42
+ 0.22792 2 4 tcp 1000 ------- 0 0.0 4.2 25 42
- 0.22792 2 4 tcp 1000 ------- 0 0.0 4.2 25 42
r 0.2284 1 0 ack 40 ------- 0 4.2 0.0 19 54
+ 0.2284 0 1 tcp 1000 ------- 0 0.0 4.2 39 64
r 0.22892 2 4 tcp 1000 ------- 0 0.0 4.2 23 40
+ 0.22892 4 2 ack 40 ------- 0 4.2 0.0 23 65
- 0.22892 4 2 ack 40 ------- 0 4.2 0.0 23 65
- 0.22992 0 1 tcp 1000 ------- 0 0.0 4.2 30 48
r 0.23008 4 2 ack 40 ------- 0 4.2 0.0 22 63
+ 0.23008 2 1 ack 40 ------- 0 4.2 0.0 22 63
- 0.23008 2 1 ack 40 ------- 0 4.2 0.0 22 63
r 0.23092 0 1 tcp 1000 ------- 0 0.0 4.2 28 45
+ 0.23092 1 2 tcp 1000 ------- 0 0.0 4.2 28 45
- 0.23092 1 2 tcp 1000 ------- 0 0.0 4.2 28 45
r 0.23124 2 1 ack 40 ------- 0 4.2 0.0 21 60
+ 0.23124 1 0 ack 40 ------- 0 4.2 0.0 21 60
- 0.23124 1 0 ack 40 ------- 0 4.2 0.0 21 60
r 0.23192 1 2 tcp 1000 ------- 0 0.0 4.2 26 43
+ 0.23192 2 4 tcp 1000 ------- 0 0.0 4.2 26 43
- 0.23192 2 4 tcp 1000 ------- 0 0.0 4.2 26 43
r 0.2324 1 0 ack 40 ------- 0 4.2 0.0 20 57
+ 0.2324 0 1 tcp 1000 ------- 0 0.0 4.2 40 66
r 0.23292 2 4 tcp 1000 ------- 0 0.0 4.2 24 41
+ 0.23292 4 2 ack 40 ------- 0 4.2 0.0 24 67
- 0.23292 4 2 ack 40 ------- 0 4.2 0.0 24 67
- 0.23392 0 1 tcp 1000 ------- 0 0.0 4.2 31 52
r 0.23408 4 2 ack 40 ------- 0 4.2 0.0 23 65
+ 0.23408 2 1 ack 40 ------- 0 4.2 0.0 23 65
- 0.23408 2 1 ack 40 ------- 0 4.2 0.0 23 65
r 0.23492 0 1 tcp 1000 ------- 0 0.0 4.2 29 47
+ 0.23492 1 2 tcp 1000 ------- 0 0.0 4.2 29 47
- 0.23492 1 2 tcp 1000 ------- 0 0.0 4.2 29 47
r 0.23524 2 1 ack 40 ------- 0 4.2 0.0 22 63
+ 0.23524 1 0 ack 40 ------- 0 4.2 0.0 22 63
- 0.23524 1 0 ack 40 ------- 0 4.2 0.0 22 63
r 0.23592 1 2 tcp 1000 ------- 0 0.0 4.2 27 44
+ 0.23592 2 4 tcp 1000 ------- 0 0.0 4.2 27 44
- 0.23592 2 4 tcp 1000 ------- 0 0.0 4.2 27 44
r 0.2364 1 0 ack 40 ------- 0 4.2 0.0 21 60
+ 0.2364 0 1 tcp 1000 ------- 0 0.0 4.2 41 68
r 0.23692 2 4 tcp 1000 ------- 0 0.0 4.2 25 42
+ 0.23692 4 2 ack 40 ------- 0 4.2 0.0 25 69
- 0.23692 4 2 ack 40 ------- 0 4.2 0.0 25 69
- 0.23792 0 1 tcp 1000 ------- 0 0.0 4.2 32 53
r 0.23808 4 2 ack 40 ------- 0 4.2 0.0 24 67
+ 0.23808 2 1 ack 40 ------- 0 4.2 0.0 24 67
- 0.23808 2 1 ack 40 ------- 0 4.2 0.0 24 67
r 0.23892 0 1 tcp 1000 ------- 0 0.0 4.2 30 48
+ 0.23892 1 2 tcp 1000 ------- 0 0.0 4.2 30 48
- 0.23892 1 2 tcp 1000 ------- 0 0.0 4.2 30 48
r 0.23924 2 1 ack 40 ------- 0 4.2 0.0 23 65
+ 0.23924 1 0 ack 40 ------- 0 4.2 0.0 23 65
- 0.23924 1 0 ack 40 ------- 0 4.2 0.0 23 65
r 0.23992 1 2 tcp 1000 ------- 0 0.0 4.2 28 45
+ 0.23992 2 4 tcp 1000 ------- 0 0.0 4.2 28 45
- 0.23992 2 4 tcp 1000 ------- 0 0.0 4.2 28 45
r 0.2404 1 0 ack 40 ------- 0 4.2 0.0 22 63
+ 0.2404 0 1 tcp 1000 ------- 0 0.0 4.2 42 70
r 0.24092 2 4 tcp 1000 ------- 0 0.0 4.2 26 43
+ 0.24092 4 2 ack 40 ------- 0 4.2 0.0 26 71
- 0.24092 4 2 ack 40 ------- 0 4.2 0.0 26 71
- 0.24192 0 1 tcp 1000 ------- 0 0.0 4.2 33 55
r 0.24208 4 2 ack 40 ------- 0 4.2 0.0 25 69
+ 0.24208 2 1 ack 40 ------- 0 4.2 0.0 25 69
- 0.24208 2 1 ack 40 ------- 0 4.2 0.0 25 69
r 0.24292 0 1 tcp 1000 ------- 0 0.0 4.2 31 52
+ 0.24292 1 2 tcp 1000 ------- 0 0.0 4.2 31 52
- 0.24292 1 2 tcp 1000 ------- 0 0.0 4.2 31 52
r 0.24324 2 1 ack 40 ------- 0 4.2 0.0 24 67
+ 0.24324 1 0 ack 40 ------- 0 4.2 0.0 24 67
- 0.24324 1 0 ack 40 ------- 0 4.2 0.0 24 67
r 0.24392 1 2 tcp 1000 ------- 0 0.0 4.2 29 47
+ 0.24392 2 4 tcp 1000 ------- 0 0.0 4.2 29 47
- 0.24392 2 4 tcp 1000 ------- 0 0.0 4.2 29 47
r 0.2444 1 0 ack 40 ------- 0 4.2 0.0 23 65
+ 0.2444 0 1 tcp 1000 ------- 0 0.0 4.2 43 72
r 0.24492 2 4 tcp 1000 ------- 0 0.0 4.2 27 44
+ 0.24492 4 2 ack 40 ------- 0 4.2 0.0 27 73
- 0.24492 4 2 ack 40 ------- 0 4.2 0.0 27 73
- 0.24592 0 1 tcp 1000 ------- 0 0.0 4.2 34 56
r 0.24608 4 2 ack 40 ------- 0 4.2 0.0 26 71
+ 0.24608 2 1 ack 40 ------- 0 4.2 0.0 26 71
- 0.24608 2 1 ack 40 ------- 0 4.2 0.0 26 71
r 0.24692 0 1 tcp 1000 ------- 0 0.0 4.2 32 53
+ 0.24692 1 2 tcp 1000 ------- 0 0.0 4.2 32 53
- 0.24692 1 2 tcp 1000 ------- 0 0.0 4.2 32 53
r 0.24724 2 1 ack 40 ------- 0 4.2 0.0 25 69
+ 0.24724 1 0 ack 40 ------- 0 4.2 0.0 25 69
- 0.24724 1 0 ack 40 ------- 0 4.2 0.0 25 69
r 0.24792 1 2 tcp 1000 ------- 0 0.0 4.2 30 48
+ 0.24792 2 4 tcp 1000 ------- 0 0.0 4.2 30 48
- 0.24792 2 4 tcp 1000 ------- 0 0.0 4.2 30 48
r 0.2484 1 0 ack 40 ------- 0 4.2 0.0 24 67
+ 0.2484 0 1 tcp 1000 ------- 0 0.0 4.2 44 74
r 0.24892 2 4 tcp 1000 ------- 0 0.0 4.2 28 45
+ 0.24892 4 2 ack 40 ------- 0 4.2 0.0 28 75
- 0.24892 4 2 ack 40 ------- 0 4.2 0.0 28 75
- 0.24992 0 1 tcp 1000 ------- 0 0.0 4.2 35 58
r 0.25008 4 2 ack 40 ------- 0 4.2 0.0 27 73
+ 0.25008 2 1 ack 40 ------- 0 4.2 0.0 27 73
- 0.25008 2 1 ack 40 ------- 0 4.2 0.0 27 73
r 0.25092 0 1 tcp 1000 ------- 0 0.0 4.2 33 55
+ 0.25092 1 2 tcp 1000 ------- 0 0.0 4.2 33 55
- 0.25092 1 2 tcp 1000 ------- 0 0.0 4.2 33 55
r 0.25124 2 1 ack 40 ------- 0 4.2 0.0 26 71
+ 0.25124 1 0 ack 40 ------- 0 4.2 0.0 26 71
- 0.25124 1 0 ack 40 ------- 0 4.2 0.0 26 71
r 0.25192 1 2 tcp 1000 ------- 0 0.0 4.2 31 52
+ 0.25192 2 4 tcp 1000 ------- 0 0.0 4.2 31 52
- 0.25192 2 4 tcp 1000 ------- 0 0.0 4.2 31 52
r 0.2524 1 0 ack 40 ------- 0 4.2 0.0 25 69
+ 0.2524 0 1 tcp 1000 ------- 0 0.0 4.2 45 76
r 0.25292 2 4 tcp 1000 ------- 0 0.0 4.2 29 47
+ 0.25292 4 2 ack 40 ------- 0 4.2 0.0 29 77
- 0.25292 4 2 ack 40 ------- 0 4.2 0.0 29 77
- 0.25392 0 1 tcp 1000 ------- 0 0.0 4.2 36 59
r 0.25408 4 2 ack 40 ------- 0 4.2 0.0 28 75
+ 0.25408 2 1 ack 40 ------- 0 4.2 0.0 28 75
- 0.25408 2 1 ack 40 ------- 0 4.2 0.0 28 75
r 0.25492 0 1 tcp 1000 ------- 0 0.0 4.2 34 56
+ 0.25492 1 2 tcp 1000 ------- 0 0.0 4.2 34 56
- 0.25492 1 2 tcp 1000 ------- 0 0.0 4.2 34 56
r 0.25524 2 1 ack 40 ------- 0 4.2 0.0 27 73
+ 0.25524 1 0 ack 40 ------- 0 4.2 0.0 27 73
- 0.25524 1 0 ack 40 ------- 0 4.2 0.0 27 73
r 0.25592 1 2 tcp 1000 ------- 0 0.0 4.2 32 53
+ 0.25592 2 4 tcp 1000 ------- 0 0.0 4.2 32 53
- 0.25592 2 4 tcp 1000 ------- 0 0.0 4.2 32 53
r 0.2564 1 0 ack 40 ------- 0 4.2 0.0 26 71
+ 0.2564 0 1 tcp 1000 ------- 0 0.0 4.2 46 78
r 0.25692 2 4 tcp 1000 ------- 0 0.0 4.2 30 48
+ 0.25692 4 2 ack 40 ------- 0 4.2 0.0 30 79
- 0.25692 4 2 ack 40 ------- 0 4.2 0.0 30 79
- 0.25792 0 1 tcp 1000 ------- 0 0.0 4.2 37 61
r 0.25808 4 2 ack 40 ------- 0 4.2 0.0 29 77
+ 0.25808 2 1 ack 40 ------- 0 4.2 0.0 29 77
- 0.25808 2 1 ack 40 ------- 0 4.2 0.0 29 77
r 0.25892 0 1 tcp 1000 ------- 0 0.0 4.2 35 58
+ 0.25892 1 2 tcp 1000 ------- 0 0.0 4.2 35 58
- 0.25892 1 2 tcp 1000 ------- 0 0.0 4.2 35 58
r 0.25924 2 1 ack 40 ------- 0 4.2 0.0 28 75
+ 0.25924 1 0 ack 40 ------- 0 4.2 0.0 28 75
- 0.25924 1 0 ack 40 ------- 0 4.2 0.0 28 75
r 0.25992 1 2 tcp 1000 ------- 0 0.0 4.2 33 55
+ 0.25992 2 4 tcp 1000 ------- 0 0.0 4.2 33 55
- 0.25992 2 4 tcp 1000 ------- 0 0.0 4.2 33 55
r 0.2604 1 0 ack 40 ------- 0 4.2 0.0 27 73
+ 0.2604 0 1 tcp 1000 ------- 0 0.0 4.2 47 80
r 0.26092 2 4 tcp 1000 ------- 0 0.0 4.2 31 52
+ 0.26092 4 2 ack 40 ------- 0 4.2 0.0 31 81
- 0.26092 4 2 ack 40 ------- 0 4.2 0.0 31 81
- 0.26192 0 1 tcp 1000 ------- 0 0.0 4.2 38 62
r 0.26208 4 2 ack 40 ------- 0 4.2 0.0 30 79
+ 0.26208 2 1 ack 40 ------- 0 4.2 0.0 30 79
- 0.26208 2 1 ack 40 ------- 0 4.2 0.0 30 79
r 0.26292 0 1 tcp 1000 ------- 0 0.0 4.2 36 59
+ 0.26292 1 2 tcp 1000 ------- 0 0.0 4.2 36 59
- 0.26292 1 2 tcp 1000 ------- 0 0.0 4.2 36 59
r 0.26324 2 1 ack 40 ------- 0 4.2 0.0 29 77
+ 0.26324 1 0 ack 40 ------- 0 4.2 0.0 29 77
- 0.26324 1 0 ack 40 ------- 0 4.2 0.0 29 77
r 0.26392 1 2 tcp 1000 ------- 0 0.0 4.2 34 56
+ 0.26392 2 4 tcp 1000 ------- 0 0.0 4.2 34 56
- 0.26392 2 4 tcp 1000 ------- 0 0.0 4.2 34 56
r 0.2644 1 0 ack 40 ------- 0 4.2 0.0 28 75
+ 0.2644 0 1 tcp 1000 ------- 0 0.0 4.2 48 82
r 0.26492 2 4 tcp 1000 ------- 0 0.0 4.2 32 53
+ 0.26492 4 2 ack 40 ------- 0 4.2 0.0 32 83
- 0.26492 4 2 ack 40 ------- 0 4.2 0.0 32 83
- 0.26592 0 1 tcp 1000 ------- 0 0.0 4.2 39 64
r 0.26608 4 2 ack 40 ------- 0 4.2 0.0 31 81
+ 0.26608 2 1 ack 40 ------- 0 4.2 0.0 31 81
- 0.26608 2 1 ack 40 ------- 0 4.2 0.0 31 81
r 0.26692 0 1 tcp 1000 ------- 0 0.0 4.2 37 61
+ 0.26692 1 2 tcp 1000 ------- 0 0.0 4.2 37 61
- 0.26692 1 2 tcp 1000 ------- 0 0.0 4.2 37 61
r 0.26724 2 1 ack 40 ------- 0 4.2 0.0 30 79
+ 0.26724 1 0 ack 40 ------- 0 4.2 0.0 30 79
- 0.26724 1 0 ack 40 ------- 0 4.2 0.0 30 79
r 0.26792 1 2 tcp 1000 ------- 0 0.0 4.2 35 58
+ 0.26792 2 4 tcp 1000 ------- 0 0.0 4.2 35 58
- 0.26792 2 4 tcp 1000 ------- 0 0.0 4.2 35 58
r 0.2684 1 0 ack 40 ------- 0 4.2 0.0 29 77
+ 0.2684 0 1 tcp 1000 ------- 0 0.0 4.2 49 84
r 0.26892 2 4 tcp 1000 ------- 0 0.0 4.2 33 55
+ 0.26892 4 2 ack 40 ------- 0 4.2 0.0 33 85
- 0.26892 4 2 ack 40 ------- 0 4.2 0.0 33 85
- 0.26992 0 1 tcp 1000 ------- 0 0.0 4.2 40 66
r 0.27008 4 2 ack 40 ------- 0 4.2 0.0 32 83
+ 0.27008 2 1 ack 40 ------- 0 4.2 0.0 32 83
- 0.27008 2 1 ack 40 ------- 0 4.2 0.0 32 83
r 0.27092 0 1 tcp 1000 ------- 0 0.0 4.2 38 62
+ 0.27092 1 2 tcp 1000 ------- 0 0.0 4.2 38 62
- 0.27092 1 2 tcp 1000 ------- 0 0.0 4.2 38 62
r 0.27124 2 1 ack 40 ------- 0 4.2 0.0 31 81
+ 0.27124 1 0 ack 40 ------- 0 4.2 0.0 31 81
- 0.27124 1 0 ack 40 ------- 0 4.2 0.0 31 81