+ 0 1 4 sctp 56 -------I 0 1.0 4.0 1 -1 4 65535 65535
- 0 1 4 sctp 56 -------I 0 1.0 4.0 1 -1 4 65535 65535
r 0.045045 1 4 sctp 56 -------I 0 1.0 4.0 1 -1 4 65535 65535
+ 0.045045 4 1 sctp 56 -------I 0 4.0 1.0 1 -1 5 65535 65535
- 0.045045 4 1 sctp 56 -------I 0 4.0 1.0 1 -1 5 65535 65535
r 0.09009 4 1 sctp 56 -------I 0 4.0 1.0 1 -1 5 65535 65535
+ 0.09009 1 4 sctp 36 -------I 0 1.0 4.0 1 -1 6 65535 65535
- 0.09009 1 4 sctp 36 -------I 0 1.0 4.0 1 -1 6 65535 65535
r 0.135118 1 4 sctp 36 -------I 0 1.0 4.0 1 -1 6 65535 65535
+ 0.135118 4 1 sctp 36 -------I 0 4.0 1.0 1 -1 7 65535 65535
- 0.135118 4 1 sctp 36 -------I 0 4.0 1.0 1 -1 7 65535 65535
r 0.180147 4 1 sctp 36 -------I 0 4.0 1.0 1 -1 7 65535 65535
+ 0.180147 1 4 sctp 56 -------H 0 1.0 4.0 1 -1 8 65535 65535
- 0.180147 1 4 sctp 56 -------H 0 1.0 4.0 1 -1 8 65535 65535
+ 0.180147 2 5 sctp 56 -------H 0 2.0 5.0 1 -1 9 65535 65535
- 0.180147 2 5 sctp 56 -------H 0 2.0 5.0 1 -1 9 65535 65535
r 0.225192 1 4 sctp 56 -------H 0 1.0 4.0 1 -1 8 65535 65535
+ 0.225192 4 1 sctp 56 -------B 0 4.0 1.0 1 -1 10 65535 65535
- 0.225192 4 1 sctp 56 -------B 0 4.0 1.0 1 -1 10 65535 65535
r 0.225192 2 5 sctp 56 -------H 0 2.0 5.0 1 -1 9 65535 65535
+ 0.225192 5 2 sctp 56 -------B 0 5.0 2.0 1 -1 11 65535 65535
- 0.225192 5 2 sctp 56 -------B 0 5.0 2.0 1 -1 11 65535 65535
r 0.270237 4 1 sctp 56 -------B 0 4.0 1.0 1 -1 10 65535 65535
r 0.270237 5 2 sctp 56 -------B 0 5.0 2.0 1 -1 11 65535 65535
+ 0.270237 1 4 sctp 1500 -------D 0 1.0 4.0 1 1 12 0 0
- 0.270237 1 4 sctp 1500 -------D 0 1.0 4.0 1 1 12 0 0
+ 0.270237 1 4 sctp 1500 -------D 0 1.0 4.0 1 2 13 0 0
+ 0.270237 1 4 sctp 1500 -------D 0 1.0 4.0 1 3 14 0 0
+ 0.270237 2 5 sctp 1500 -------D 0 2.0 5.0 1 4 15 0 0
- 0.270237 2 5 sctp 1500 -------D 0 2.0 5.0 1 4 15 0 0
+ 0.270237 2 5 sctp 1500 -------D 0 2.0 5.0 1 5 16 0 0
+ 0.270237 2 5 sctp 1500 -------D 0 2.0 5.0 1 6 17 0 0
- 0.271437 1 4 sctp 1500 -------D 0 1.0 4.0 1 2 13 0 0
- 0.271437 2 5 sctp 1500 -------D 0 2.0 5.0 1 5 16 0 0
- 0.272637 1 4 sctp 1500 -------D 0 1.0 4.0 1 3 14 0 0
- 0.272637 2 5 sctp 1500 -------D 0 2.0 5.0 1 6 17 0 0
r 0.316437 1 4 sctp 1500 -------D 0 1.0 4.0 1 1 12 0 0
r 0.316437 2 5 sctp 1500 -------D 0 2.0 5.0 1 4 15 0 0
+ 0.316437 5 2 sctp 56 -------N 0 5.0 2.0 1 1 18 65535 65535
- 0.316437 5 2 sctp 56 -------N 0 5.0 2.0 1 1 18 65535 65535
r 0.317637 1 4 sctp 1500 -------D 0 1.0 4.0 1 2 13 0 0
r 0.317637 2 5 sctp 1500 -------D 0 2.0 5.0 1 5 16 0 0
+ 0.317637 5 2 sctp 56 -------N 0 5.0 2.0 1 2 19 65535 65535
- 0.317637 5 2 sctp 56 -------N 0 5.0 2.0 1 2 19 65535 65535
r 0.318837 1 4 sctp 1500 -------D 0 1.0 4.0 1 3 14 0 0
r 0.318837 2 5 sctp 1500 -------D 0 2.0 5.0 1 6 17 0 0
+ 0.318837 5 2 sctp 52 -------N 0 5.0 2.0 1 6 20 65535 65535
- 0.318837 5 2 sctp 52 -------N 0 5.0 2.0 1 6 20 65535 65535
r 0.361482 5 2 sctp 56 -------N 0 5.0 2.0 1 1 18 65535 65535
+ 0.361482 1 4 sctp 1500 -------D 0 1.0 4.0 1 7 21 0 0
- 0.361482 1 4 sctp 1500 -------D 0 1.0 4.0 1 7 21 0 0
+ 0.361482 1 4 sctp 1500 -------D 0 1.0 4.0 1 8 22 0 0
+ 0.361482 2 5 sctp 1500 -------D 0 2.0 5.0 1 9 23 0 0
- 0.361482 2 5 sctp 1500 -------D 0 2.0 5.0 1 9 23 0 0
+ 0.361482 2 5 sctp 1500 -------D 0 2.0 5.0 1 10 24 0 0
r 0.362682 5 2 sctp 56 -------N 0 5.0 2.0 1 2 19 65535 65535
+ 0.362682 1 4 sctp 1500 -------D 0 1.0 4.0 1 11 25 0 0
+ 0.362682 1 4 sctp 1500 -------D 0 1.0 4.0 1 12 26 0 0
+ 0.362682 2 5 sctp 1500 -------D 0 2.0 5.0 1 13 27 0 0
+ 0.362682 2 5 sctp 1500 -------D 0 2.0 5.0 1 14 28 0 0
- 0.362682 1 4 sctp 1500 -------D 0 1.0 4.0 1 8 22 0 0
- 0.362682 2 5 sctp 1500 -------D 0 2.0 5.0 1 10 24 0 0
r 0.363878 5 2 sctp 52 -------N 0 5.0 2.0 1 6 20 65535 65535
+ 0.363878 1 4 sctp 1500 -------D 0 1.0 4.0 1 15 29 0 0
+ 0.363878 1 4 sctp 1500 -------D 0 1.0 4.0 1 16 30 0 0
+ 0.363878 2 5 sctp 1500 -------D 0 2.0 5.0 1 17 31 0 0
+ 0.363878 2 5 sctp 1500 -------D 0 2.0 5.0 1 18 32 0 0
- 0.363882 1 4 sctp 1500 -------D 0 1.0 4.0 1 11 25 0 0
- 0.363882 2 5 sctp 1500 -------D 0 2.0 5.0 1 13 27 0 0
- 0.365082 1 4 sctp 1500 -------D 0 1.0 4.0 1 12 26 0 0
- 0.365082 2 5 sctp 1500 -------D 0 2.0 5.0 1 14 28 0 0
- 0.366282 1 4 sctp 1500 -------D 0 1.0 4.0 1 15 29 0 0
- 0.366282 2 5 sctp 1500 -------D 0 2.0 5.0 1 17 31 0 0
- 0.367482 1 4 sctp 1500 -------D 0 1.0 4.0 1 16 30 0 0
- 0.367482 2 5 sctp 1500 -------D 0 2.0 5.0 1 18 32 0 0
r 0.407682 1 4 sctp 1500 -------D 0 1.0 4.0 1 7 21 0 0
r 0.407682 2 5 sctp 1500 -------D 0 2.0 5.0 1 9 23 0 0
+ 0.407682 5 2 sctp 56 -------N 0 5.0 2.0 1 7 33 65535 65535
- 0.407682 5 2 sctp 56 -------N 0 5.0 2.0 1 7 33 65535 65535
r 0.408882 1 4 sctp 1500 -------D 0 1.0 4.0 1 8 22 0 0
r 0.408882 2 5 sctp 1500 -------D 0 2.0 5.0 1 10 24 0 0
+ 0.408882 5 2 sctp 52 -------N 0 5.0 2.0 1 10 34 65535 65535
- 0.408882 5 2 sctp 52 -------N 0 5.0 2.0 1 10 34 65535 65535
r 0.410082 1 4 sctp 1500 -------D 0 1.0 4.0 1 11 25 0 0
r 0.410082 2 5 sctp 1500 -------D 0 2.0 5.0 1 13 27 0 0
+ 0.410082 5 2 sctp 56 -------N 0 5.0 2.0 1 11 35 65535 65535
- 0.410082 5 2 sctp 56 -------N 0 5.0 2.0 1 11 35 65535 65535
r 0.411282 1 4 sctp 1500 -------D 0 1.0 4.0 1 12 26 0 0
r 0.411282 2 5 sctp 1500 -------D 0 2.0 5.0 1 14 28 0 0
+ 0.411282 5 2 sctp 52 -------N 0 5.0 2.0 1 14 36 65535 65535
- 0.411282 5 2 sctp 52 -------N 0 5.0 2.0 1 14 36 65535 65535
r 0.412482 1 4 sctp 1500 -------D 0 1.0 4.0 1 15 29 0 0
r 0.412482 2 5 sctp 1500 -------D 0 2.0 5.0 1 17 31 0 0
+ 0.412482 5 2 sctp 56 -------N 0 5.0 2.0 1 15 37 65535 65535
- 0.412482 5 2 sctp 56 -------N 0 5.0 2.0 1 15 37 65535 65535
r 0.413682 1 4 sctp 1500 -------D 0 1.0 4.0 1 16 30 0 0
r 0.413682 2 5 sctp 1500 -------D 0 2.0 5.0 1 18 32 0 0
+ 0.413682 5 2 sctp 52 -------N 0 5.0 2.0 1 18 38 65535 65535
- 0.413682 5 2 sctp 52 -------N 0 5.0 2.0 1 18 38 65535 65535
r 0.452726 5 2 sctp 56 -------N 0 5.0 2.0 1 7 33 65535 65535
+ 0.452726 1 4 sctp 1500 -------D 0 1.0 4.0 1 19 39 0 0
- 0.452726 1 4 sctp 1500 -------D 0 1.0 4.0 1 19 39 0 0
+ 0.452726 1 4 sctp 1500 -------D 0 1.0 4.0 1 20 40 0 0
+ 0.452726 2 5 sctp 1500 -------D 0 2.0 5.0 1 21 41 0 0
- 0.452726 2 5 sctp 1500 -------D 0 2.0 5.0 1 21 41 0 0
+ 0.452726 2 5 sctp 1500 -------D 0 2.0 5.0 1 22 42 0 0
r 0.453923 5 2 sctp 52 -------N 0 5.0 2.0 1 10 34 65535 65535
+ 0.453923 1 4 sctp 1500 -------D 0 1.0 4.0 1 23 43 0 0
+ 0.453923 1 4 sctp 1500 -------D 0 1.0 4.0 1 24 44 0 0
+ 0.453923 2 5 sctp 1500 -------D 0 2.0 5.0 1 25 45 0 0
+ 0.453923 2 5 sctp 1500 -------D 0 2.0 5.0 1 26 46 0 0
- 0.453926 1 4 sctp 1500 -------D 0 1.0 4.0 1 20 40 0 0
- 0.453926 2 5 sctp 1500 -------D 0 2.0 5.0 1 22 42 0 0
r 0.455126 5 2 sctp 56 -------N 0 5.0 2.0 1 11 35 65535 65535
+ 0.455126 1 4 sctp 1500 -------D 0 1.0 4.0 1 27 47 0 0
+ 0.455126 1 4 sctp 1500 -------D 0 1.0 4.0 1 28 48 0 0
+ 0.455126 2 5 sctp 1500 -------D 0 2.0 5.0 1 29 49 0 0
+ 0.455126 2 5 sctp 1500 -------D 0 2.0 5.0 1 30 50 0 0
- 0.455126 1 4 sctp 1500 -------D 0 1.0 4.0 1 23 43 0 0
- 0.455126 2 5 sctp 1500 -------D 0 2.0 5.0 1 25 45 0 0
r 0.456323 5 2 sctp 52 -------N 0 5.0 2.0 1 14 36 65535 65535
+ 0.456323 1 4 sctp 1500 -------D 0 1.0 4.0 1 31 51 0 0
+ 0.456323 1 4 sctp 1500 -------D 0 1.0 4.0 1 32 52 0 0
+ 0.456323 2 5 sctp 1500 -------D 0 2.0 5.0 1 33 53 0 0
+ 0.456323 2 5 sctp 1500 -------D 0 2.0 5.0 1 34 54 0 0
- 0.456326 1 4 sctp 1500 -------D 0 1.0 4.0 1 24 44 0 0
- 0.456326 2 5 sctp 1500 -------D 0 2.0 5.0 1 26 46 0 0
r 0.457526 5 2 sctp 56 -------N 0 5.0 2.0 1 15 37 65535 65535
+ 0.457526 1 4 sctp 1500 -------D 0 1.0 4.0 1 35 55 0 0
+ 0.457526 1 4 sctp 1500 -------D 0 1.0 4.0 1 36 56 0 0
+ 0.457526 2 5 sctp 1500 -------D 0 2.0 5.0 1 37 57 0 0
+ 0.457526 2 5 sctp 1500 -------D 0 2.0 5.0 1 38 58 0 0
- 0.457526 1 4 sctp 1500 -------D 0 1.0 4.0 1 27 47 0 0
- 0.457526 2 5 sctp 1500 -------D 0 2.0 5.0 1 29 49 0 0
r 0.458723 5 2 sctp 52 -------N 0 5.0 2.0 1 18 38 65535 65535
+ 0.458723 1 4 sctp 1500 -------D 0 1.0 4.0 1 39 59 0 0
+ 0.458723 2 5 sctp 1500 -------D 0 2.0 5.0 1 40 60 0 0
- 0.458726 1 4 sctp 1500 -------D 0 1.0 4.0 1 28 48 0 0
- 0.458726 2 5 sctp 1500 -------D 0 2.0 5.0 1 30 50 0 0
- 0.459926 1 4 sctp 1500 -------D 0 1.0 4.0 1 31 51 0 0
- 0.459926 2 5 sctp 1500 -------D 0 2.0 5.0 1 33 53 0 0
- 0.461126 1 4 sctp 1500 -------D 0 1.0 4.0 1 32 52 0 0
- 0.461126 2 5 sctp 1500 -------D 0 2.0 5.0 1 34 54 0 0
- 0.462326 1 4 sctp 1500 -------D 0 1.0 4.0 1 35 55 0 0
- 0.462326 2 5 sctp 1500 -------D 0 2.0 5.0 1 37 57 0 0
- 0.463526 1 4 sctp 1500 -------D 0 1.0 4.0 1 36 56 0 0
- 0.463526 2 5 sctp 1500 -------D 0 2.0 5.0 1 38 58 0 0
- 0.464726 1 4 sctp 1500 -------D 0 1.0 4.0 1 39 59 0 0
- 0.464726 2 5 sctp 1500 -------D 0 2.0 5.0 1 40 60 0 0
r 0.498926 1 4 sctp 1500 -------D 0 1.0 4.0 1 19 39 0 0
r 0.498926 2 5 sctp 1500 -------D 0 2.0 5.0 1 21 41 0 0
+ 0.498926 5 2 sctp 56 -------N 0 5.0 2.0 1 19 61 65535 65535
- 0.498926 5 2 sctp 56 -------N 0 5.0 2.0 1 19 61 65535 65535
r 0.500126 1 4 sctp 1500 -------D 0 1.0 4.0 1 20 40 0 0
r 0.500126 2 5 sctp 1500 -------D 0 2.0 5.0 1 22 42 0 0
+ 0.500126 5 2 sctp 52 -------N 0 5.0 2.0 1 22 62 65535 65535
- 0.500126 5 2 sctp 52 -------N 0 5.0 2.0 1 22 62 65535 65535
r 0.501326 1 4 sctp 1500 -------D 0 1.0 4.0 1 23 43 0 0
r 0.501326 2 5 sctp 1500 -------D 0 2.0 5.0 1 25 45 0 0
+ 0.501326 5 2 sctp 56 -------N 0 5.0 2.0 1 23 63 65535 65535
- 0.501326 5 2 sctp 56 -------N 0 5.0 2.0 1 23 63 65535 65535
r 0.502526 1 4 sctp 1500 -------D 0 1.0 4.0 1 24 44 0 0
r 0.502526 2 5 sctp 1500 -------D 0 2.0 5.0 1 26 46 0 0
+ 0.502526 5 2 sctp 52 -------N 0 5.0 2.0 1 26 64 65535 65535
- 0.502526 5 2 sctp 52 -------N 0 5.0 2.0 1 26 64 65535 65535
r 0.503726 1 4 sctp 1500 -------D 0 1.0 4.0 1 27 47 0 0
r 0.503726 2 5 sctp 1500 -------D 0 2.0 5.0 1 29 49 0 0
+ 0.503726 5 2 sctp 56 -------N 0 5.0 2.0 1 27 65 65535 65535
- 0.503726 5 2 sctp 56 -------N 0 5.0 2.0 1 27 65 65535 65535
r 0.504926 1 4 sctp 1500 -------D 0 1.0 4.0 1 28 48 0 0
r 0.504926 2 5 sctp 1500 -------D 0 2.0 5.0 1 30 50 0 0
+ 0.504926 5 2 sctp 52 -------N 0 5.0 2.0 1 30 66 65535 65535
- 0.504926 5 2 sctp 52 -------N 0 5.0 2.0 1 30 66 65535 65535
r 0.506126 1 4 sctp 1500 -------D 0 1.0 4.0 1 31 51 0 0
r 0.506126 2 5 sctp 1500 -------D 0 2.0 5.0 1 33 53 0 0
+ 0.506126 5 2 sctp 56 -------N 0 5.0 2.0 1 31 67 65535 65535
- 0.506126 5 2 sctp 56 -------N 0 5.0 2.0 1 31 67 65535 65535
r 0.507326 1 4 sctp 1500 -------D 0 1.0 4.0 1 32 52 0 0
r 0.507326 2 5 sctp 1500 -------D 0 2.0 5.0 1 34 54 0 0
+ 0.507326 5 2 sctp 52 -------N 0 5.0 2.0 1 34 68 65535 65535
- 0.507326 5 2 sctp 52 -------N 0 5.0 2.0 1 34 68 65535 65535
r 0.508526 1 4 sctp 1500 -------D 0 1.0 4.0 1 35 55 0 0
r 0.508526 2 5 sctp 1500 -------D 0 2.0 5.0 1 37 57 0 0
+ 0.508526 5 2 sctp 56 -------N 0 5.0 2.0 1 35 69 65535 65535
- 0.508526 5 2 sctp 56 -------N 0 5.0 2.0 1 35 69 65535 65535
r 0.509726 1 4 sctp 1500 -------D 0 1.0 4.0 1 36 56 0 0
r 0.509726 2 5 sctp 1500 -------D 0 2.0 5.0 1 38 58 0 0
+ 0.509726 5 2 sctp 52 -------N 0 5.0 2.0 1 38 70 65535 65535
- 0.509726 5 2 sctp 52 -------N 0 5.0 2.0 1 38 70 65535 65535
r 0.510926 1 4 sctp 1500 -------D 0 1.0 4.0 1 39 59 0 0
r 0.510926 2 5 sctp 1500 -------D 0 2.0 5.0 1 40 60 0 0
+ 0.510926 5 2 sctp 52 -------N 0 5.0 2.0 1 40 71 65535 65535
- 0.510926 5 2 sctp 52 -------N 0 5.0 2.0 1 40 71 65535 65535
r 0.543971 5 2 sctp 56 -------N 0 5.0 2.0 1 19 61 65535 65535
+ 0.543971 1 4 sctp 1500 -------D 0 1.0 4.0 1 41 72 0 0
- 0.543971 1 4 sctp 1500 -------D 0 1.0 4.0 1 41 72 0 0
+ 0.543971 2 5 sctp 1500 -------D 0 2.0 5.0 1 42 73 0 0
- 0.543971 2 5 sctp 1500 -------D 0 2.0 5.0 1 42 73 0 0
r 0.545168 5 2 sctp 52 -------N 0 5.0 2.0 1 22 62 65535 65535
+ 0.545168 1 4 sctp 1500 -------D 0 1.0 4.0 1 43 74 0 0
+ 0.545168 2 5 sctp 1500 -------D 0 2.0 5.0 1 44 75 0 0
- 0.545171 1 4 sctp 1500 -------D 0 1.0 4.0 1 43 74 0 0
- 0.545171 2 5 sctp 1500 -------D 0 2.0 5.0 1 44 75 0 0
r 0.546371 5 2 sctp 56 -------N 0 5.0 2.0 1 23 63 65535 65535
+ 0.546371 1 4 sctp 1500 -------D 0 1.0 4.0 1 45 76 0 0
+ 0.546371 2 5 sctp 1500 -------D 0 2.0 5.0 1 46 77 0 0
- 0.546371 1 4 sctp 1500 -------D 0 1.0 4.0 1 45 76 0 0
- 0.546371 2 5 sctp 1500 -------D 0 2.0 5.0 1 46 77 0 0
r 0.547568 5 2 sctp 52 -------N 0 5.0 2.0 1 26 64 65535 65535
+ 0.547568 1 4 sctp 1500 -------D 0 1.0 4.0 1 47 78 0 0
+ 0.547568 2 5 sctp 1500 -------D 0 2.0 5.0 1 48 79 0 0
- 0.547571 1 4 sctp 1500 -------D 0 1.0 4.0 1 47 78 0 0
- 0.547571 2 5 sctp 1500 -------D 0 2.0 5.0 1 48 79 0 0
r 0.548771 5 2 sctp 56 -------N 0 5.0 2.0 1 27 65 65535 65535
+ 0.548771 1 4 sctp 1500 -------D 0 1.0 4.0 1 49 80 0 0
+ 0.548771 2 5 sctp 1500 -------D 0 2.0 5.0 1 50 81 0 0
- 0.548771 1 4 sctp 1500 -------D 0 1.0 4.0 1 49 80 0 0
- 0.548771 2 5 sctp 1500 -------D 0 2.0 5.0 1 50 81 0 0
r 0.549968 5 2 sctp 52 -------N 0 5.0 2.0 1 30 66 65535 65535
+ 0.549968 1 4 sctp 1500 -------D 0 1.0 4.0 1 51 82 0 0
+ 0.549968 2 5 sctp 1500 -------D 0 2.0 5.0 1 52 83 0 0
- 0.549971 1 4 sctp 1500 -------D 0 1.0 4.0 1 51 82 0 0
- 0.549971 2 5 sctp 1500 -------D 0 2.0 5.0 1 52 83 0 0
r 0.551171 5 2 sctp 56 -------N 0 5.0 2.0 1 31 67 65535 65535
+ 0.551171 1 4 sctp 1500 -------D 0 1.0 4.0 1 53 84 0 0
+ 0.551171 2 5 sctp 1500 -------D 0 2.0 5.0 1 54 85 0 0
- 0.551171 1 4 sctp 1500 -------D 0 1.0 4.0 1 53 84 0 0
- 0.551171 2 5 sctp 1500 -------D 0 2.0 5.0 1 54 85 0 0
r 0.552368 5 2 sctp 52 -------N 0 5.0 2.0 1 34 68 65535 65535
+ 0.552368 1 4 sctp 1500 -------D 0 1.0 4.0 1 55 86 0 0
+ 0.552368 2 5 sctp 1500 -------D 0 2.0 5.0 1 56 87 0 0
- 0.552371 1 4 sctp 1500 -------D 0 1.0 4.0 1 55 86 0 0
- 0.552371 2 5 sctp 1500 -------D 0 2.0 5.0 1 56 87 0 0
r 0.553571 5 2 sctp 56 -------N 0 5.0 2.0 1 35 69 65535 65535
+ 0.553571 1 4 sctp 1500 -------D 0 1.0 4.0 1 57 88 0 0
+ 0.553571 2 5 sctp 1500 -------D 0 2.0 5.0 1 58 89 0 0
- 0.553571 1 4 sctp 1500 -------D 0 1.0 4.0 1 57 88 0 0
- 0.553571 2 5 sctp 1500 -------D 0 2.0 5.0 1 58 89 0 0
r 0.554768 5 2 sctp 52 -------N 0 5.0 2.0 1 38 70 65535 65535
+ 0.554768 1 4 sctp 1500 -------D 0 1.0 4.0 1 59 90 0 0
+ 0.554768 1 4 sctp 1500 -------D 0 1.0 4.0 1 60 91 0 0
+ 0.554768 2 5 sctp 1500 -------D 0 2.0 5.0 1 61 92 0 0
+ 0.554768 2 5 sctp 1500 -------D 0 2.0 5.0 1 62 93 0 0
- 0.554771 1 4 sctp 1500 -------D 0 1.0 4.0 1 59 90 0 0
- 0.554771 2 5 sctp 1500 -------D 0 2.0 5.0 1 61 92 0 0
r 0.555968 5 2 sctp 52 -------N 0 5.0 2.0 1 40 71 65535 65535
+ 0.555968 1 4 sctp 1500 -------D 0 1.0 4.0 1 63 94 0 0
+ 0.555968 2 5 sctp 1500 -------D 0 2.0 5.0 1 64 95 0 0
- 0.555971 1 4 sctp 1500 -------D 0 1.0 4.0 1 60 91 0 0
- 0.555971 2 5 sctp 1500 -------D 0 2.0 5.0 1 62 93 0 0
- 0.557171 1 4 sctp 1500 -------D 0 1.0 4.0 1 63 94 0 0
- 0.557171 2 5 sctp 1500 -------D 0 2.0 5.0 1 64 95 0 0
r 0.590171 1 4 sctp 1500 -------D 0 1.0 4.0 1 41 72 0 0
r 0.590171 2 5 sctp 1500 -------D 0 2.0 5.0 1 42 73 0 0
+ 0.590171 5 2 sctp 52 -------N 0 5.0 2.0 1 42 96 65535 65535
- 0.590171 5 2 sctp 52 -------N 0 5.0 2.0 1 42 96 65535 65535
r 0.591371 1 4 sctp 1500 -------D 0 1.0 4.0 1 43 74 0 0
r 0.591371 2 5 sctp 1500 -------D 0 2.0 5.0 1 44 75 0 0
+ 0.591371 5 2 sctp 52 -------N 0 5.0 2.0 1 44 97 65535 65535
- 0.591371 5 2 sctp 52 -------N 0 5.0 2.0 1 44 97 65535 65535
r 0.592571 1 4 sctp 1500 -------D 0 1.0 4.0 1 45 76 0 0
r 0.592571 2 5 sctp 1500 -------D 0 2.0 5.0 1 46 77 0 0
+ 0.592571 5 2 sctp 52 -------N 0 5.0 2.0 1 46 98 65535 65535
- 0.592571 5 2 sctp 52 -------N 0 5.0 2.0 1 46 98 65535 65535
r 0.593771 1 4 sctp 1500 -------D 0 1.0 4.0 1 47 78 0 0
r 0.593771 2 5 sctp 1500 -------D 0 2.0 5.0 1 48 79 0 0
+ 0.593771 5 2 sctp 52 -------N 0 5.0 2.0 1 48 99 65535 65535
- 0.593771 5 2 sctp 52 -------N 0 5.0 2.0 1 48 99 65535 65535
r 0.594971 1 4 sctp 1500 -------D 0 1.0 4.0 1 49 80 0 0
r 0.594971 2 5 sctp 1500 -------D 0 2.0 5.0 1 50 81 0 0
+ 0.594971 5 2 sctp 52 -------N 0 5.0 2.0 1 50 100 65535 65535
- 0.594971 5 2 sctp 52 -------N 0 5.0 2.0 1 50 100 65535 65535
r 0.596171 1 4 sctp 1500 -------D 0 1.0 4.0 1 51 82 0 0
r 0.596171 2 5 sctp 1500 -------D 0 2.0 5.0 1 52 83 0 0
+ 0.596171 5 2 sctp 52 -------N 0 5.0 2.0 1 52 101 65535 65535
- 0.596171 5 2 sctp 52 -------N 0 5.0 2.0 1 52 101 65535 65535
r 0.597371 1 4 sctp 1500 -------D 0 1.0 4.0 1 53 84 0 0
r 0.597371 2 5 sctp 1500 -------D 0 2.0 5.0 1 54 85 0 0
+ 0.597371 5 2 sctp 52 -------N 0 5.0 2.0 1 54 102 65535 65535
- 0.597371 5 2 sctp 52 -------N 0 5.0 2.0 1 54 102 65535 65535
r 0.598571 1 4 sctp 1500 -------D 0 1.0 4.0 1 55 86 0 0
r 0.598571 2 5 sctp 1500 -------D 0 2.0 5.0 1 56 87 0 0
+ 0.598571 5 2 sctp 52 -------N 0 5.0 2.0 1 56 103 65535 65535
- 0.598571 5 2 sctp 52 -------N 0 5.0 2.0 1 56 103 65535 65535
r 0.599771 1 4 sctp 1500 -------D 0 1.0 4.0 1 57 88 0 0
r 0.599771 2 5 sctp 1500 -------D 0 2.0 5.0 1 58 89 0 0
+ 0.599771 5 2 sctp 52 -------N 0 5.0 2.0 1 58 104 65535 65535
- 0.599771 5 2 sctp 52 -------N 0 5.0 2.0 1 58 104 65535 65535
r 0.600971 1 4 sctp 1500 -------D 0 1.0 4.0 1 59 90 0 0
r 0.600971 2 5 sctp 1500 -------D 0 2.0 5.0 1 61 92 0 0
+ 0.600971 5 2 sctp 56 -------N 0 5.0 2.0 1 59 105 65535 65535
- 0.600971 5 2 sctp 56 -------N 0 5.0 2.0 1 59 105 65535 65535
r 0.602171 1 4 sctp 1500 -------D 0 1.0 4.0 1 60 91 0 0
r 0.602171 2 5 sctp 1500 -------D 0 2.0 5.0 1 62 93 0 0
+ 0.602171 5 2 sctp 52 -------N 0 5.0 2.0 1 62 106 65535 65535
- 0.602171 5 2 sctp 52 -------N 0 5.0 2.0 1 62 106 65535 65535
r 0.603371 1 4 sctp 1500 -------D 0 1.0 4.0 1 63 94 0 0
r 0.603371 2 5 sctp 1500 -------D 0 2.0 5.0 1 64 95 0 0
+ 0.603371 5 2 sctp 52 -------N 0 5.0 2.0 1 64 107 65535 65535
- 0.603371 5 2 sctp 52 -------N 0 5.0 2.0 1 64 107 65535 65535
r 0.635213 5 2 sctp 52 -------N 0 5.0 2.0 1 42 96 65535 65535
+ 0.635213 1 4 sctp 1500 -------D 0 1.0 4.0 1 65 108 0 0
- 0.635213 1 4 sctp 1500 -------D 0 1.0 4.0 1 65 108 0 0
+ 0.635213 2 5 sctp 1500 -------D 0 2.0 5.0 1 66 109 0 0
- 0.635213 2 5 sctp 1500 -------D 0 2.0 5.0 1 66 109 0 0
r 0.636413 5 2 sctp 52 -------N 0 5.0 2.0 1 44 97 65535 65535
+ 0.636413 1 4 sctp 1500 -------D 0 1.0 4.0 1 67 110 0 0
+ 0.636413 2 5 sctp 1500 -------D 0 2.0 5.0 1 68 111 0 0
- 0.636413 1 4 sctp 1500 -------D 0 1.0 4.0 1 67 110 0 0
- 0.636413 2 5 sctp 1500 -------D 0 2.0 5.0 1 68 111 0 0
r 0.637613 5 2 sctp 52 -------N 0 5.0 2.0 1 46 98 65535 65535
+ 0.637613 1 4 sctp 1500 -------D 0 1.0 4.0 1 69 112 0 0
+ 0.637613 2 5 sctp 1500 -------D 0 2.0 5.0 1 70 113 0 0
- 0.637613 1 4 sctp 1500 -------D 0 1.0 4.0 1 69 112 0 0
- 0.637613 2 5 sctp 1500 -------D 0 2.0 5.0 1 70 113 0 0
r 0.638813 5 2 sctp 52 -------N 0 5.0 2.0 1 48 99 65535 65535
+ 0.638813 1 4 sctp 1500 -------D 0 1.0 4.0 1 71 114 0 0
+ 0.638813 2 5 sctp 1500 -------D 0 2.0 5.0 1 72 115 0 0
- 0.638813 1 4 sctp 1500 -------D 0 1.0 4.0 1 71 114 0 0
- 0.638813 2 5 sctp 1500 -------D 0 2.0 5.0 1 72 115 0 0
r 0.640013 5 2 sctp 52 -------N 0 5.0 2.0 1 50 100 65535 65535
+ 0.640013 1 4 sctp 1500 -------D 0 1.0 4.0 1 73 116 0 0
+ 0.640013 2 5 sctp 1500 -------D 0 2.0 5.0 1 74 117 0 0
- 0.640013 1 4 sctp 1500 -------D 0 1.0 4.0 1 73 116 0 0
- 0.640013 2 5 sctp 1500 -------D 0 2.0 5.0 1 74 117 0 0
r 0.641213 5 2 sctp 52 -------N 0 5.0 2.0 1 52 101 65535 65535
+ 0.641213 1 4 sctp 1500 -------D 0 1.0 4.0 1 75 118 0 0
+ 0.641213 2 5 sctp 1500 -------D 0 2.0 5.0 1 76 119 0 0
- 0.641213 1 4 sctp 1500 -------D 0 1.0 4.0 1 75 118 0 0
- 0.641213 2 5 sctp 1500 -------D 0 2.0 5.0 1 76 119 0 0
r 0.642413 5 2 sctp 52 -------N 0 5.0 2.0 1 54 102 65535 65535
+ 0.642413 1 4 sctp 1500 -------D 0 1.0 4.0 1 77 120 0 0
+ 0.642413 2 5 sctp 1500 -------D 0 2.0 5.0 1 78 121 0 0
- 0.642413 1 4 sctp 1500 -------D 0 1.0 4.0 1 77 120 0 0
- 0.642413 2 5 sctp 1500 -------D 0 2.0 5.0 1 78 121 0 0
r 0.643613 5 2 sctp 52 -------N 0 5.0 2.0 1 56 103 65535 65535
+ 0.643613 1 4 sctp 1500 -------D 0 1.0 4.0 1 79 122 0 0
+ 0.643613 2 5 sctp 1500 -------D 0 2.0 5.0 1 80 123 0 0
- 0.643613 1 4 sctp 1500 -------D 0 1.0 4.0 1 79 122 0 0
- 0.643613 2 5 sctp 1500 -------D 0 2.0 5.0 1 80 123 0 0
r 0.644813 5 2 sctp 52 -------N 0 5.0 2.0 1 58 104 65535 65535
+ 0.644813 1 4 sctp 1500 -------D 0 1.0 4.0 1 81 124 0 0
+ 0.644813 2 5 sctp 1500 -------D 0 2.0 5.0 1 82 125 0 0
- 0.644813 1 4 sctp 1500 -------D 0 1.0 4.0 1 81 124 0 0
- 0.644813 2 5 sctp 1500 -------D 0 2.0 5.0 1 82 125 0 0
r 0.646016 5 2 sctp 56 -------N 0 5.0 2.0 1 59 105 65535 65535
+ 0.646016 1 4 sctp 1500 -------D 0 1.0 4.0 1 83 126 0 0
- 0.646016 1 4 sctp 1500 -------D 0 1.0 4.0 1 83 126 0 0
+ 0.646016 2 5 sctp 1500 -------D 0 2.0 5.0 1 84 127 0 0
- 0.646016 2 5 sctp 1500 -------D 0 2.0 5.0 1 84 127 0 0
r 0.647213 5 2 sctp 52 -------N 0 5.0 2.0 1 62 106 65535 65535
+ 0.647213 1 4 sctp 1500 -------D 0 1.0 4.0 1 85 128 0 0
+ 0.647213 1 4 sctp 1500 -------D 0 1.0 4.0 1 86 129 0 0
+ 0.647213 2 5 sctp 1500 -------D 0 2.0 5.0 1 87 130 0 0
+ 0.647213 2 5 sctp 1500 -------D 0 2.0 5.0 1 88 131 0 0
- 0.647216 1 4 sctp 1500 -------D 0 1.0 4.0 1 85 128 0 0
- 0.647216 2 5 sctp 1500 -------D 0 2.0 5.0 1 87 130 0 0
r 0.648413 5 2 sctp 52 -------N 0 5.0 2.0 1 64 107 65535 65535
+ 0.648413 1 4 sctp 1500 -------D 0 1.0 4.0 1 89 132 0 0
+ 0.648413 2 5 sctp 1500 -------D 0 2.0 5.0 1 90 133 0 0
- 0.648416 1 4 sctp 1500 -------D 0 1.0 4.0 1 86 129 0 0
- 0.648416 2 5 sctp 1500 -------D 0 2.0 5.0 1 88 131 0 0
- 0.649616 1 4 sctp 1500 -------D 0 1.0 4.0 1 89 132 0 0
- 0.649616 2 5 sctp 1500 -------D 0 2.0 5.0 1 90 133 0 0
r 0.681413 1 4 sctp 1500 -------D 0 1.0 4.0 1 65 108 0 0
r 0.681413 2 5 sctp 1500 -------D 0 2.0 5.0 1 66 109 0 0
+ 0.681413 5 2 sctp 52 -------N 0 5.0 2.0 1 66 134 65535 65535
- 0.681413 5 2 sctp 52 -------N 0 5.0 2.0 1 66 134 65535 65535
r 0.682613 1 4 sctp 1500 -------D 0 1.0 4.0 1 67 110 0 0
r 0.682613 2 5 sctp 1500 -------D 0 2.0 5.0 1 68 111 0 0
+ 0.682613 5 2 sctp 52 -------N 0 5.0 2.0 1 68 135 65535 65535
- 0.682613 5 2 sctp 52 -------N 0 5.0 2.0 1 68 135 65535 65535
r 0.683813 1 4 sctp 1500 -------D 0 1.0 4.0 1 69 112 0 0
r 0.683813 2 5 sctp 1500 -------D 0 2.0 5.0 1 70 113 0 0
+ 0.683813 5 2 sctp 52 -------N 0 5.0 2.0 1 70 136 65535 65535
- 0.683813 5 2 sctp 52 -------N 0 5.0 2.0 1 70 136 65535 65535
r 0.685013 1 4 sctp 1500 -------D 0 1.0 4.0 1 71 114 0 0
r 0.685013 2 5 sctp 1500 -------D 0 2.0 5.0 1 72 115 0 0
+ 0.685013 5 2 sctp 52 -------N 0 5.0 2.0 1 72 137 65535 65535
- 0.685013 5 2 sctp 52 -------N 0 5.0 2.0 1 72 137 65535 65535
r 0.686213 1 4 sctp 1500 -------D 0 1.0 4.0 1 73 116 0 0
r 0.686213 2 5 sctp 1500 -------D 0 2.0 5.0 1 74 117 0 0
+ 0.686213 5 2 sctp 52 -------N 0 5.0 2.0 1 74 138 65535 65535
- 0.686213 5 2 sctp 52 -------N 0 5.0 2.0 1 74 138 65535 65535
r 0.687413 1 4 sctp 1500 -------D 0 1.0 4.0 1 75 118 0 0
r 0.687413 2 5 sctp 1500 -------D 0 2.0 5.0 1 76 119 0 0
+ 0.687413 5 2 sctp 52 -------N 0 5.0 2.0 1 76 139 65535 65535
- 0.687413 5 2 sctp 52 -------N 0 5.0 2.0 1 76 139 65535 65535
r 0.688613 1 4 sctp 1500 -------D 0 1.0 4.0 1 77 120 0 0
r 0.688613 2 5 sctp 1500 -------D 0 2.0 5.0 1 78 121 0 0
+ 0.688613 5 2 sctp 52 -------N 0 5.0 2.0 1 78 140 65535 65535
- 0.688613 5 2 sctp 52 -------N 0 5.0 2.0 1 78 140 65535 65535
r 0.689813 1 4 sctp 1500 -------D 0 1.0 4.0 1 79 122 0 0
r 0.689813 2 5 sctp 1500 -------D 0 2.0 5.0 1 80 123 0 0
+ 0.689813 5 2 sctp 52 -------N 0 5.0 2.0 1 80 141 65535 65535
- 0.689813 5 2 sctp 52 -------N 0 5.0 2.0 1 80 141 65535 65535
r 0.691013 1 4 sctp 1500 -------D 0 1.0 4.0 1 81 124 0 0
r 0.691013 2 5 sctp 1500 -------D 0 2.0 5.0 1 82 125 0 0
+ 0.691013 5 2 sctp 52 -------N 0 5.0 2.0 1 82 142 65535 65535
- 0.691013 5 2 sctp 52 -------N 0 5.0 2.0 1 82 142 65535 65535
r 0.692216 1 4 sctp 1500 -------D 0 1.0 4.0 1 83 126 0 0
r 0.692216 2 5 sctp 1500 -------D 0 2.0 5.0 1 84 127 0 0
+ 0.692216 5 2 sctp 52 -------N 0 5.0 2.0 1 84 143 65535 65535
- 0.692216 5 2 sctp 52 -------N 0 5.0 2.0 1 84 143 65535 65535
r 0.693416 1 4 sctp 1500 -------D 0 1.0 4.0 1 85 128 0 0
r 0.693416 2 5 sctp 1500 -------D 0 2.0 5.0 1 87 130 0 0
+ 0.693416 5 2 sctp 56 -------N 0 5.0 2.0 1 85 144 65535 65535
- 0.693416 5 2 sctp 56 -------N 0 5.0 2.0 1 85 144 65535 65535
r 0.694616 1 4 sctp 1500 -------D 0 1.0 4.0 1 86 129 0 0
r 0.694616 2 5 sctp 1500 -------D 0 2.0 5.0 1 88 131 0 0
+ 0.694616 5 2 sctp 52 -------N 0 5.0 2.0 1 88 145 65535 65535
- 0.694616 5 2 sctp 52 -------N 0 5.0 2.0 1 88 145 65535 65535
r 0.695816 1 4 sctp 1500 -------D 0 1.0 4.0 1 89 132 0 0
r 0.695816 2 5 sctp 1500 -------D 0 2.0 5.0 1 90 133 0 0
+ 0.695816 5 2 sctp 52 -------N 0 5.0 2.0 1 90 146 65535 65535
- 0.695816 5 2 sctp 52 -------N 0 5.0 2.0 1 90 146 65535 65535
r 0.726454 5 2 sctp 52 -------N 0 5.0 2.0 1 66 134 65535 65535
+ 0.726454 1 4 sctp 1500 -------D 0 1.0 4.0 1 91 147 0 0
- 0.726454 1 4 sctp 1500 -------D 0 1.0 4.0 1 91 147 0 0
+ 0.726454 2 5 sctp 1500 -------D 0 2.0 5.0 1 92 148 0 0
- 0.726454 2 5 sctp 1500 -------D 0 2.0 5.0 1 92 148 0 0
r 0.727654 5 2 sctp 52 -------N 0 5.0 2.0 1 68 135 65535 65535
+ 0.727654 1 4 sctp 1500 -------D 0 1.0 4.0 1 93 149 0 0
+ 0.727654 2 5 sctp 1500 -------D 0 2.0 5.0 1 94 150 0 0
- 0.727654 1 4 sctp 1500 -------D 0 1.0 4.0 1 93 149 0 0
- 0.727654 2 5 sctp 1500 -------D 0 2.0 5.0 1 94 150 0 0
r 0.728854 5 2 sctp 52 -------N 0 5.0 2.0 1 70 136 65535 65535
+ 0.728854 1 4 sctp 1500 -------D 0 1.0 4.0 1 95 151 0 0
+ 0.728854 2 5 sctp 1500 -------D 0 2.0 5.0 1 96 152 0 0
- 0.728854 1 4 sctp 1500 -------D 0 1.0 4.0 1 95 151 0 0
- 0.728854 2 5 sctp 1500 -------D 0 2.0 5.0 1 96 152 0 0
r 0.730054 5 2 sctp 52 -------N 0 5.0 2.0 1 72 137 65535 65535
+ 0.730054 1 4 sctp 1500 -------D 0 1.0 4.0 1 97 153 0 0
+ 0.730054 2 5 sctp 1500 -------D 0 2.0 5.0 1 98 154 0 0
- 0.730054 1 4 sctp 1500 -------D 0 1.0 4.0 1 97 153 0 0
- 0.730054 2 5 sctp 1500 -------D 0 2.0 5.0 1 98 154 0 0
r 0.731254 5 2 sctp 52 -------N 0 5.0 2.0 1 74 138 65535 65535
+ 0.731254 1 4 sctp 1500 -------D 0 1.0 4.0 1 99 155 0 0
+ 0.731254 2 5 sctp 1500 -------D 0 2.0 5.0 1 100 156 0 0
- 0.731254 1 4 sctp 1500 -------D 0 1.0 4.0 1 99 155 0 0
- 0.731254 2 5 sctp 1500 -------D 0 2.0 5.0 1 100 156 0 0
r 0.732454 5 2 sctp 52 -------N 0 5.0 2.0 1 76 139 65535 65535
+ 0.732454 1 4 sctp 1500 -------D 0 1.0 4.0 1 101 157 0 0
+ 0.732454 2 5 sctp 1500 -------D 0 2.0 5.0 1 102 158 0 0
- 0.732454 1 4 sctp 1500 -------D 0 1.0 4.0 1 101 157 0 0
- 0.732454 2 5 sctp 1500 -------D 0 2.0 5.0 1 102 158 0 0
r 0.733654 5 2 sctp 52 -------N 0 5.0 2.0 1 78 140 65535 65535
+ 0.733654 1 4 sctp 1500 -------D 0 1.0 4.0 1 103 159 0 0
+ 0.733654 2 5 sctp 1500 -------D 0 2.0 5.0 1 104 160 0 0
- 0.733654 1 4 sctp 1500 -------D 0 1.0 4.0 1 103 159 0 0
- 0.733654 2 5 sctp 1500 -------D 0 2.0 5.0 1 104 160 0 0
r 0.734854 5 2 sctp 52 -------N 0 5.0 2.0 1 80 141 65535 65535
+ 0.734854 1 4 sctp 1500 -------D 0 1.0 4.0 1 105 161 0 0
+ 0.734854 2 5 sctp 1500 -------D 0 2.0 5.0 1 106 162 0 0
- 0.734854 1 4 sctp 1500 -------D 0 1.0 4.0 1 105 161 0 0
- 0.734854 2 5 sctp 1500 -------D 0 2.0 5.0 1 106 162 0 0
r 0.736054 5 2 sctp 52 -------N 0 5.0 2.0 1 82 142 65535 65535
+ 0.736054 1 4 sctp 1500 -------D 0 1.0 4.0 1 107 163 0 0
+ 0.736054 2 5 sctp 1500 -------D 0 2.0 5.0 1 108 164 0 0
- 0.736054 1 4 sctp 1500 -------D 0 1.0 4.0 1 107 163 0 0
- 0.736054 2 5 sctp 1500 -------D 0 2.0 5.0 1 108 164 0 0
r 0.737258 5 2 sctp 52 -------N 0 5.0 2.0 1 84 143 65535 65535
+ 0.737258 1 4 sctp 1500 -------D 0 1.0 4.0 1 109 165 0 0
- 0.737258 1 4 sctp 1500 -------D 0 1.0 4.0 1 109 165 0 0
+ 0.737258 2 5 sctp 1500 -------D 0 2.0 5.0 1 110 166 0 0
- 0.737258 2 5 sctp 1500 -------D 0 2.0 5.0 1 110 166 0 0
r 0.738461 5 2 sctp 56 -------N 0 5.0 2.0 1 85 144 65535 65535
+ 0.738461 1 4 sctp 1500 -------D 0 1.0 4.0 1 111 167 0 0
- 0.738461 1 4 sctp 1500 -------D 0 1.0 4.0 1 111 167 0 0
+ 0.738461 2 5 sctp 1500 -------D 0 2.0 5.0 1 112 168 0 0
- 0.738461 2 5 sctp 1500 -------D 0 2.0 5.0 1 112 168 0 0
r 0.739658 5 2 sctp 52 -------N 0 5.0 2.0 1 88 145 65535 65535
+ 0.739658 1 4 sctp 1500 -------D 0 1.0 4.0 1 113 169 0 0
+ 0.739658 1 4 sctp 1500 -------D 0 1.0 4.0 1 114 170 0 0
+ 0.739658 2 5 sctp 1500 -------D 0 2.0 5.0 1 115 171 0 0
+ 0.739658 2 5 sctp 1500 -------D 0 2.0 5.0 1 116 172 0 0
- 0.739661 1 4 sctp 1500 -------D 0 1.0 4.0 1 113 169 0 0
- 0.739661 2 5 sctp 1500 -------D 0 2.0 5.0 1 115 171 0 0
r 0.740858 5 2 sctp 52 -------N 0 5.0 2.0 1 90 146 65535 65535
+ 0.740858 1 4 sctp 1500 -------D 0 1.0 4.0 1 117 173 0 0
+ 0.740858 2 5 sctp 1500 -------D 0 2.0 5.0 1 118 174 0 0
- 0.740861 1 4 sctp 1500 -------D 0 1.0 4.0 1 114 170 0 0
- 0.740861 2 5 sctp 1500 -------D 0 2.0 5.0 1 116 172 0 0
- 0.742061 1 4 sctp 1500 -------D 0 1.0 4.0 1 117 173 0 0
- 0.742061 2 5 sctp 1500 -------D 0 2.0 5.0 1 118 174 0 0
r 0.772654 1 4 sctp 1500 -------D 0 1.0 4.0 1 91 147 0 0
r 0.772654 2 5 sctp 1500 -------D 0 2.0 5.0 1 92 148 0 0
+ 0.772654 5 2 sctp 52 -------N 0 5.0 2.0 1 92 175 65535 65535
- 0.772654 5 2 sctp 52 -------N 0 5.0 2.0 1 92 175 65535 65535
r 0.773854 1 4 sctp 1500 -------D 0 1.0 4.0 1 93 149 0 0
r 0.773854 2 5 sctp 1500 -------D 0 2.0 5.0 1 94 150 0 0
+ 0.773854 5 2 sctp 52 -------N 0 5.0 2.0 1 94 176 65535 65535
- 0.773854 5 2 sctp 52 -------N 0 5.0 2.0 1 94 176 65535 65535
r 0.775054 1 4 sctp 1500 -------D 0 1.0 4.0 1 95 151 0 0
r 0.775054 2 5 sctp 1500 -------D 0 2.0 5.0 1 96 152 0 0
+ 0.775054 5 2 sctp 52 -------N 0 5.0 2.0 1 96 177 65535 65535
- 0.775054 5 2 sctp 52 -------N 0 5.0 2.0 1 96 177 65535 65535
r 0.776254 1 4 sctp 1500 -------D 0 1.0 4.0 1 97 153 0 0
r 0.776254 2 5 sctp 1500 -------D 0 2.0 5.0 1 98 154 0 0
+ 0.776254 5 2 sctp 52 -------N 0 5.0 2.0 1 98 178 65535 65535
- 0.776254 5 2 sctp 52 -------N 0 5.0 2.0 1 98 178 65535 65535
r 0.777454 1 4 sctp 1500 -------D 0 1.0 4.0 1 99 155 0 0
r 0.777454 2 5 sctp 1500 -------D 0 2.0 5.0 1 100 156 0 0
+ 0.777454 5 2 sctp 52 -------N 0 5.0 2.0 1 100 179 65535 65535
- 0.777454 5 2 sctp 52 -------N 0 5.0 2.0 1 100 179 65535 65535
r 0.778654 1 4 sctp 1500 -------D 0 1.0 4.0 1 101 157 0 0
r 0.778654 2 5 sctp 1500 -------D 0 2.0 5.0 1 102 158 0 0
+ 0.778654 5 2 sctp 52 -------N 0 5.0 2.0 1 102 180 65535 65535
- 0.778654 5 2 sctp 52 -------N 0 5.0 2.0 1 102 180 65535 65535
r 0.779854 1 4 sctp 1500 -------D 0 1.0 4.0 1 103 159 0 0
r 0.779854 2 5 sctp 1500 -------D 0 2.0 5.0 1 104 160 0 0
+ 0.779854 5 2 sctp 52 -------N 0 5.0 2.0 1 104 181 65535 65535
- 0.779854 5 2 sctp 52 -------N 0 5.0 2.0 1 104 181 65535 65535