v 0 eval {set sim_annotation {1073741824 switch tree type}}
v 1 eval {set sim_annotation {1 1 join-group 1073741824}}
+ 1.00125 0 1 cbr 210 ------- 2 0.0.0.1 256.0.0.0 267 267
- 1.00125 0 1 cbr 210 ------- 2 0.0.0.1 256.0.0.0 267 267
r 1.003586 0 1 cbr 210 ------- 2 0.0.0.1 256.0.0.0 267 267
+ 1.005 0 1 cbr 210 ------- 2 0.0.0.1 256.0.0.0 268 268
- 1.005 0 1 cbr 210 ------- 2 0.0.0.1 256.0.0.0 268 268
r 1.007336 0 1 cbr 210 ------- 2 0.0.0.1 256.0.0.0 268 268
+ 1.00875 0 1 cbr 210 ------- 2 0.0.0.1 256.0.0.0 269 269
- 1.00875 0 1 cbr 210 ------- 2 0.0.0.1 256.0.0.0 269 269
r 1.011086 0 1 cbr 210 ------- 2 0.0.0.1 256.0.0.0 269 269
+ 1.0125 0 1 cbr 210 ------- 2 0.0.0.1 256.0.0.0 270 270
- 1.0125 0 1 cbr 210 ------- 2 0.0.0.1 256.0.0.0 270 270
r 1.014836 0 1 cbr 210 ------- 2 0.0.0.1 256.0.0.0 270 270
+ 1.01625 0 1 cbr 210 ------- 2 0.0.0.1 256.0.0.0 271 271
- 1.01625 0 1 cbr 210 ------- 2 0.0.0.1 256.0.0.0 271 271
r 1.018586 0 1 cbr 210 ------- 2 0.0.0.1 256.0.0.0 271 271
+ 1.02 0 1 cbr 210 ------- 2 0.0.0.1 256.0.0.0 272 272
- 1.02 0 1 cbr 210 ------- 2 0.0.0.1 256.0.0.0 272 272
r 1.022336 0 1 cbr 210 ------- 2 0.0.0.1 256.0.0.0 272 272
+ 1.02375 0 1 cbr 210 ------- 2 0.0.0.1 256.0.0.0 273 273
- 1.02375 0 1 cbr 210 ------- 2 0.0.0.1 256.0.0.0 273 273
r 1.026086 0 1 cbr 210 ------- 2 0.0.0.1 256.0.0.0 273 273
+ 1.0275 0 1 cbr 210 ------- 2 0.0.0.1 256.0.0.0 274 274
- 1.0275 0 1 cbr 210 ------- 2 0.0.0.1 256.0.0.0 274 274
r 1.029836 0 1 cbr 210 ------- 2 0.0.0.1 256.0.0.0 274 274
+ 1.03125 0 1 cbr 210 ------- 2 0.0.0.1 256.0.0.0 275 275
- 1.03125 0 1 cbr 210 ------- 2 0.0.0.1 256.0.0.0 275 275
r 1.033586 0 1 cbr 210 ------- 2 0.0.0.1 256.0.0.0 275 275
+ 1.035 0 1 cbr 210 ------- 2 0.0.0.1 256.0.0.0 276 276
- 1.035 0 1 cbr 210 ------- 2 0.0.0.1 256.0.0.0 276 276
r 1.037336 0 1 cbr 210 ------- 2 0.0.0.1 256.0.0.0 276 276
+ 1.03875 0 1 cbr 210 ------- 2 0.0.0.1 256.0.0.0 277 277
- 1.03875 0 1 cbr 210 ------- 2 0.0.0.1 256.0.0.0 277 277
r 1.041086 0 1 cbr 210 ------- 2 0.0.0.1 256.0.0.0 277 277
+ 1.0425 0 1 cbr 210 ------- 2 0.0.0.1 256.0.0.0 278 278
- 1.0425 0 1 cbr 210 ------- 2 0.0.0.1 256.0.0.0 278 278
r 1.044836 0 1 cbr 210 ------- 2 0.0.0.1 256.0.0.0 278 278
+ 1.04625 0 1 cbr 210 ------- 2 0.0.0.1 256.0.0.0 279 279
- 1.04625 0 1 cbr 210 ------- 2 0.0.0.1 256.0.0.0 279 279
r 1.048586 0 1 cbr 210 ------- 2 0.0.0.1 256.0.0.0 279 279
+ 1.05 0 1 cbr 210 ------- 2 0.0.0.1 256.0.0.0 280 280
- 1.05 0 1 cbr 210 ------- 2 0.0.0.1 256.0.0.0 280 280
r 1.052336 0 1 cbr 210 ------- 2 0.0.0.1 256.0.0.0 280 280
+ 1.05375 0 1 cbr 210 ------- 2 0.0.0.1 256.0.0.0 281 281
- 1.05375 0 1 cbr 210 ------- 2 0.0.0.1 256.0.0.0 281 281
r 1.056086 0 1 cbr 210 ------- 2 0.0.0.1 256.0.0.0 281 281
+ 1.0575 0 1 cbr 210 ------- 2 0.0.0.1 256.0.0.0 282 282
- 1.0575 0 1 cbr 210 ------- 2 0.0.0.1 256.0.0.0 282 282
r 1.059836 0 1 cbr 210 ------- 2 0.0.0.1 256.0.0.0 282 282
+ 1.06125 0 1 cbr 210 ------- 2 0.0.0.1 256.0.0.0 283 283
- 1.06125 0 1 cbr 210 ------- 2 0.0.0.1 256.0.0.0 283 283
r 1.063586 0 1 cbr 210 ------- 2 0.0.0.1 256.0.0.0 283 283
+ 1.065 0 1 cbr 210 ------- 2 0.0.0.1 256.0.0.0 284 284
- 1.065 0 1 cbr 210 ------- 2 0.0.0.1 256.0.0.0 284 284
r 1.067336 0 1 cbr 210 ------- 2 0.0.0.1 256.0.0.0 284 284
+ 1.06875 0 1 cbr 210 ------- 2 0.0.0.1 256.0.0.0 285 285
- 1.06875 0 1 cbr 210 ------- 2 0.0.0.1 256.0.0.0 285 285
r 1.071086 0 1 cbr 210 ------- 2 0.0.0.1 256.0.0.0 285 285
+ 1.0725 0 1 cbr 210 ------- 2 0.0.0.1 256.0.0.0 286 286
- 1.0725 0 1 cbr 210 ------- 2 0.0.0.1 256.0.0.0 286 286
r 1.074836 0 1 cbr 210 ------- 2 0.0.0.1 256.0.0.0 286 286
+ 1.07625 0 1 cbr 210 ------- 2 0.0.0.1 256.0.0.0 287 287
- 1.07625 0 1 cbr 210 ------- 2 0.0.0.1 256.0.0.0 287 287
r 1.078586 0 1 cbr 210 ------- 2 0.0.0.1 256.0.0.0 287 287
+ 1.08 0 1 cbr 210 ------- 2 0.0.0.1 256.0.0.0 288 288
- 1.08 0 1 cbr 210 ------- 2 0.0.0.1 256.0.0.0 288 288
r 1.082336 0 1 cbr 210 ------- 2 0.0.0.1 256.0.0.0 288 288
+ 1.08375 0 1 cbr 210 ------- 2 0.0.0.1 256.0.0.0 289 289
- 1.08375 0 1 cbr 210 ------- 2 0.0.0.1 256.0.0.0 289 289
r 1.086086 0 1 cbr 210 ------- 2 0.0.0.1 256.0.0.0 289 289
+ 1.0875 0 1 cbr 210 ------- 2 0.0.0.1 256.0.0.0 290 290
- 1.0875 0 1 cbr 210 ------- 2 0.0.0.1 256.0.0.0 290 290
r 1.089836 0 1 cbr 210 ------- 2 0.0.0.1 256.0.0.0 290 290
+ 1.09125 0 1 cbr 210 ------- 2 0.0.0.1 256.0.0.0 291 291
- 1.09125 0 1 cbr 210 ------- 2 0.0.0.1 256.0.0.0 291 291
r 1.093586 0 1 cbr 210 ------- 2 0.0.0.1 256.0.0.0 291 291
+ 1.095 0 1 cbr 210 ------- 2 0.0.0.1 256.0.0.0 292 292
- 1.095 0 1 cbr 210 ------- 2 0.0.0.1 256.0.0.0 292 292
r 1.097336 0 1 cbr 210 ------- 2 0.0.0.1 256.0.0.0 292 292
+ 1.09875 0 1 cbr 210 ------- 2 0.0.0.1 256.0.0.0 293 293
- 1.09875 0 1 cbr 210 ------- 2 0.0.0.1 256.0.0.0 293 293
r 1.101086 0 1 cbr 210 ------- 2 0.0.0.1 256.0.0.0 293 293
+ 1.1025 0 1 cbr 210 ------- 2 0.0.0.1 256.0.0.0 294 294
- 1.1025 0 1 cbr 210 ------- 2 0.0.0.1 256.0.0.0 294 294
r 1.104836 0 1 cbr 210 ------- 2 0.0.0.1 256.0.0.0 294 294
+ 1.10625 0 1 cbr 210 ------- 2 0.0.0.1 256.0.0.0 295 295
- 1.10625 0 1 cbr 210 ------- 2 0.0.0.1 256.0.0.0 295 295
r 1.108586 0 1 cbr 210 ------- 2 0.0.0.1 256.0.0.0 295 295
+ 1.11 0 1 cbr 210 ------- 2 0.0.0.1 256.0.0.0 296 296
- 1.11 0 1 cbr 210 ------- 2 0.0.0.1 256.0.0.0 296 296
r 1.112336 0 1 cbr 210 ------- 2 0.0.0.1 256.0.0.0 296 296
+ 1.11375 0 1 cbr 210 ------- 2 0.0.0.1 256.0.0.0 297 297
- 1.11375 0 1 cbr 210 ------- 2 0.0.0.1 256.0.0.0 297 297
r 1.116086 0 1 cbr 210 ------- 2 0.0.0.1 256.0.0.0 297 297
+ 1.1175 0 1 cbr 210 ------- 2 0.0.0.1 256.0.0.0 298 298
- 1.1175 0 1 cbr 210 ------- 2 0.0.0.1 256.0.0.0 298 298
r 1.119836 0 1 cbr 210 ------- 2 0.0.0.1 256.0.0.0 298 298
+ 1.12125 0 1 cbr 210 ------- 2 0.0.0.1 256.0.0.0 299 299
- 1.12125 0 1 cbr 210 ------- 2 0.0.0.1 256.0.0.0 299 299
r 1.123586 0 1 cbr 210 ------- 2 0.0.0.1 256.0.0.0 299 299
+ 1.125 0 1 cbr 210 ------- 2 0.0.0.1 256.0.0.0 300 300
- 1.125 0 1 cbr 210 ------- 2 0.0.0.1 256.0.0.0 300 300
r 1.127336 0 1 cbr 210 ------- 2 0.0.0.1 256.0.0.0 300 300
+ 1.12875 0 1 cbr 210 ------- 2 0.0.0.1 256.0.0.0 301 301
- 1.12875 0 1 cbr 210 ------- 2 0.0.0.1 256.0.0.0 301 301
r 1.131086 0 1 cbr 210 ------- 2 0.0.0.1 256.0.0.0 301 301
+ 1.1325 0 1 cbr 210 ------- 2 0.0.0.1 256.0.0.0 302 302
- 1.1325 0 1 cbr 210 ------- 2 0.0.0.1 256.0.0.0 302 302
r 1.134836 0 1 cbr 210 ------- 2 0.0.0.1 256.0.0.0 302 302
+ 1.13625 0 1 cbr 210 ------- 2 0.0.0.1 256.0.0.0 303 303
- 1.13625 0 1 cbr 210 ------- 2 0.0.0.1 256.0.0.0 303 303
r 1.138586 0 1 cbr 210 ------- 2 0.0.0.1 256.0.0.0 303 303
+ 1.14 0 1 cbr 210 ------- 2 0.0.0.1 256.0.0.0 304 304
- 1.14 0 1 cbr 210 ------- 2 0.0.0.1 256.0.0.0 304 304
r 1.142336 0 1 cbr 210 ------- 2 0.0.0.1 256.0.0.0 304 304
+ 1.14375 0 1 cbr 210 ------- 2 0.0.0.1 256.0.0.0 305 305
- 1.14375 0 1 cbr 210 ------- 2 0.0.0.1 256.0.0.0 305 305
r 1.146086 0 1 cbr 210 ------- 2 0.0.0.1 256.0.0.0 305 305
+ 1.1475 0 1 cbr 210 ------- 2 0.0.0.1 256.0.0.0 306 306
- 1.1475 0 1 cbr 210 ------- 2 0.0.0.1 256.0.0.0 306 306
r 1.149836 0 1 cbr 210 ------- 2 0.0.0.1 256.0.0.0 306 306
+ 1.15125 0 1 cbr 210 ------- 2 0.0.0.1 256.0.0.0 307 307
- 1.15125 0 1 cbr 210 ------- 2 0.0.0.1 256.0.0.0 307 307
r 1.153586 0 1 cbr 210 ------- 2 0.0.0.1 256.0.0.0 307 307
+ 1.155 0 1 cbr 210 ------- 2 0.0.0.1 256.0.0.0 308 308
- 1.155 0 1 cbr 210 ------- 2 0.0.0.1 256.0.0.0 308 308
r 1.157336 0 1 cbr 210 ------- 2 0.0.0.1 256.0.0.0 308 308
+ 1.15875 0 1 cbr 210 ------- 2 0.0.0.1 256.0.0.0 309 309
- 1.15875 0 1 cbr 210 ------- 2 0.0.0.1 256.0.0.0 309 309
r 1.161086 0 1 cbr 210 ------- 2 0.0.0.1 256.0.0.0 309 309
+ 1.1625 0 1 cbr 210 ------- 2 0.0.0.1 256.0.0.0 310 310
- 1.1625 0 1 cbr 210 ------- 2 0.0.0.1 256.0.0.0 310 310
r 1.164836 0 1 cbr 210 ------- 2 0.0.0.1 256.0.0.0 310 310
+ 1.16625 0 1 cbr 210 ------- 2 0.0.0.1 256.0.0.0 311 311
- 1.16625 0 1 cbr 210 ------- 2 0.0.0.1 256.0.0.0 311 311
r 1.168586 0 1 cbr 210 ------- 2 0.0.0.1 256.0.0.0 311 311
+ 1.17 0 1 cbr 210 ------- 2 0.0.0.1 256.0.0.0 312 312
- 1.17 0 1 cbr 210 ------- 2 0.0.0.1 256.0.0.0 312 312
r 1.172336 0 1 cbr 210 ------- 2 0.0.0.1 256.0.0.0 312 312
+ 1.17375 0 1 cbr 210 ------- 2 0.0.0.1 256.0.0.0 313 313
- 1.17375 0 1 cbr 210 ------- 2 0.0.0.1 256.0.0.0 313 313
r 1.176086 0 1 cbr 210 ------- 2 0.0.0.1 256.0.0.0 313 313
+ 1.1775 0 1 cbr 210 ------- 2 0.0.0.1 256.0.0.0 314 314
- 1.1775 0 1 cbr 210 ------- 2 0.0.0.1 256.0.0.0 314 314
r 1.179836 0 1 cbr 210 ------- 2 0.0.0.1 256.0.0.0 314 314
+ 1.18125 0 1 cbr 210 ------- 2 0.0.0.1 256.0.0.0 315 315
- 1.18125 0 1 cbr 210 ------- 2 0.0.0.1 256.0.0.0 315 315
r 1.183586 0 1 cbr 210 ------- 2 0.0.0.1 256.0.0.0 315 315
+ 1.185 0 1 cbr 210 ------- 2 0.0.0.1 256.0.0.0 316 316
- 1.185 0 1 cbr 210 ------- 2 0.0.0.1 256.0.0.0 316 316
r 1.187336 0 1 cbr 210 ------- 2 0.0.0.1 256.0.0.0 316 316
+ 1.18875 0 1 cbr 210 ------- 2 0.0.0.1 256.0.0.0 317 317
- 1.18875 0 1 cbr 210 ------- 2 0.0.0.1 256.0.0.0 317 317
r 1.191086 0 1 cbr 210 ------- 2 0.0.0.1 256.0.0.0 317 317
+ 1.1925 0 1 cbr 210 ------- 2 0.0.0.1 256.0.0.0 318 318
- 1.1925 0 1 cbr 210 ------- 2 0.0.0.1 256.0.0.0 318 318
r 1.194836 0 1 cbr 210 ------- 2 0.0.0.1 256.0.0.0 318 318
+ 1.19625 0 1 cbr 210 ------- 2 0.0.0.1 256.0.0.0 319 319
- 1.19625 0 1 cbr 210 ------- 2 0.0.0.1 256.0.0.0 319 319
r 1.198586 0 1 cbr 210 ------- 2 0.0.0.1 256.0.0.0 319 319
+ 1.2 0 1 cbr 210 ------- 2 0.0.0.1 256.0.0.0 320 320
- 1.2 0 1 cbr 210 ------- 2 0.0.0.1 256.0.0.0 320 320
r 1.202336 0 1 cbr 210 ------- 2 0.0.0.1 256.0.0.0 320 320
+ 1.20375 0 1 cbr 210 ------- 2 0.0.0.1 256.0.0.0 321 321
- 1.20375 0 1 cbr 210 ------- 2 0.0.0.1 256.0.0.0 321 321
r 1.206086 0 1 cbr 210 ------- 2 0.0.0.1 256.0.0.0 321 321
+ 1.2075 0 1 cbr 210 ------- 2 0.0.0.1 256.0.0.0 322 322
- 1.2075 0 1 cbr 210 ------- 2 0.0.0.1 256.0.0.0 322 322
r 1.209836 0 1 cbr 210 ------- 2 0.0.0.1 256.0.0.0 322 322
+ 1.21125 0 1 cbr 210 ------- 2 0.0.0.1 256.0.0.0 323 323
- 1.21125 0 1 cbr 210 ------- 2 0.0.0.1 256.0.0.0 323 323
r 1.213586 0 1 cbr 210 ------- 2 0.0.0.1 256.0.0.0 323 323
+ 1.215 0 1 cbr 210 ------- 2 0.0.0.1 256.0.0.0 324 324
- 1.215 0 1 cbr 210 ------- 2 0.0.0.1 256.0.0.0 324 324
r 1.217336 0 1 cbr 210 ------- 2 0.0.0.1 256.0.0.0 324 324
+ 1.21875 0 1 cbr 210 ------- 2 0.0.0.1 256.0.0.0 325 325
- 1.21875 0 1 cbr 210 ------- 2 0.0.0.1 256.0.0.0 325 325
r 1.221086 0 1 cbr 210 ------- 2 0.0.0.1 256.0.0.0 325 325
+ 1.2225 0 1 cbr 210 ------- 2 0.0.0.1 256.0.0.0 326 326
- 1.2225 0 1 cbr 210 ------- 2 0.0.0.1 256.0.0.0 326 326
r 1.224836 0 1 cbr 210 ------- 2 0.0.0.1 256.0.0.0 326 326
+ 1.22625 0 1 cbr 210 ------- 2 0.0.0.1 256.0.0.0 327 327
- 1.22625 0 1 cbr 210 ------- 2 0.0.0.1 256.0.0.0 327 327
r 1.228586 0 1 cbr 210 ------- 2 0.0.0.1 256.0.0.0 327 327
+ 1.23 0 1 cbr 210 ------- 2 0.0.0.1 256.0.0.0 328 328
- 1.23 0 1 cbr 210 ------- 2 0.0.0.1 256.0.0.0 328 328
r 1.232336 0 1 cbr 210 ------- 2 0.0.0.1 256.0.0.0 328 328
+ 1.23375 0 1 cbr 210 ------- 2 0.0.0.1 256.0.0.0 329 329
- 1.23375 0 1 cbr 210 ------- 2 0.0.0.1 256.0.0.0 329 329
r 1.236086 0 1 cbr 210 ------- 2 0.0.0.1 256.0.0.0 329 329
+ 1.2375 0 1 cbr 210 ------- 2 0.0.0.1 256.0.0.0 330 330
- 1.2375 0 1 cbr 210 ------- 2 0.0.0.1 256.0.0.0 330 330
r 1.239836 0 1 cbr 210 ------- 2 0.0.0.1 256.0.0.0 330 330
+ 1.24125 0 1 cbr 210 ------- 2 0.0.0.1 256.0.0.0 331 331
- 1.24125 0 1 cbr 210 ------- 2 0.0.0.1 256.0.0.0 331 331
r 1.243586 0 1 cbr 210 ------- 2 0.0.0.1 256.0.0.0 331 331
+ 1.245 0 1 cbr 210 ------- 2 0.0.0.1 256.0.0.0 332 332
- 1.245 0 1 cbr 210 ------- 2 0.0.0.1 256.0.0.0 332 332
r 1.247336 0 1 cbr 210 ------- 2 0.0.0.1 256.0.0.0 332 332
+ 1.24875 0 1 cbr 210 ------- 2 0.0.0.1 256.0.0.0 333 333
- 1.24875 0 1 cbr 210 ------- 2 0.0.0.1 256.0.0.0 333 333
r 1.251086 0 1 cbr 210 ------- 2 0.0.0.1 256.0.0.0 333 333
+ 1.2525 0 1 cbr 210 ------- 2 0.0.0.1 256.0.0.0 334 334
- 1.2525 0 1 cbr 210 ------- 2 0.0.0.1 256.0.0.0 334 334
r 1.254836 0 1 cbr 210 ------- 2 0.0.0.1 256.0.0.0 334 334
+ 1.25625 0 1 cbr 210 ------- 2 0.0.0.1 256.0.0.0 335 335
- 1.25625 0 1 cbr 210 ------- 2 0.0.0.1 256.0.0.0 335 335
r 1.258586 0 1 cbr 210 ------- 2 0.0.0.1 256.0.0.0 335 335
+ 1.26 0 1 cbr 210 ------- 2 0.0.0.1 256.0.0.0 336 336
- 1.26 0 1 cbr 210 ------- 2 0.0.0.1 256.0.0.0 336 336
r 1.262336 0 1 cbr 210 ------- 2 0.0.0.1 256.0.0.0 336 336
+ 1.26375 0 1 cbr 210 ------- 2 0.0.0.1 256.0.0.0 337 337
- 1.26375 0 1 cbr 210 ------- 2 0.0.0.1 256.0.0.0 337 337
r 1.266086 0 1 cbr 210 ------- 2 0.0.0.1 256.0.0.0 337 337
+ 1.2675 0 1 cbr 210 ------- 2 0.0.0.1 256.0.0.0 338 338
- 1.2675 0 1 cbr 210 ------- 2 0.0.0.1 256.0.0.0 338 338
r 1.269836 0 1 cbr 210 ------- 2 0.0.0.1 256.0.0.0 338 338
+ 1.27125 0 1 cbr 210 ------- 2 0.0.0.1 256.0.0.0 339 339
- 1.27125 0 1 cbr 210 ------- 2 0.0.0.1 256.0.0.0 339 339
r 1.273586 0 1 cbr 210 ------- 2 0.0.0.1 256.0.0.0 339 339
+ 1.275 0 1 cbr 210 ------- 2 0.0.0.1 256.0.0.0 340 340
- 1.275 0 1 cbr 210 ------- 2 0.0.0.1 256.0.0.0 340 340
r 1.277336 0 1 cbr 210 ------- 2 0.0.0.1 256.0.0.0 340 340
+ 1.27875 0 1 cbr 210 ------- 2 0.0.0.1 256.0.0.0 341 341
- 1.27875 0 1 cbr 210 ------- 2 0.0.0.1 256.0.0.0 341 341
r 1.281086 0 1 cbr 210 ------- 2 0.0.0.1 256.0.0.0 341 341
+ 1.2825 0 1 cbr 210 ------- 2 0.0.0.1 256.0.0.0 342 342
- 1.2825 0 1 cbr 210 ------- 2 0.0.0.1 256.0.0.0 342 342
r 1.284836 0 1 cbr 210 ------- 2 0.0.0.1 256.0.0.0 342 342
+ 1.28625 0 1 cbr 210 ------- 2 0.0.0.1 256.0.0.0 343 343
- 1.28625 0 1 cbr 210 ------- 2 0.0.0.1 256.0.0.0 343 343
r 1.288586 0 1 cbr 210 ------- 2 0.0.0.1 256.0.0.0 343 343
+ 1.29 0 1 cbr 210 ------- 2 0.0.0.1 256.0.0.0 344 344
- 1.29 0 1 cbr 210 ------- 2 0.0.0.1 256.0.0.0 344 344
r 1.292336 0 1 cbr 210 ------- 2 0.0.0.1 256.0.0.0 344 344
+ 1.29375 0 1 cbr 210 ------- 2 0.0.0.1 256.0.0.0 345 345
- 1.29375 0 1 cbr 210 ------- 2 0.0.0.1 256.0.0.0 345 345
r 1.296086 0 1 cbr 210 ------- 2 0.0.0.1 256.0.0.0 345 345
+ 1.2975 0 1 cbr 210 ------- 2 0.0.0.1 256.0.0.0 346 346
- 1.2975 0 1 cbr 210 ------- 2 0.0.0.1 256.0.0.0 346 346
r 1.299836 0 1 cbr 210 ------- 2 0.0.0.1 256.0.0.0 346 346
+ 1.30125 0 1 cbr 210 ------- 2 0.0.0.1 256.0.0.0 347 347
- 1.30125 0 1 cbr 210 ------- 2 0.0.0.1 256.0.0.0 347 347
r 1.303586 0 1 cbr 210 ------- 2 0.0.0.1 256.0.0.0 347 347
+ 1.305 0 1 cbr 210 ------- 2 0.0.0.1 256.0.0.0 348 348
- 1.305 0 1 cbr 210 ------- 2 0.0.0.1 256.0.0.0 348 348
r 1.307336 0 1 cbr 210 ------- 2 0.0.0.1 256.0.0.0 348 348
+ 1.30875 0 1 cbr 210 ------- 2 0.0.0.1 256.0.0.0 349 349
- 1.30875 0 1 cbr 210 ------- 2 0.0.0.1 256.0.0.0 349 349
r 1.311086 0 1 cbr 210 ------- 2 0.0.0.1 256.0.0.0 349 349
+ 1.3125 0 1 cbr 210 ------- 2 0.0.0.1 256.0.0.0 350 350
- 1.3125 0 1 cbr 210 ------- 2 0.0.0.1 256.0.0.0 350 350
r 1.314836 0 1 cbr 210 ------- 2 0.0.0.1 256.0.0.0 350 350
+ 1.31625 0 1 cbr 210 ------- 2 0.0.0.1 256.0.0.0 351 351
- 1.31625 0 1 cbr 210 ------- 2 0.0.0.1 256.0.0.0 351 351
r 1.318586 0 1 cbr 210 ------- 2 0.0.0.1 256.0.0.0 351 351
+ 1.32 0 1 cbr 210 ------- 2 0.0.0.1 256.0.0.0 352 352
- 1.32 0 1 cbr 210 ------- 2 0.0.0.1 256.0.0.0 352 352
r 1.322336 0 1 cbr 210 ------- 2 0.0.0.1 256.0.0.0 352 352
+ 1.32375 0 1 cbr 210 ------- 2 0.0.0.1 256.0.0.0 353 353
- 1.32375 0 1 cbr 210 ------- 2 0.0.0.1 256.0.0.0 353 353
r 1.326086 0 1 cbr 210 ------- 2 0.0.0.1 256.0.0.0 353 353
+ 1.3275 0 1 cbr 210 ------- 2 0.0.0.1 256.0.0.0 354 354
- 1.3275 0 1 cbr 210 ------- 2 0.0.0.1 256.0.0.0 354 354
r 1.329836 0 1 cbr 210 ------- 2 0.0.0.1 256.0.0.0 354 354
+ 1.33125 0 1 cbr 210 ------- 2 0.0.0.1 256.0.0.0 355 355
- 1.33125 0 1 cbr 210 ------- 2 0.0.0.1 256.0.0.0 355 355
r 1.333586 0 1 cbr 210 ------- 2 0.0.0.1 256.0.0.0 355 355
+ 1.335 0 1 cbr 210 ------- 2 0.0.0.1 256.0.0.0 356 356
- 1.335 0 1 cbr 210 ------- 2 0.0.0.1 256.0.0.0 356 356
r 1.337336 0 1 cbr 210 ------- 2 0.0.0.1 256.0.0.0 356 356
+ 1.33875 0 1 cbr 210 ------- 2 0.0.0.1 256.0.0.0 357 357
- 1.33875 0 1 cbr 210 ------- 2 0.0.0.1 256.0.0.0 357 357
r 1.341086 0 1 cbr 210 ------- 2 0.0.0.1 256.0.0.0 357 357
+ 1.3425 0 1 cbr 210 ------- 2 0.0.0.1 256.0.0.0 358 358
- 1.3425 0 1 cbr 210 ------- 2 0.0.0.1 256.0.0.0 358 358
r 1.344836 0 1 cbr 210 ------- 2 0.0.0.1 256.0.0.0 358 358
+ 1.34625 0 1 cbr 210 ------- 2 0.0.0.1 256.0.0.0 359 359
- 1.34625 0 1 cbr 210 ------- 2 0.0.0.1 256.0.0.0 359 359
r 1.348586 0 1 cbr 210 ------- 2 0.0.0.1 256.0.0.0 359 359
+ 1.35 0 1 cbr 210 ------- 2 0.0.0.1 256.0.0.0 360 360
- 1.35 0 1 cbr 210 ------- 2 0.0.0.1 256.0.0.0 360 360
r 1.352336 0 1 cbr 210 ------- 2 0.0.0.1 256.0.0.0 360 360
+ 1.35375 0 1 cbr 210 ------- 2 0.0.0.1 256.0.0.0 361 361
- 1.35375 0 1 cbr 210 ------- 2 0.0.0.1 256.0.0.0 361 361
r 1.356086 0 1 cbr 210 ------- 2 0.0.0.1 256.0.0.0 361 361
+ 1.3575 0 1 cbr 210 ------- 2 0.0.0.1 256.0.0.0 362 362
- 1.3575 0 1 cbr 210 ------- 2 0.0.0.1 256.0.0.0 362 362
r 1.359836 0 1 cbr 210 ------- 2 0.0.0.1 256.0.0.0 362 362
+ 1.36125 0 1 cbr 210 ------- 2 0.0.0.1 256.0.0.0 363 363
- 1.36125 0 1 cbr 210 ------- 2 0.0.0.1 256.0.0.0 363 363
r 1.363586 0 1 cbr 210 ------- 2 0.0.0.1 256.0.0.0 363 363
+ 1.365 0 1 cbr 210 ------- 2 0.0.0.1 256.0.0.0 364 364
- 1.365 0 1 cbr 210 ------- 2 0.0.0.1 256.0.0.0 364 364
r 1.367336 0 1 cbr 210 ------- 2 0.0.0.1 256.0.0.0 364 364
+ 1.36875 0 1 cbr 210 ------- 2 0.0.0.1 256.0.0.0 365 365
- 1.36875 0 1 cbr 210 ------- 2 0.0.0.1 256.0.0.0 365 365
r 1.371086 0 1 cbr 210 ------- 2 0.0.0.1 256.0.0.0 365 365
+ 1.3725 0 1 cbr 210 ------- 2 0.0.0.1 256.0.0.0 366 366
- 1.3725 0 1 cbr 210 ------- 2 0.0.0.1 256.0.0.0 366 366
r 1.374836 0 1 cbr 210 ------- 2 0.0.0.1 256.0.0.0 366 366
+ 1.37625 0 1 cbr 210 ------- 2 0.0.0.1 256.0.0.0 367 367
- 1.37625 0 1 cbr 210 ------- 2 0.0.0.1 256.0.0.0 367 367
r 1.378586 0 1 cbr 210 ------- 2 0.0.0.1 256.0.0.0 367 367
+ 1.38 0 1 cbr 210 ------- 2 0.0.0.1 256.0.0.0 368 368
- 1.38 0 1 cbr 210 ------- 2 0.0.0.1 256.0.0.0 368 368
r 1.382336 0 1 cbr 210 ------- 2 0.0.0.1 256.0.0.0 368 368
+ 1.38375 0 1 cbr 210 ------- 2 0.0.0.1 256.0.0.0 369 369
- 1.38375 0 1 cbr 210 ------- 2 0.0.0.1 256.0.0.0 369 369
r 1.386086 0 1 cbr 210 ------- 2 0.0.0.1 256.0.0.0 369 369
+ 1.3875 0 1 cbr 210 ------- 2 0.0.0.1 256.0.0.0 370 370
- 1.3875 0 1 cbr 210 ------- 2 0.0.0.1 256.0.0.0 370 370
r 1.389836 0 1 cbr 210 ------- 2 0.0.0.1 256.0.0.0 370 370
+ 1.39125 0 1 cbr 210 ------- 2 0.0.0.1 256.0.0.0 371 371
- 1.39125 0 1 cbr 210 ------- 2 0.0.0.1 256.0.0.0 371 371
r 1.393586 0 1 cbr 210 ------- 2 0.0.0.1 256.0.0.0 371 371
+ 1.395 0 1 cbr 210 ------- 2 0.0.0.1 256.0.0.0 372 372
- 1.395 0 1 cbr 210 ------- 2 0.0.0.1 256.0.0.0 372 372
r 1.397336 0 1 cbr 210 ------- 2 0.0.0.1 256.0.0.0 372 372
+ 1.39875 0 1 cbr 210 ------- 2 0.0.0.1 256.0.0.0 373 373
- 1.39875 0 1 cbr 210 ------- 2 0.0.0.1 256.0.0.0 373 373
r 1.401086 0 1 cbr 210 ------- 2 0.0.0.1 256.0.0.0 373 373
+ 1.4025 0 1 cbr 210 ------- 2 0.0.0.1 256.0.0.0 374 374
- 1.4025 0 1 cbr 210 ------- 2 0.0.0.1 256.0.0.0 374 374
r 1.404836 0 1 cbr 210 ------- 2 0.0.0.1 256.0.0.0 374 374
+ 1.40625 0 1 cbr 210 ------- 2 0.0.0.1 256.0.0.0 375 375
- 1.40625 0 1 cbr 210 ------- 2 0.0.0.1 256.0.0.0 375 375
r 1.408586 0 1 cbr 210 ------- 2 0.0.0.1 256.0.0.0 375 375
+ 1.41 0 1 cbr 210 ------- 2 0.0.0.1 256.0.0.0 376 376
- 1.41 0 1 cbr 210 ------- 2 0.0.0.1 256.0.0.0 376 376
r 1.412336 0 1 cbr 210 ------- 2 0.0.0.1 256.0.0.0 376 376
+ 1.41375 0 1 cbr 210 ------- 2 0.0.0.1 256.0.0.0 377 377
- 1.41375 0 1 cbr 210 ------- 2 0.0.0.1 256.0.0.0 377 377
r 1.416086 0 1 cbr 210 ------- 2 0.0.0.1 256.0.0.0 377 377
+ 1.4175 0 1 cbr 210 ------- 2 0.0.0.1 256.0.0.0 378 378
- 1.4175 0 1 cbr 210 ------- 2 0.0.0.1 256.0.0.0 378 378
r 1.419836 0 1 cbr 210 ------- 2 0.0.0.1 256.0.0.0 378 378
+ 1.42125 0 1 cbr 210 ------- 2 0.0.0.1 256.0.0.0 379 379
- 1.42125 0 1 cbr 210 ------- 2 0.0.0.1 256.0.0.0 379 379
r 1.423586 0 1 cbr 210 ------- 2 0.0.0.1 256.0.0.0 379 379
+ 1.425 0 1 cbr 210 ------- 2 0.0.0.1 256.0.0.0 380 380
- 1.425 0 1 cbr 210 ------- 2 0.0.0.1 256.0.0.0 380 380
r 1.427336 0 1 cbr 210 ------- 2 0.0.0.1 256.0.0.0 380 380
+ 1.42875 0 1 cbr 210 ------- 2 0.0.0.1 256.0.0.0 381 381
- 1.42875 0 1 cbr 210 ------- 2 0.0.0.1 256.0.0.0 381 381
r 1.431086 0 1 cbr 210 ------- 2 0.0.0.1 256.0.0.0 381 381
+ 1.4325 0 1 cbr 210 ------- 2 0.0.0.1 256.0.0.0 382 382
- 1.4325 0 1 cbr 210 ------- 2 0.0.0.1 256.0.0.0 382 382
r 1.434836 0 1 cbr 210 ------- 2 0.0.0.1 256.0.0.0 382 382
+ 1.43625 0 1 cbr 210 ------- 2 0.0.0.1 256.0.0.0 383 383
- 1.43625 0 1 cbr 210 ------- 2 0.0.0.1 256.0.0.0 383 383
r 1.438586 0 1 cbr 210 ------- 2 0.0.0.1 256.0.0.0 383 383
+ 1.44 0 1 cbr 210 ------- 2 0.0.0.1 256.0.0.0 384 384
- 1.44 0 1 cbr 210 ------- 2 0.0.0.1 256.0.0.0 384 384
r 1.442336 0 1 cbr 210 ------- 2 0.0.0.1 256.0.0.0 384 384
+ 1.44375 0 1 cbr 210 ------- 2 0.0.0.1 256.0.0.0 385 385
- 1.44375 0 1 cbr 210 ------- 2 0.0.0.1 256.0.0.0 385 385
r 1.446086 0 1 cbr 210 ------- 2 0.0.0.1 256.0.0.0 385 385
+ 1.4475 0 1 cbr 210 ------- 2 0.0.0.1 256.0.0.0 386 386
- 1.4475 0 1 cbr 210 ------- 2 0.0.0.1 256.0.0.0 386 386
r 1.449836 0 1 cbr 210 ------- 2 0.0.0.1 256.0.0.0 386 386
+ 1.45125 0 1 cbr 210 ------- 2 0.0.0.1 256.0.0.0 387 387
- 1.45125 0 1 cbr 210 ------- 2 0.0.0.1 256.0.0.0 387 387
r 1.453586 0 1 cbr 210 ------- 2 0.0.0.1 256.0.0.0 387 387
+ 1.455 0 1 cbr 210 ------- 2 0.0.0.1 256.0.0.0 388 388
- 1.455 0 1 cbr 210 ------- 2 0.0.0.1 256.0.0.0 388 388
r 1.457336 0 1 cbr 210 ------- 2 0.0.0.1 256.0.0.0 388 388
+ 1.45875 0 1 cbr 210 ------- 2 0.0.0.1 256.0.0.0 389 389
- 1.45875 0 1 cbr 210 ------- 2 0.0.0.1 256.0.0.0 389 389
r 1.461086 0 1 cbr 210 ------- 2 0.0.0.1 256.0.0.0 389 389
+ 1.4625 0 1 cbr 210 ------- 2 0.0.0.1 256.0.0.0 390 390
- 1.4625 0 1 cbr 210 ------- 2 0.0.0.1 256.0.0.0 390 390
r 1.464836 0 1 cbr 210 ------- 2 0.0.0.1 256.0.0.0 390 390
+ 1.46625 0 1 cbr 210 ------- 2 0.0.0.1 256.0.0.0 391 391
- 1.46625 0 1 cbr 210 ------- 2 0.0.0.1 256.0.0.0 391 391
r 1.468586 0 1 cbr 210 ------- 2 0.0.0.1 256.0.0.0 391 391
+ 1.47 0 1 cbr 210 ------- 2 0.0.0.1 256.0.0.0 392 392
- 1.47 0 1 cbr 210 ------- 2 0.0.0.1 256.0.0.0 392 392
r 1.472336 0 1 cbr 210 ------- 2 0.0.0.1 256.0.0.0 392 392
+ 1.47375 0 1 cbr 210 ------- 2 0.0.0.1 256.0.0.0 393 393
- 1.47375 0 1 cbr 210 ------- 2 0.0.0.1 256.0.0.0 393 393
r 1.476086 0 1 cbr 210 ------- 2 0.0.0.1 256.0.0.0 393 393
+ 1.4775 0 1 cbr 210 ------- 2 0.0.0.1 256.0.0.0 394 394
- 1.4775 0 1 cbr 210 ------- 2 0.0.0.1 256.0.0.0 394 394
r 1.479836 0 1 cbr 210 ------- 2 0.0.0.1 256.0.0.0 394 394
+ 1.48125 0 1 cbr 210 ------- 2 0.0.0.1 256.0.0.0 395 395
- 1.48125 0 1 cbr 210 ------- 2 0.0.0.1 256.0.0.0 395 395
r 1.483586 0 1 cbr 210 ------- 2 0.0.0.1 256.0.0.0 395 395
+ 1.485 0 1 cbr 210 ------- 2 0.0.0.1 256.0.0.0 396 396
- 1.485 0 1 cbr 210 ------- 2 0.0.0.1 256.0.0.0 396 396
r 1.487336 0 1 cbr 210 ------- 2 0.0.0.1 256.0.0.0 396 396
+ 1.48875 0 1 cbr 210 ------- 2 0.0.0.1 256.0.0.0 397 397
- 1.48875 0 1 cbr 210 ------- 2 0.0.0.1 256.0.0.0 397 397
r 1.491086 0 1 cbr 210 ------- 2 0.0.0.1 256.0.0.0 397 397
+ 1.4925 0 1 cbr 210 ------- 2 0.0.0.1 256.0.0.0 398 398
- 1.4925 0 1 cbr 210 ------- 2 0.0.0.1 256.0.0.0 398 398
r 1.494836 0 1 cbr 210 ------- 2 0.0.0.1 256.0.0.0 398 398
+ 1.49625 0 1 cbr 210 ------- 2 0.0.0.1 256.0.0.0 399 399
- 1.49625 0 1 cbr 210 ------- 2 0.0.0.1 256.0.0.0 399 399
r 1.498586 0 1 cbr 210 ------- 2 0.0.0.1 256.0.0.0 399 399
+ 1.5 0 1 cbr 210 ------- 2 0.0.0.1 256.0.0.0 400 400
- 1.5 0 1 cbr 210 ------- 2 0.0.0.1 256.0.0.0 400 400
r 1.502336 0 1 cbr 210 ------- 2 0.0.0.1 256.0.0.0 400 400
+ 1.50375 0 1 cbr 210 ------- 2 0.0.0.1 256.0.0.0 401 401
- 1.50375 0 1 cbr 210 ------- 2 0.0.0.1 256.0.0.0 401 401
r 1.506086 0 1 cbr 210 ------- 2 0.0.0.1 256.0.0.0 401 401
+ 1.5075 0 1 cbr 210 ------- 2 0.0.0.1 256.0.0.0 402 402
- 1.5075 0 1 cbr 210 ------- 2 0.0.0.1 256.0.0.0 402 402
r 1.509836 0 1 cbr 210 ------- 2 0.0.0.1 256.0.0.0 402 402
+ 1.51125 0 1 cbr 210 ------- 2 0.0.0.1 256.0.0.0 403 403
- 1.51125 0 1 cbr 210 ------- 2 0.0.0.1 256.0.0.0 403 403
r 1.513586 0 1 cbr 210 ------- 2 0.0.0.1 256.0.0.0 403 403
+ 1.515 0 1 cbr 210 ------- 2 0.0.0.1 256.0.0.0 404 404
- 1.515 0 1 cbr 210 ------- 2 0.0.0.1 256.0.0.0 404 404
r 1.517336 0 1 cbr 210 ------- 2 0.0.0.1 256.0.0.0 404 404
+ 1.51875 0 1 cbr 210 ------- 2 0.0.0.1 256.0.0.0 405 405
- 1.51875 0 1 cbr 210 ------- 2 0.0.0.1 256.0.0.0 405 405
r 1.521086 0 1 cbr 210 ------- 2 0.0.0.1 256.0.0.0 405 405
+ 1.5225 0 1 cbr 210 ------- 2 0.0.0.1 256.0.0.0 406 406
- 1.5225 0 1 cbr 210 ------- 2 0.0.0.1 256.0.0.0 406 406
r 1.524836 0 1 cbr 210 ------- 2 0.0.0.1 256.0.0.0 406 406
+ 1.52625 0 1 cbr 210 ------- 2 0.0.0.1 256.0.0.0 407 407
- 1.52625 0 1 cbr 210 ------- 2 0.0.0.1 256.0.0.0 407 407
r 1.528586 0 1 cbr 210 ------- 2 0.0.0.1 256.0.0.0 407 407
+ 1.53 0 1 cbr 210 ------- 2 0.0.0.1 256.0.0.0 408 408
- 1.53 0 1 cbr 210 ------- 2 0.0.0.1 256.0.0.0 408 408
r 1.532336 0 1 cbr 210 ------- 2 0.0.0.1 256.0.0.0 408 408
+ 1.53375 0 1 cbr 210 ------- 2 0.0.0.1 256.0.0.0 409 409
- 1.53375 0 1 cbr 210 ------- 2 0.0.0.1 256.0.0.0 409 409
r 1.536086 0 1 cbr 210 ------- 2 0.0.0.1 256.0.0.0 409 409
+ 1.5375 0 1 cbr 210 ------- 2 0.0.0.1 256.0.0.0 410 410
- 1.5375 0 1 cbr 210 ------- 2 0.0.0.1 256.0.0.0 410 410
r 1.539836 0 1 cbr 210 ------- 2 0.0.0.1 256.0.0.0 410 410
+ 1.54125 0 1 cbr 210 ------- 2 0.0.0.1 256.0.0.0 411 411
- 1.54125 0 1 cbr 210 ------- 2 0.0.0.1 256.0.0.0 411 411
r 1.543586 0 1 cbr 210 ------- 2 0.0.0.1 256.0.0.0 411 411
+ 1.545 0 1 cbr 210 ------- 2 0.0.0.1 256.0.0.0 412 412
- 1.545 0 1 cbr 210 ------- 2 0.0.0.1 256.0.0.0 412 412
r 1.547336 0 1 cbr 210 ------- 2 0.0.0.1 256.0.0.0 412 412
+ 1.54875 0 1 cbr 210 ------- 2 0.0.0.1 256.0.0.0 413 413
- 1.54875 0 1 cbr 210 ------- 2 0.0.0.1 256.0.0.0 413 413
r 1.551086 0 1 cbr 210 ------- 2 0.0.0.1 256.0.0.0 413 413
+ 1.5525 0 1 cbr 210 ------- 2 0.0.0.1 256.0.0.0 414 414
- 1.5525 0 1 cbr 210 ------- 2 0.0.0.1 256.0.0.0 414 414
r 1.554836 0 1 cbr 210 ------- 2 0.0.0.1 256.0.0.0 414 414
+ 1.55625 0 1 cbr 210 ------- 2 0.0.0.1 256.0.0.0 415 415
- 1.55625 0 1 cbr 210 ------- 2 0.0.0.1 256.0.0.0 415 415
r 1.558586 0 1 cbr 210 ------- 2 0.0.0.1 256.0.0.0 415 415
+ 1.56 0 1 cbr 210 ------- 2 0.0.0.1 256.0.0.0 416 416
- 1.56 0 1 cbr 210 ------- 2 0.0.0.1 256.0.0.0 416 416
r 1.562336 0 1 cbr 210 ------- 2 0.0.0.1 256.0.0.0 416 416
+ 1.56375 0 1 cbr 210 ------- 2 0.0.0.1 256.0.0.0 417 417
- 1.56375 0 1 cbr 210 ------- 2 0.0.0.1 256.0.0.0 417 417
r 1.566086 0 1 cbr 210 ------- 2 0.0.0.1 256.0.0.0 417 417
+ 1.5675 0 1 cbr 210 ------- 2 0.0.0.1 256.0.0.0 418 418
- 1.5675 0 1 cbr 210 ------- 2 0.0.0.1 256.0.0.0 418 418
r 1.569836 0 1 cbr 210 ------- 2 0.0.0.1 256.0.0.0 418 418
+ 1.57125 0 1 cbr 210 ------- 2 0.0.0.1 256.0.0.0 419 419
- 1.57125 0 1 cbr 210 ------- 2 0.0.0.1 256.0.0.0 419 419
r 1.573586 0 1 cbr 210 ------- 2 0.0.0.1 256.0.0.0 419 419
+ 1.575 0 1 cbr 210 ------- 2 0.0.0.1 256.0.0.0 420 420
- 1.575 0 1 cbr 210 ------- 2 0.0.0.1 256.0.0.0 420 420
r 1.577336 0 1 cbr 210 ------- 2 0.0.0.1 256.0.0.0 420 420
+ 1.57875 0 1 cbr 210 ------- 2 0.0.0.1 256.0.0.0 421 421
- 1.57875 0 1 cbr 210 ------- 2 0.0.0.1 256.0.0.0 421 421
r 1.581086 0 1 cbr 210 ------- 2 0.0.0.1 256.0.0.0 421 421
+ 1.5825 0 1 cbr 210 ------- 2 0.0.0.1 256.0.0.0 422 422
- 1.5825 0 1 cbr 210 ------- 2 0.0.0.1 256.0.0.0 422 422
r 1.584836 0 1 cbr 210 ------- 2 0.0.0.1 256.0.0.0 422 422
+ 1.58625 0 1 cbr 210 ------- 2 0.0.0.1 256.0.0.0 423 423
- 1.58625 0 1 cbr 210 ------- 2 0.0.0.1 256.0.0.0 423 423
r 1.588586 0 1 cbr 210 ------- 2 0.0.0.1 256.0.0.0 423 423
+ 1.59 0 1 cbr 210 ------- 2 0.0.0.1 256.0.0.0 424 424
- 1.59 0 1 cbr 210 ------- 2 0.0.0.1 256.0.0.0 424 424
r 1.592336 0 1 cbr 210 ------- 2 0.0.0.1 256.0.0.0 424 424
+ 1.59375 0 1 cbr 210 ------- 2 0.0.0.1 256.0.0.0 425 425
- 1.59375 0 1 cbr 210 ------- 2 0.0.0.1 256.0.0.0 425 425
r 1.596086 0 1 cbr 210 ------- 2 0.0.0.1 256.0.0.0 425 425
+ 1.5975 0 1 cbr 210 ------- 2 0.0.0.1 256.0.0.0 426 426
- 1.5975 0 1 cbr 210 ------- 2 0.0.0.1 256.0.0.0 426 426
r 1.599836 0 1 cbr 210 ------- 2 0.0.0.1 256.0.0.0 426 426
+ 1.60125 0 1 cbr 210 ------- 2 0.0.0.1 256.0.0.0 427 427
- 1.60125 0 1 cbr 210 ------- 2 0.0.0.1 256.0.0.0 427 427
r 1.603586 0 1 cbr 210 ------- 2 0.0.0.1 256.0.0.0 427 427
+ 1.605 0 1 cbr 210 ------- 2 0.0.0.1 256.0.0.0 428 428
- 1.605 0 1 cbr 210 ------- 2 0.0.0.1 256.0.0.0 428 428
r 1.607336 0 1 cbr 210 ------- 2 0.0.0.1 256.0.0.0 428 428
+ 1.60875 0 1 cbr 210 ------- 2 0.0.0.1 256.0.0.0 429 429
- 1.60875 0 1 cbr 210 ------- 2 0.0.0.1 256.0.0.0 429 429
r 1.611086 0 1 cbr 210 ------- 2 0.0.0.1 256.0.0.0 429 429
+ 1.6125 0 1 cbr 210 ------- 2 0.0.0.1 256.0.0.0 430 430
- 1.6125 0 1 cbr 210 ------- 2 0.0.0.1 256.0.0.0 430 430
r 1.614836 0 1 cbr 210 ------- 2 0.0.0.1 256.0.0.0 430 430
+ 1.61625 0 1 cbr 210 ------- 2 0.0.0.1 256.0.0.0 431 431
- 1.61625 0 1 cbr 210 ------- 2 0.0.0.1 256.0.0.0 431 431
r 1.618586 0 1 cbr 210 ------- 2 0.0.0.1 256.0.0.0 431 431
+ 1.62 0 1 cbr 210 ------- 2 0.0.0.1 256.0.0.0 432 432
- 1.62 0 1 cbr 210 ------- 2 0.0.0.1 256.0.0.0 432 432
r 1.622336 0 1 cbr 210 ------- 2 0.0.0.1 256.0.0.0 432 432
+ 1.62375 0 1 cbr 210 ------- 2 0.0.0.1 256.0.0.0 433 433
- 1.62375 0 1 cbr 210 ------- 2 0.0.0.1 256.0.0.0 433 433
r 1.626086 0 1 cbr 210 ------- 2 0.0.0.1 256.0.0.0 433 433
+ 1.6275 0 1 cbr 210 ------- 2 0.0.0.1 256.0.0.0 434 434
- 1.6275 0 1 cbr 210 ------- 2 0.0.0.1 256.0.0.0 434 434
r 1.629836 0 1 cbr 210 ------- 2 0.0.0.1 256.0.0.0 434 434
+ 1.63125 0 1 cbr 210 ------- 2 0.0.0.1 256.0.0.0 435 435
- 1.63125 0 1 cbr 210 ------- 2 0.0.0.1 256.0.0.0 435 435
r 1.633586 0 1 cbr 210 ------- 2 0.0.0.1 256.0.0.0 435 435
+ 1.635 0 1 cbr 210 ------- 2 0.0.0.1 256.0.0.0 436 436
- 1.635 0 1 cbr 210 ------- 2 0.0.0.1 256.0.0.0 436 436
r 1.637336 0 1 cbr 210 ------- 2 0.0.0.1 256.0.0.0 436 436
+ 1.63875 0 1 cbr 210 ------- 2 0.0.0.1 256.0.0.0 437 437
- 1.63875 0 1 cbr 210 ------- 2 0.0.0.1 256.0.0.0 437 437
r 1.641086 0 1 cbr 210 ------- 2 0.0.0.1 256.0.0.0 437 437
+ 1.6425 0 1 cbr 210 ------- 2 0.0.0.1 256.0.0.0 438 438
- 1.6425 0 1 cbr 210 ------- 2 0.0.0.1 256.0.0.0 438 438
r 1.644836 0 1 cbr 210 ------- 2 0.0.0.1 256.0.0.0 438 438
+ 1.64625 0 1 cbr 210 ------- 2 0.0.0.1 256.0.0.0 439 439