+ 1 0 1 cbr 210 ------- 0 0.0.0.0 1.1.1.0 0 0
- 1 0 1 cbr 210 ------- 0 0.0.0.0 1.1.1.0 0 0
r 1.002336 0 1 cbr 210 ------- 0 0.0.0.0 1.1.1.0 0 0
+ 1.002336 1 5 cbr 210 ------- 0 0.0.0.0 1.1.1.0 0 0
- 1.002336 1 5 cbr 210 ------- 0 0.0.0.0 1.1.1.0 0 0
+ 1.00375 0 1 cbr 210 ------- 0 0.0.0.0 1.1.1.0 1 1
- 1.00375 0 1 cbr 210 ------- 0 0.0.0.0 1.1.1.0 1 1
r 1.004672 1 5 cbr 210 ------- 0 0.0.0.0 1.1.1.0 0 0
+ 1.004672 5 6 cbr 210 ------- 0 0.0.0.0 1.1.1.0 0 0
- 1.004672 5 6 cbr 210 ------- 0 0.0.0.0 1.1.1.0 0 0
r 1.006086 0 1 cbr 210 ------- 0 0.0.0.0 1.1.1.0 1 1
+ 1.006086 1 5 cbr 210 ------- 0 0.0.0.0 1.1.1.0 1 1
- 1.006086 1 5 cbr 210 ------- 0 0.0.0.0 1.1.1.0 1 1
r 1.007008 5 6 cbr 210 ------- 0 0.0.0.0 1.1.1.0 0 0
+ 1.007008 6 7 cbr 210 ------- 0 0.0.0.0 1.1.1.0 0 0
- 1.007008 6 7 cbr 210 ------- 0 0.0.0.0 1.1.1.0 0 0
+ 1.0075 0 1 cbr 210 ------- 0 0.0.0.0 1.1.1.0 2 2
- 1.0075 0 1 cbr 210 ------- 0 0.0.0.0 1.1.1.0 2 2
r 1.008422 1 5 cbr 210 ------- 0 0.0.0.0 1.1.1.0 1 1
+ 1.008422 5 6 cbr 210 ------- 0 0.0.0.0 1.1.1.0 1 1
- 1.008422 5 6 cbr 210 ------- 0 0.0.0.0 1.1.1.0 1 1
r 1.009344 6 7 cbr 210 ------- 0 0.0.0.0 1.1.1.0 0 0
+ 1.009344 7 8 cbr 210 ------- 0 0.0.0.0 1.1.1.0 0 0
- 1.009344 7 8 cbr 210 ------- 0 0.0.0.0 1.1.1.0 0 0
r 1.009836 0 1 cbr 210 ------- 0 0.0.0.0 1.1.1.0 2 2
+ 1.009836 1 5 cbr 210 ------- 0 0.0.0.0 1.1.1.0 2 2
- 1.009836 1 5 cbr 210 ------- 0 0.0.0.0 1.1.1.0 2 2
r 1.010758 5 6 cbr 210 ------- 0 0.0.0.0 1.1.1.0 1 1
+ 1.010758 6 7 cbr 210 ------- 0 0.0.0.0 1.1.1.0 1 1
- 1.010758 6 7 cbr 210 ------- 0 0.0.0.0 1.1.1.0 1 1
+ 1.01125 0 1 cbr 210 ------- 0 0.0.0.0 1.1.1.0 3 3
- 1.01125 0 1 cbr 210 ------- 0 0.0.0.0 1.1.1.0 3 3
r 1.01168 7 8 cbr 210 ------- 0 0.0.0.0 1.1.1.0 0 0
r 1.012172 1 5 cbr 210 ------- 0 0.0.0.0 1.1.1.0 2 2
+ 1.012172 5 6 cbr 210 ------- 0 0.0.0.0 1.1.1.0 2 2
- 1.012172 5 6 cbr 210 ------- 0 0.0.0.0 1.1.1.0 2 2
r 1.013094 6 7 cbr 210 ------- 0 0.0.0.0 1.1.1.0 1 1
+ 1.013094 7 8 cbr 210 ------- 0 0.0.0.0 1.1.1.0 1 1
- 1.013094 7 8 cbr 210 ------- 0 0.0.0.0 1.1.1.0 1 1
r 1.013586 0 1 cbr 210 ------- 0 0.0.0.0 1.1.1.0 3 3
+ 1.013586 1 5 cbr 210 ------- 0 0.0.0.0 1.1.1.0 3 3
- 1.013586 1 5 cbr 210 ------- 0 0.0.0.0 1.1.1.0 3 3
r 1.014508 5 6 cbr 210 ------- 0 0.0.0.0 1.1.1.0 2 2
+ 1.014508 6 7 cbr 210 ------- 0 0.0.0.0 1.1.1.0 2 2
- 1.014508 6 7 cbr 210 ------- 0 0.0.0.0 1.1.1.0 2 2
+ 1.015 0 1 cbr 210 ------- 0 0.0.0.0 1.1.1.0 4 4
- 1.015 0 1 cbr 210 ------- 0 0.0.0.0 1.1.1.0 4 4
r 1.01543 7 8 cbr 210 ------- 0 0.0.0.0 1.1.1.0 1 1
r 1.015922 1 5 cbr 210 ------- 0 0.0.0.0 1.1.1.0 3 3
+ 1.015922 5 6 cbr 210 ------- 0 0.0.0.0 1.1.1.0 3 3
- 1.015922 5 6 cbr 210 ------- 0 0.0.0.0 1.1.1.0 3 3
r 1.016844 6 7 cbr 210 ------- 0 0.0.0.0 1.1.1.0 2 2
+ 1.016844 7 8 cbr 210 ------- 0 0.0.0.0 1.1.1.0 2 2
- 1.016844 7 8 cbr 210 ------- 0 0.0.0.0 1.1.1.0 2 2
r 1.017336 0 1 cbr 210 ------- 0 0.0.0.0 1.1.1.0 4 4
+ 1.017336 1 5 cbr 210 ------- 0 0.0.0.0 1.1.1.0 4 4
- 1.017336 1 5 cbr 210 ------- 0 0.0.0.0 1.1.1.0 4 4
r 1.018258 5 6 cbr 210 ------- 0 0.0.0.0 1.1.1.0 3 3
+ 1.018258 6 7 cbr 210 ------- 0 0.0.0.0 1.1.1.0 3 3
- 1.018258 6 7 cbr 210 ------- 0 0.0.0.0 1.1.1.0 3 3
+ 1.01875 0 1 cbr 210 ------- 0 0.0.0.0 1.1.1.0 5 5
- 1.01875 0 1 cbr 210 ------- 0 0.0.0.0 1.1.1.0 5 5
r 1.01918 7 8 cbr 210 ------- 0 0.0.0.0 1.1.1.0 2 2
r 1.019672 1 5 cbr 210 ------- 0 0.0.0.0 1.1.1.0 4 4
+ 1.019672 5 6 cbr 210 ------- 0 0.0.0.0 1.1.1.0 4 4
- 1.019672 5 6 cbr 210 ------- 0 0.0.0.0 1.1.1.0 4 4
r 1.020594 6 7 cbr 210 ------- 0 0.0.0.0 1.1.1.0 3 3
+ 1.020594 7 8 cbr 210 ------- 0 0.0.0.0 1.1.1.0 3 3
- 1.020594 7 8 cbr 210 ------- 0 0.0.0.0 1.1.1.0 3 3
r 1.021086 0 1 cbr 210 ------- 0 0.0.0.0 1.1.1.0 5 5
+ 1.021086 1 5 cbr 210 ------- 0 0.0.0.0 1.1.1.0 5 5
- 1.021086 1 5 cbr 210 ------- 0 0.0.0.0 1.1.1.0 5 5
r 1.022008 5 6 cbr 210 ------- 0 0.0.0.0 1.1.1.0 4 4
+ 1.022008 6 7 cbr 210 ------- 0 0.0.0.0 1.1.1.0 4 4
- 1.022008 6 7 cbr 210 ------- 0 0.0.0.0 1.1.1.0 4 4
+ 1.0225 0 1 cbr 210 ------- 0 0.0.0.0 1.1.1.0 6 6
- 1.0225 0 1 cbr 210 ------- 0 0.0.0.0 1.1.1.0 6 6
r 1.02293 7 8 cbr 210 ------- 0 0.0.0.0 1.1.1.0 3 3
r 1.023422 1 5 cbr 210 ------- 0 0.0.0.0 1.1.1.0 5 5
+ 1.023422 5 6 cbr 210 ------- 0 0.0.0.0 1.1.1.0 5 5
- 1.023422 5 6 cbr 210 ------- 0 0.0.0.0 1.1.1.0 5 5
r 1.024344 6 7 cbr 210 ------- 0 0.0.0.0 1.1.1.0 4 4
+ 1.024344 7 8 cbr 210 ------- 0 0.0.0.0 1.1.1.0 4 4
- 1.024344 7 8 cbr 210 ------- 0 0.0.0.0 1.1.1.0 4 4
r 1.024836 0 1 cbr 210 ------- 0 0.0.0.0 1.1.1.0 6 6
+ 1.024836 1 5 cbr 210 ------- 0 0.0.0.0 1.1.1.0 6 6
- 1.024836 1 5 cbr 210 ------- 0 0.0.0.0 1.1.1.0 6 6
r 1.025758 5 6 cbr 210 ------- 0 0.0.0.0 1.1.1.0 5 5
+ 1.025758 6 7 cbr 210 ------- 0 0.0.0.0 1.1.1.0 5 5
- 1.025758 6 7 cbr 210 ------- 0 0.0.0.0 1.1.1.0 5 5
+ 1.02625 0 1 cbr 210 ------- 0 0.0.0.0 1.1.1.0 7 7
- 1.02625 0 1 cbr 210 ------- 0 0.0.0.0 1.1.1.0 7 7
r 1.02668 7 8 cbr 210 ------- 0 0.0.0.0 1.1.1.0 4 4
r 1.027172 1 5 cbr 210 ------- 0 0.0.0.0 1.1.1.0 6 6
+ 1.027172 5 6 cbr 210 ------- 0 0.0.0.0 1.1.1.0 6 6
- 1.027172 5 6 cbr 210 ------- 0 0.0.0.0 1.1.1.0 6 6
r 1.028094 6 7 cbr 210 ------- 0 0.0.0.0 1.1.1.0 5 5
+ 1.028094 7 8 cbr 210 ------- 0 0.0.0.0 1.1.1.0 5 5
- 1.028094 7 8 cbr 210 ------- 0 0.0.0.0 1.1.1.0 5 5
r 1.028586 0 1 cbr 210 ------- 0 0.0.0.0 1.1.1.0 7 7
+ 1.028586 1 5 cbr 210 ------- 0 0.0.0.0 1.1.1.0 7 7
- 1.028586 1 5 cbr 210 ------- 0 0.0.0.0 1.1.1.0 7 7
r 1.029508 5 6 cbr 210 ------- 0 0.0.0.0 1.1.1.0 6 6
+ 1.029508 6 7 cbr 210 ------- 0 0.0.0.0 1.1.1.0 6 6
- 1.029508 6 7 cbr 210 ------- 0 0.0.0.0 1.1.1.0 6 6
+ 1.03 0 1 cbr 210 ------- 0 0.0.0.0 1.1.1.0 8 8
- 1.03 0 1 cbr 210 ------- 0 0.0.0.0 1.1.1.0 8 8
r 1.03043 7 8 cbr 210 ------- 0 0.0.0.0 1.1.1.0 5 5
r 1.030922 1 5 cbr 210 ------- 0 0.0.0.0 1.1.1.0 7 7
+ 1.030922 5 6 cbr 210 ------- 0 0.0.0.0 1.1.1.0 7 7
- 1.030922 5 6 cbr 210 ------- 0 0.0.0.0 1.1.1.0 7 7
r 1.031844 6 7 cbr 210 ------- 0 0.0.0.0 1.1.1.0 6 6
+ 1.031844 7 8 cbr 210 ------- 0 0.0.0.0 1.1.1.0 6 6
- 1.031844 7 8 cbr 210 ------- 0 0.0.0.0 1.1.1.0 6 6
r 1.032336 0 1 cbr 210 ------- 0 0.0.0.0 1.1.1.0 8 8
+ 1.032336 1 5 cbr 210 ------- 0 0.0.0.0 1.1.1.0 8 8
- 1.032336 1 5 cbr 210 ------- 0 0.0.0.0 1.1.1.0 8 8
r 1.033258 5 6 cbr 210 ------- 0 0.0.0.0 1.1.1.0 7 7
+ 1.033258 6 7 cbr 210 ------- 0 0.0.0.0 1.1.1.0 7 7
- 1.033258 6 7 cbr 210 ------- 0 0.0.0.0 1.1.1.0 7 7
+ 1.03375 0 1 cbr 210 ------- 0 0.0.0.0 1.1.1.0 9 9
- 1.03375 0 1 cbr 210 ------- 0 0.0.0.0 1.1.1.0 9 9
r 1.03418 7 8 cbr 210 ------- 0 0.0.0.0 1.1.1.0 6 6
r 1.034672 1 5 cbr 210 ------- 0 0.0.0.0 1.1.1.0 8 8
+ 1.034672 5 6 cbr 210 ------- 0 0.0.0.0 1.1.1.0 8 8
- 1.034672 5 6 cbr 210 ------- 0 0.0.0.0 1.1.1.0 8 8
r 1.035594 6 7 cbr 210 ------- 0 0.0.0.0 1.1.1.0 7 7
+ 1.035594 7 8 cbr 210 ------- 0 0.0.0.0 1.1.1.0 7 7
- 1.035594 7 8 cbr 210 ------- 0 0.0.0.0 1.1.1.0 7 7
r 1.036086 0 1 cbr 210 ------- 0 0.0.0.0 1.1.1.0 9 9
+ 1.036086 1 5 cbr 210 ------- 0 0.0.0.0 1.1.1.0 9 9
- 1.036086 1 5 cbr 210 ------- 0 0.0.0.0 1.1.1.0 9 9
r 1.037008 5 6 cbr 210 ------- 0 0.0.0.0 1.1.1.0 8 8
+ 1.037008 6 7 cbr 210 ------- 0 0.0.0.0 1.1.1.0 8 8
- 1.037008 6 7 cbr 210 ------- 0 0.0.0.0 1.1.1.0 8 8
+ 1.0375 0 1 cbr 210 ------- 0 0.0.0.0 1.1.1.0 10 10
- 1.0375 0 1 cbr 210 ------- 0 0.0.0.0 1.1.1.0 10 10
r 1.03793 7 8 cbr 210 ------- 0 0.0.0.0 1.1.1.0 7 7
r 1.038422 1 5 cbr 210 ------- 0 0.0.0.0 1.1.1.0 9 9
+ 1.038422 5 6 cbr 210 ------- 0 0.0.0.0 1.1.1.0 9 9
- 1.038422 5 6 cbr 210 ------- 0 0.0.0.0 1.1.1.0 9 9
r 1.039344 6 7 cbr 210 ------- 0 0.0.0.0 1.1.1.0 8 8
+ 1.039344 7 8 cbr 210 ------- 0 0.0.0.0 1.1.1.0 8 8
- 1.039344 7 8 cbr 210 ------- 0 0.0.0.0 1.1.1.0 8 8
r 1.039836 0 1 cbr 210 ------- 0 0.0.0.0 1.1.1.0 10 10
+ 1.039836 1 5 cbr 210 ------- 0 0.0.0.0 1.1.1.0 10 10
- 1.039836 1 5 cbr 210 ------- 0 0.0.0.0 1.1.1.0 10 10
r 1.040758 5 6 cbr 210 ------- 0 0.0.0.0 1.1.1.0 9 9
+ 1.040758 6 7 cbr 210 ------- 0 0.0.0.0 1.1.1.0 9 9
- 1.040758 6 7 cbr 210 ------- 0 0.0.0.0 1.1.1.0 9 9
+ 1.04125 0 1 cbr 210 ------- 0 0.0.0.0 1.1.1.0 11 11
- 1.04125 0 1 cbr 210 ------- 0 0.0.0.0 1.1.1.0 11 11
r 1.04168 7 8 cbr 210 ------- 0 0.0.0.0 1.1.1.0 8 8
r 1.042172 1 5 cbr 210 ------- 0 0.0.0.0 1.1.1.0 10 10
+ 1.042172 5 6 cbr 210 ------- 0 0.0.0.0 1.1.1.0 10 10
- 1.042172 5 6 cbr 210 ------- 0 0.0.0.0 1.1.1.0 10 10
r 1.043094 6 7 cbr 210 ------- 0 0.0.0.0 1.1.1.0 9 9
+ 1.043094 7 8 cbr 210 ------- 0 0.0.0.0 1.1.1.0 9 9
- 1.043094 7 8 cbr 210 ------- 0 0.0.0.0 1.1.1.0 9 9
r 1.043586 0 1 cbr 210 ------- 0 0.0.0.0 1.1.1.0 11 11
+ 1.043586 1 5 cbr 210 ------- 0 0.0.0.0 1.1.1.0 11 11
- 1.043586 1 5 cbr 210 ------- 0 0.0.0.0 1.1.1.0 11 11
r 1.044508 5 6 cbr 210 ------- 0 0.0.0.0 1.1.1.0 10 10
+ 1.044508 6 7 cbr 210 ------- 0 0.0.0.0 1.1.1.0 10 10
- 1.044508 6 7 cbr 210 ------- 0 0.0.0.0 1.1.1.0 10 10
+ 1.045 0 1 cbr 210 ------- 0 0.0.0.0 1.1.1.0 12 12
- 1.045 0 1 cbr 210 ------- 0 0.0.0.0 1.1.1.0 12 12
r 1.04543 7 8 cbr 210 ------- 0 0.0.0.0 1.1.1.0 9 9
r 1.045922 1 5 cbr 210 ------- 0 0.0.0.0 1.1.1.0 11 11
+ 1.045922 5 6 cbr 210 ------- 0 0.0.0.0 1.1.1.0 11 11
- 1.045922 5 6 cbr 210 ------- 0 0.0.0.0 1.1.1.0 11 11
r 1.046844 6 7 cbr 210 ------- 0 0.0.0.0 1.1.1.0 10 10
+ 1.046844 7 8 cbr 210 ------- 0 0.0.0.0 1.1.1.0 10 10
- 1.046844 7 8 cbr 210 ------- 0 0.0.0.0 1.1.1.0 10 10
r 1.047336 0 1 cbr 210 ------- 0 0.0.0.0 1.1.1.0 12 12
+ 1.047336 1 5 cbr 210 ------- 0 0.0.0.0 1.1.1.0 12 12
- 1.047336 1 5 cbr 210 ------- 0 0.0.0.0 1.1.1.0 12 12
r 1.048258 5 6 cbr 210 ------- 0 0.0.0.0 1.1.1.0 11 11
+ 1.048258 6 7 cbr 210 ------- 0 0.0.0.0 1.1.1.0 11 11
- 1.048258 6 7 cbr 210 ------- 0 0.0.0.0 1.1.1.0 11 11
+ 1.04875 0 1 cbr 210 ------- 0 0.0.0.0 1.1.1.0 13 13
- 1.04875 0 1 cbr 210 ------- 0 0.0.0.0 1.1.1.0 13 13
r 1.04918 7 8 cbr 210 ------- 0 0.0.0.0 1.1.1.0 10 10
r 1.049672 1 5 cbr 210 ------- 0 0.0.0.0 1.1.1.0 12 12
+ 1.049672 5 6 cbr 210 ------- 0 0.0.0.0 1.1.1.0 12 12
- 1.049672 5 6 cbr 210 ------- 0 0.0.0.0 1.1.1.0 12 12
r 1.050594 6 7 cbr 210 ------- 0 0.0.0.0 1.1.1.0 11 11
+ 1.050594 7 8 cbr 210 ------- 0 0.0.0.0 1.1.1.0 11 11
- 1.050594 7 8 cbr 210 ------- 0 0.0.0.0 1.1.1.0 11 11
r 1.051086 0 1 cbr 210 ------- 0 0.0.0.0 1.1.1.0 13 13
+ 1.051086 1 5 cbr 210 ------- 0 0.0.0.0 1.1.1.0 13 13
- 1.051086 1 5 cbr 210 ------- 0 0.0.0.0 1.1.1.0 13 13
r 1.052008 5 6 cbr 210 ------- 0 0.0.0.0 1.1.1.0 12 12
+ 1.052008 6 7 cbr 210 ------- 0 0.0.0.0 1.1.1.0 12 12
- 1.052008 6 7 cbr 210 ------- 0 0.0.0.0 1.1.1.0 12 12
+ 1.0525 0 1 cbr 210 ------- 0 0.0.0.0 1.1.1.0 14 14
- 1.0525 0 1 cbr 210 ------- 0 0.0.0.0 1.1.1.0 14 14
r 1.05293 7 8 cbr 210 ------- 0 0.0.0.0 1.1.1.0 11 11
r 1.053422 1 5 cbr 210 ------- 0 0.0.0.0 1.1.1.0 13 13
+ 1.053422 5 6 cbr 210 ------- 0 0.0.0.0 1.1.1.0 13 13
- 1.053422 5 6 cbr 210 ------- 0 0.0.0.0 1.1.1.0 13 13
r 1.054344 6 7 cbr 210 ------- 0 0.0.0.0 1.1.1.0 12 12
+ 1.054344 7 8 cbr 210 ------- 0 0.0.0.0 1.1.1.0 12 12
- 1.054344 7 8 cbr 210 ------- 0 0.0.0.0 1.1.1.0 12 12
r 1.054836 0 1 cbr 210 ------- 0 0.0.0.0 1.1.1.0 14 14
+ 1.054836 1 5 cbr 210 ------- 0 0.0.0.0 1.1.1.0 14 14
- 1.054836 1 5 cbr 210 ------- 0 0.0.0.0 1.1.1.0 14 14
r 1.055758 5 6 cbr 210 ------- 0 0.0.0.0 1.1.1.0 13 13
+ 1.055758 6 7 cbr 210 ------- 0 0.0.0.0 1.1.1.0 13 13
- 1.055758 6 7 cbr 210 ------- 0 0.0.0.0 1.1.1.0 13 13
+ 1.05625 0 1 cbr 210 ------- 0 0.0.0.0 1.1.1.0 15 15
- 1.05625 0 1 cbr 210 ------- 0 0.0.0.0 1.1.1.0 15 15
r 1.05668 7 8 cbr 210 ------- 0 0.0.0.0 1.1.1.0 12 12
r 1.057172 1 5 cbr 210 ------- 0 0.0.0.0 1.1.1.0 14 14
+ 1.057172 5 6 cbr 210 ------- 0 0.0.0.0 1.1.1.0 14 14
- 1.057172 5 6 cbr 210 ------- 0 0.0.0.0 1.1.1.0 14 14
r 1.058094 6 7 cbr 210 ------- 0 0.0.0.0 1.1.1.0 13 13
+ 1.058094 7 8 cbr 210 ------- 0 0.0.0.0 1.1.1.0 13 13
- 1.058094 7 8 cbr 210 ------- 0 0.0.0.0 1.1.1.0 13 13
r 1.058586 0 1 cbr 210 ------- 0 0.0.0.0 1.1.1.0 15 15
+ 1.058586 1 5 cbr 210 ------- 0 0.0.0.0 1.1.1.0 15 15
- 1.058586 1 5 cbr 210 ------- 0 0.0.0.0 1.1.1.0 15 15
r 1.059508 5 6 cbr 210 ------- 0 0.0.0.0 1.1.1.0 14 14
+ 1.059508 6 7 cbr 210 ------- 0 0.0.0.0 1.1.1.0 14 14
- 1.059508 6 7 cbr 210 ------- 0 0.0.0.0 1.1.1.0 14 14
+ 1.06 0 1 cbr 210 ------- 0 0.0.0.0 1.1.1.0 16 16
- 1.06 0 1 cbr 210 ------- 0 0.0.0.0 1.1.1.0 16 16
r 1.06043 7 8 cbr 210 ------- 0 0.0.0.0 1.1.1.0 13 13
r 1.060922 1 5 cbr 210 ------- 0 0.0.0.0 1.1.1.0 15 15
+ 1.060922 5 6 cbr 210 ------- 0 0.0.0.0 1.1.1.0 15 15
- 1.060922 5 6 cbr 210 ------- 0 0.0.0.0 1.1.1.0 15 15
r 1.061844 6 7 cbr 210 ------- 0 0.0.0.0 1.1.1.0 14 14
+ 1.061844 7 8 cbr 210 ------- 0 0.0.0.0 1.1.1.0 14 14
- 1.061844 7 8 cbr 210 ------- 0 0.0.0.0 1.1.1.0 14 14
r 1.062336 0 1 cbr 210 ------- 0 0.0.0.0 1.1.1.0 16 16
+ 1.062336 1 5 cbr 210 ------- 0 0.0.0.0 1.1.1.0 16 16
- 1.062336 1 5 cbr 210 ------- 0 0.0.0.0 1.1.1.0 16 16
r 1.063258 5 6 cbr 210 ------- 0 0.0.0.0 1.1.1.0 15 15
+ 1.063258 6 7 cbr 210 ------- 0 0.0.0.0 1.1.1.0 15 15
- 1.063258 6 7 cbr 210 ------- 0 0.0.0.0 1.1.1.0 15 15
+ 1.06375 0 1 cbr 210 ------- 0 0.0.0.0 1.1.1.0 17 17
- 1.06375 0 1 cbr 210 ------- 0 0.0.0.0 1.1.1.0 17 17
r 1.06418 7 8 cbr 210 ------- 0 0.0.0.0 1.1.1.0 14 14
r 1.064672 1 5 cbr 210 ------- 0 0.0.0.0 1.1.1.0 16 16
+ 1.064672 5 6 cbr 210 ------- 0 0.0.0.0 1.1.1.0 16 16
- 1.064672 5 6 cbr 210 ------- 0 0.0.0.0 1.1.1.0 16 16
r 1.065594 6 7 cbr 210 ------- 0 0.0.0.0 1.1.1.0 15 15
+ 1.065594 7 8 cbr 210 ------- 0 0.0.0.0 1.1.1.0 15 15
- 1.065594 7 8 cbr 210 ------- 0 0.0.0.0 1.1.1.0 15 15
r 1.066086 0 1 cbr 210 ------- 0 0.0.0.0 1.1.1.0 17 17
+ 1.066086 1 5 cbr 210 ------- 0 0.0.0.0 1.1.1.0 17 17
- 1.066086 1 5 cbr 210 ------- 0 0.0.0.0 1.1.1.0 17 17
r 1.067008 5 6 cbr 210 ------- 0 0.0.0.0 1.1.1.0 16 16
+ 1.067008 6 7 cbr 210 ------- 0 0.0.0.0 1.1.1.0 16 16
- 1.067008 6 7 cbr 210 ------- 0 0.0.0.0 1.1.1.0 16 16
+ 1.0675 0 1 cbr 210 ------- 0 0.0.0.0 1.1.1.0 18 18
- 1.0675 0 1 cbr 210 ------- 0 0.0.0.0 1.1.1.0 18 18
r 1.06793 7 8 cbr 210 ------- 0 0.0.0.0 1.1.1.0 15 15
r 1.068422 1 5 cbr 210 ------- 0 0.0.0.0 1.1.1.0 17 17
+ 1.068422 5 6 cbr 210 ------- 0 0.0.0.0 1.1.1.0 17 17
- 1.068422 5 6 cbr 210 ------- 0 0.0.0.0 1.1.1.0 17 17
r 1.069344 6 7 cbr 210 ------- 0 0.0.0.0 1.1.1.0 16 16
+ 1.069344 7 8 cbr 210 ------- 0 0.0.0.0 1.1.1.0 16 16
- 1.069344 7 8 cbr 210 ------- 0 0.0.0.0 1.1.1.0 16 16
r 1.069836 0 1 cbr 210 ------- 0 0.0.0.0 1.1.1.0 18 18
+ 1.069836 1 5 cbr 210 ------- 0 0.0.0.0 1.1.1.0 18 18
- 1.069836 1 5 cbr 210 ------- 0 0.0.0.0 1.1.1.0 18 18
r 1.070758 5 6 cbr 210 ------- 0 0.0.0.0 1.1.1.0 17 17
+ 1.070758 6 7 cbr 210 ------- 0 0.0.0.0 1.1.1.0 17 17
- 1.070758 6 7 cbr 210 ------- 0 0.0.0.0 1.1.1.0 17 17
+ 1.07125 0 1 cbr 210 ------- 0 0.0.0.0 1.1.1.0 19 19
- 1.07125 0 1 cbr 210 ------- 0 0.0.0.0 1.1.1.0 19 19
r 1.07168 7 8 cbr 210 ------- 0 0.0.0.0 1.1.1.0 16 16
r 1.072172 1 5 cbr 210 ------- 0 0.0.0.0 1.1.1.0 18 18
+ 1.072172 5 6 cbr 210 ------- 0 0.0.0.0 1.1.1.0 18 18
- 1.072172 5 6 cbr 210 ------- 0 0.0.0.0 1.1.1.0 18 18
r 1.073094 6 7 cbr 210 ------- 0 0.0.0.0 1.1.1.0 17 17
+ 1.073094 7 8 cbr 210 ------- 0 0.0.0.0 1.1.1.0 17 17
- 1.073094 7 8 cbr 210 ------- 0 0.0.0.0 1.1.1.0 17 17
r 1.073586 0 1 cbr 210 ------- 0 0.0.0.0 1.1.1.0 19 19
+ 1.073586 1 5 cbr 210 ------- 0 0.0.0.0 1.1.1.0 19 19
- 1.073586 1 5 cbr 210 ------- 0 0.0.0.0 1.1.1.0 19 19
r 1.074508 5 6 cbr 210 ------- 0 0.0.0.0 1.1.1.0 18 18
+ 1.074508 6 7 cbr 210 ------- 0 0.0.0.0 1.1.1.0 18 18
- 1.074508 6 7 cbr 210 ------- 0 0.0.0.0 1.1.1.0 18 18
+ 1.075 0 1 cbr 210 ------- 0 0.0.0.0 1.1.1.0 20 20
- 1.075 0 1 cbr 210 ------- 0 0.0.0.0 1.1.1.0 20 20
r 1.07543 7 8 cbr 210 ------- 0 0.0.0.0 1.1.1.0 17 17
r 1.075922 1 5 cbr 210 ------- 0 0.0.0.0 1.1.1.0 19 19
+ 1.075922 5 6 cbr 210 ------- 0 0.0.0.0 1.1.1.0 19 19
- 1.075922 5 6 cbr 210 ------- 0 0.0.0.0 1.1.1.0 19 19
r 1.076844 6 7 cbr 210 ------- 0 0.0.0.0 1.1.1.0 18 18
+ 1.076844 7 8 cbr 210 ------- 0 0.0.0.0 1.1.1.0 18 18
- 1.076844 7 8 cbr 210 ------- 0 0.0.0.0 1.1.1.0 18 18
r 1.077336 0 1 cbr 210 ------- 0 0.0.0.0 1.1.1.0 20 20
+ 1.077336 1 5 cbr 210 ------- 0 0.0.0.0 1.1.1.0 20 20
- 1.077336 1 5 cbr 210 ------- 0 0.0.0.0 1.1.1.0 20 20
r 1.078258 5 6 cbr 210 ------- 0 0.0.0.0 1.1.1.0 19 19
+ 1.078258 6 7 cbr 210 ------- 0 0.0.0.0 1.1.1.0 19 19
- 1.078258 6 7 cbr 210 ------- 0 0.0.0.0 1.1.1.0 19 19
+ 1.07875 0 1 cbr 210 ------- 0 0.0.0.0 1.1.1.0 21 21
- 1.07875 0 1 cbr 210 ------- 0 0.0.0.0 1.1.1.0 21 21
r 1.07918 7 8 cbr 210 ------- 0 0.0.0.0 1.1.1.0 18 18
r 1.079672 1 5 cbr 210 ------- 0 0.0.0.0 1.1.1.0 20 20
+ 1.079672 5 6 cbr 210 ------- 0 0.0.0.0 1.1.1.0 20 20
- 1.079672 5 6 cbr 210 ------- 0 0.0.0.0 1.1.1.0 20 20
r 1.080594 6 7 cbr 210 ------- 0 0.0.0.0 1.1.1.0 19 19
+ 1.080594 7 8 cbr 210 ------- 0 0.0.0.0 1.1.1.0 19 19
- 1.080594 7 8 cbr 210 ------- 0 0.0.0.0 1.1.1.0 19 19
r 1.081086 0 1 cbr 210 ------- 0 0.0.0.0 1.1.1.0 21 21
+ 1.081086 1 5 cbr 210 ------- 0 0.0.0.0 1.1.1.0 21 21
- 1.081086 1 5 cbr 210 ------- 0 0.0.0.0 1.1.1.0 21 21
r 1.082008 5 6 cbr 210 ------- 0 0.0.0.0 1.1.1.0 20 20
+ 1.082008 6 7 cbr 210 ------- 0 0.0.0.0 1.1.1.0 20 20
- 1.082008 6 7 cbr 210 ------- 0 0.0.0.0 1.1.1.0 20 20
+ 1.0825 0 1 cbr 210 ------- 0 0.0.0.0 1.1.1.0 22 22
- 1.0825 0 1 cbr 210 ------- 0 0.0.0.0 1.1.1.0 22 22
r 1.08293 7 8 cbr 210 ------- 0 0.0.0.0 1.1.1.0 19 19
r 1.083422 1 5 cbr 210 ------- 0 0.0.0.0 1.1.1.0 21 21
+ 1.083422 5 6 cbr 210 ------- 0 0.0.0.0 1.1.1.0 21 21
- 1.083422 5 6 cbr 210 ------- 0 0.0.0.0 1.1.1.0 21 21
r 1.084344 6 7 cbr 210 ------- 0 0.0.0.0 1.1.1.0 20 20
+ 1.084344 7 8 cbr 210 ------- 0 0.0.0.0 1.1.1.0 20 20
- 1.084344 7 8 cbr 210 ------- 0 0.0.0.0 1.1.1.0 20 20
r 1.084836 0 1 cbr 210 ------- 0 0.0.0.0 1.1.1.0 22 22
+ 1.084836 1 5 cbr 210 ------- 0 0.0.0.0 1.1.1.0 22 22
- 1.084836 1 5 cbr 210 ------- 0 0.0.0.0 1.1.1.0 22 22
r 1.085758 5 6 cbr 210 ------- 0 0.0.0.0 1.1.1.0 21 21
+ 1.085758 6 7 cbr 210 ------- 0 0.0.0.0 1.1.1.0 21 21
- 1.085758 6 7 cbr 210 ------- 0 0.0.0.0 1.1.1.0 21 21
+ 1.08625 0 1 cbr 210 ------- 0 0.0.0.0 1.1.1.0 23 23
- 1.08625 0 1 cbr 210 ------- 0 0.0.0.0 1.1.1.0 23 23
r 1.08668 7 8 cbr 210 ------- 0 0.0.0.0 1.1.1.0 20 20
r 1.087172 1 5 cbr 210 ------- 0 0.0.0.0 1.1.1.0 22 22
+ 1.087172 5 6 cbr 210 ------- 0 0.0.0.0 1.1.1.0 22 22
- 1.087172 5 6 cbr 210 ------- 0 0.0.0.0 1.1.1.0 22 22
r 1.088094 6 7 cbr 210 ------- 0 0.0.0.0 1.1.1.0 21 21
+ 1.088094 7 8 cbr 210 ------- 0 0.0.0.0 1.1.1.0 21 21
- 1.088094 7 8 cbr 210 ------- 0 0.0.0.0 1.1.1.0 21 21
r 1.088586 0 1 cbr 210 ------- 0 0.0.0.0 1.1.1.0 23 23
+ 1.088586 1 5 cbr 210 ------- 0 0.0.0.0 1.1.1.0 23 23
- 1.088586 1 5 cbr 210 ------- 0 0.0.0.0 1.1.1.0 23 23
r 1.089508 5 6 cbr 210 ------- 0 0.0.0.0 1.1.1.0 22 22
+ 1.089508 6 7 cbr 210 ------- 0 0.0.0.0 1.1.1.0 22 22
- 1.089508 6 7 cbr 210 ------- 0 0.0.0.0 1.1.1.0 22 22
+ 1.09 0 1 cbr 210 ------- 0 0.0.0.0 1.1.1.0 24 24
- 1.09 0 1 cbr 210 ------- 0 0.0.0.0 1.1.1.0 24 24
r 1.09043 7 8 cbr 210 ------- 0 0.0.0.0 1.1.1.0 21 21
r 1.090922 1 5 cbr 210 ------- 0 0.0.0.0 1.1.1.0 23 23
+ 1.090922 5 6 cbr 210 ------- 0 0.0.0.0 1.1.1.0 23 23
- 1.090922 5 6 cbr 210 ------- 0 0.0.0.0 1.1.1.0 23 23
r 1.091844 6 7 cbr 210 ------- 0 0.0.0.0 1.1.1.0 22 22
+ 1.091844 7 8 cbr 210 ------- 0 0.0.0.0 1.1.1.0 22 22
- 1.091844 7 8 cbr 210 ------- 0 0.0.0.0 1.1.1.0 22 22
r 1.092336 0 1 cbr 210 ------- 0 0.0.0.0 1.1.1.0 24 24
+ 1.092336 1 5 cbr 210 ------- 0 0.0.0.0 1.1.1.0 24 24
- 1.092336 1 5 cbr 210 ------- 0 0.0.0.0 1.1.1.0 24 24
r 1.093258 5 6 cbr 210 ------- 0 0.0.0.0 1.1.1.0 23 23
+ 1.093258 6 7 cbr 210 ------- 0 0.0.0.0 1.1.1.0 23 23
- 1.093258 6 7 cbr 210 ------- 0 0.0.0.0 1.1.1.0 23 23
+ 1.09375 0 1 cbr 210 ------- 0 0.0.0.0 1.1.1.0 25 25
- 1.09375 0 1 cbr 210 ------- 0 0.0.0.0 1.1.1.0 25 25
r 1.09418 7 8 cbr 210 ------- 0 0.0.0.0 1.1.1.0 22 22
r 1.094672 1 5 cbr 210 ------- 0 0.0.0.0 1.1.1.0 24 24
+ 1.094672 5 6 cbr 210 ------- 0 0.0.0.0 1.1.1.0 24 24
- 1.094672 5 6 cbr 210 ------- 0 0.0.0.0 1.1.1.0 24 24
r 1.095594 6 7 cbr 210 ------- 0 0.0.0.0 1.1.1.0 23 23
+ 1.095594 7 8 cbr 210 ------- 0 0.0.0.0 1.1.1.0 23 23
- 1.095594 7 8 cbr 210 ------- 0 0.0.0.0 1.1.1.0 23 23
r 1.096086 0 1 cbr 210 ------- 0 0.0.0.0 1.1.1.0 25 25
+ 1.096086 1 5 cbr 210 ------- 0 0.0.0.0 1.1.1.0 25 25
- 1.096086 1 5 cbr 210 ------- 0 0.0.0.0 1.1.1.0 25 25
r 1.097008 5 6 cbr 210 ------- 0 0.0.0.0 1.1.1.0 24 24
+ 1.097008 6 7 cbr 210 ------- 0 0.0.0.0 1.1.1.0 24 24
- 1.097008 6 7 cbr 210 ------- 0 0.0.0.0 1.1.1.0 24 24
+ 1.0975 0 1 cbr 210 ------- 0 0.0.0.0 1.1.1.0 26 26
- 1.0975 0 1 cbr 210 ------- 0 0.0.0.0 1.1.1.0 26 26
r 1.09793 7 8 cbr 210 ------- 0 0.0.0.0 1.1.1.0 23 23
r 1.098422 1 5 cbr 210 ------- 0 0.0.0.0 1.1.1.0 25 25
+ 1.098422 5 6 cbr 210 ------- 0 0.0.0.0 1.1.1.0 25 25
- 1.098422 5 6 cbr 210 ------- 0 0.0.0.0 1.1.1.0 25 25
r 1.099344 6 7 cbr 210 ------- 0 0.0.0.0 1.1.1.0 24 24
+ 1.099344 7 8 cbr 210 ------- 0 0.0.0.0 1.1.1.0 24 24
- 1.099344 7 8 cbr 210 ------- 0 0.0.0.0 1.1.1.0 24 24
r 1.099836 0 1 cbr 210 ------- 0 0.0.0.0 1.1.1.0 26 26
+ 1.099836 1 5 cbr 210 ------- 0 0.0.0.0 1.1.1.0 26 26
- 1.099836 1 5 cbr 210 ------- 0 0.0.0.0 1.1.1.0 26 26
+ 1.1 2 1 cbr 210 ------- 1 0.1.0.0 1.0.1.0 0 27
- 1.1 2 1 cbr 210 ------- 1 0.1.0.0 1.0.1.0 0 27
r 1.100758 5 6 cbr 210 ------- 0 0.0.0.0 1.1.1.0 25 25
+ 1.100758 6 7 cbr 210 ------- 0 0.0.0.0 1.1.1.0 25 25
- 1.100758 6 7 cbr 210 ------- 0 0.0.0.0 1.1.1.0 25 25
+ 1.10125 0 1 cbr 210 ------- 0 0.0.0.0 1.1.1.0 27 28
- 1.10125 0 1 cbr 210 ------- 0 0.0.0.0 1.1.1.0 27 28
r 1.10168 7 8 cbr 210 ------- 0 0.0.0.0 1.1.1.0 24 24
r 1.102172 1 5 cbr 210 ------- 0 0.0.0.0 1.1.1.0 26 26
+ 1.102172 5 6 cbr 210 ------- 0 0.0.0.0 1.1.1.0 26 26
- 1.102172 5 6 cbr 210 ------- 0 0.0.0.0 1.1.1.0 26 26
r 1.102336 2 1 cbr 210 ------- 1 0.1.0.0 1.0.1.0 0 27
+ 1.102336 1 5 cbr 210 ------- 1 0.1.0.0 1.0.1.0 0 27
- 1.102336 1 5 cbr 210 ------- 1 0.1.0.0 1.0.1.0 0 27
r 1.103094 6 7 cbr 210 ------- 0 0.0.0.0 1.1.1.0 25 25
+ 1.103094 7 8 cbr 210 ------- 0 0.0.0.0 1.1.1.0 25 25
- 1.103094 7 8 cbr 210 ------- 0 0.0.0.0 1.1.1.0 25 25
r 1.103586 0 1 cbr 210 ------- 0 0.0.0.0 1.1.1.0 27 28
+ 1.103586 1 5 cbr 210 ------- 0 0.0.0.0 1.1.1.0 27 28
- 1.103586 1 5 cbr 210 ------- 0 0.0.0.0 1.1.1.0 27 28
+ 1.10375 2 1 cbr 210 ------- 1 0.1.0.0 1.0.1.0 1 29
- 1.10375 2 1 cbr 210 ------- 1 0.1.0.0 1.0.1.0 1 29
r 1.104508 5 6 cbr 210 ------- 0 0.0.0.0 1.1.1.0 26 26
+ 1.104508 6 7 cbr 210 ------- 0 0.0.0.0 1.1.1.0 26 26
- 1.104508 6 7 cbr 210 ------- 0 0.0.0.0 1.1.1.0 26 26
r 1.104672 1 5 cbr 210 ------- 1 0.1.0.0 1.0.1.0 0 27
+ 1.104672 5 6 cbr 210 ------- 1 0.1.0.0 1.0.1.0 0 27
- 1.104672 5 6 cbr 210 ------- 1 0.1.0.0 1.0.1.0 0 27
+ 1.105 0 1 cbr 210 ------- 0 0.0.0.0 1.1.1.0 28 30
- 1.105 0 1 cbr 210 ------- 0 0.0.0.0 1.1.1.0 28 30
r 1.10543 7 8 cbr 210 ------- 0 0.0.0.0 1.1.1.0 25 25
r 1.105922 1 5 cbr 210 ------- 0 0.0.0.0 1.1.1.0 27 28
+ 1.105922 5 6 cbr 210 ------- 0 0.0.0.0 1.1.1.0 27 28
- 1.105922 5 6 cbr 210 ------- 0 0.0.0.0 1.1.1.0 27 28
r 1.106086 2 1 cbr 210 ------- 1 0.1.0.0 1.0.1.0 1 29
+ 1.106086 1 5 cbr 210 ------- 1 0.1.0.0 1.0.1.0 1 29
- 1.106086 1 5 cbr 210 ------- 1 0.1.0.0 1.0.1.0 1 29
r 1.106844 6 7 cbr 210 ------- 0 0.0.0.0 1.1.1.0 26 26
+ 1.106844 7 8 cbr 210 ------- 0 0.0.0.0 1.1.1.0 26 26
- 1.106844 7 8 cbr 210 ------- 0 0.0.0.0 1.1.1.0 26 26
r 1.107008 5 6 cbr 210 ------- 1 0.1.0.0 1.0.1.0 0 27
r 1.107336 0 1 cbr 210 ------- 0 0.0.0.0 1.1.1.0 28 30
+ 1.107336 1 5 cbr 210 ------- 0 0.0.0.0 1.1.1.0 28 30
- 1.107336 1 5 cbr 210 ------- 0 0.0.0.0 1.1.1.0 28 30
+ 1.1075 2 1 cbr 210 ------- 1 0.1.0.0 1.0.1.0 2 31
- 1.1075 2 1 cbr 210 ------- 1 0.1.0.0 1.0.1.0 2 31
r 1.108258 5 6 cbr 210 ------- 0 0.0.0.0 1.1.1.0 27 28
+ 1.108258 6 7 cbr 210 ------- 0 0.0.0.0 1.1.1.0 27 28
- 1.108258 6 7 cbr 210 ------- 0 0.0.0.0 1.1.1.0 27 28
r 1.108422 1 5 cbr 210 ------- 1 0.1.0.0 1.0.1.0 1 29
+ 1.108422 5 6 cbr 210 ------- 1 0.1.0.0 1.0.1.0 1 29
- 1.108422 5 6 cbr 210 ------- 1 0.1.0.0 1.0.1.0 1 29
+ 1.10875 0 1 cbr 210 ------- 0 0.0.0.0 1.1.1.0 29 32
- 1.10875 0 1 cbr 210 ------- 0 0.0.0.0 1.1.1.0 29 32
r 1.10918 7 8 cbr 210 ------- 0 0.0.0.0 1.1.1.0 26 26
r 1.109672 1 5 cbr 210 ------- 0 0.0.0.0 1.1.1.0 28 30
+ 1.109672 5 6 cbr 210 ------- 0 0.0.0.0 1.1.1.0 28 30
- 1.109672 5 6 cbr 210 ------- 0 0.0.0.0 1.1.1.0 28 30
r 1.109836 2 1 cbr 210 ------- 1 0.1.0.0 1.0.1.0 2 31
+ 1.109836 1 5 cbr 210 ------- 1 0.1.0.0 1.0.1.0 2 31
- 1.109836 1 5 cbr 210 ------- 1 0.1.0.0 1.0.1.0 2 31
r 1.110594 6 7 cbr 210 ------- 0 0.0.0.0 1.1.1.0 27 28
+ 1.110594 7 8 cbr 210 ------- 0 0.0.0.0 1.1.1.0 27 28
- 1.110594 7 8 cbr 210 ------- 0 0.0.0.0 1.1.1.0 27 28
r 1.110758 5 6 cbr 210 ------- 1 0.1.0.0 1.0.1.0 1 29
r 1.111086 0 1 cbr 210 ------- 0 0.0.0.0 1.1.1.0 29 32
+ 1.111086 1 5 cbr 210 ------- 0 0.0.0.0 1.1.1.0 29 32
- 1.111086 1 5 cbr 210 ------- 0 0.0.0.0 1.1.1.0 29 32
+ 1.11125 2 1 cbr 210 ------- 1 0.1.0.0 1.0.1.0 3 33
- 1.11125 2 1 cbr 210 ------- 1 0.1.0.0 1.0.1.0 3 33
r 1.112008 5 6 cbr 210 ------- 0 0.0.0.0 1.1.1.0 28 30
+ 1.112008 6 7 cbr 210 ------- 0 0.0.0.0 1.1.1.0 28 30
- 1.112008 6 7 cbr 210 ------- 0 0.0.0.0 1.1.1.0 28 30
r 1.112172 1 5 cbr 210 ------- 1 0.1.0.0 1.0.1.0 2 31
+ 1.112172 5 6 cbr 210 ------- 1 0.1.0.0 1.0.1.0 2 31
- 1.112172 5 6 cbr 210 ------- 1 0.1.0.0 1.0.1.0 2 31
+ 1.1125 0 1 cbr 210 ------- 0 0.0.0.0 1.1.1.0 30 34
- 1.1125 0 1 cbr 210 ------- 0 0.0.0.0 1.1.1.0 30 34
r 1.11293 7 8 cbr 210 ------- 0 0.0.0.0 1.1.1.0 27 28
r 1.113422 1 5 cbr 210 ------- 0 0.0.0.0 1.1.1.0 29 32
+ 1.113422 5 6 cbr 210 ------- 0 0.0.0.0 1.1.1.0 29 32
- 1.113422 5 6 cbr 210 ------- 0 0.0.0.0 1.1.1.0 29 32
r 1.113586 2 1 cbr 210 ------- 1 0.1.0.0 1.0.1.0 3 33
+ 1.113586 1 5 cbr 210 ------- 1 0.1.0.0 1.0.1.0 3 33
- 1.113586 1 5 cbr 210 ------- 1 0.1.0.0 1.0.1.0 3 33
r 1.114344 6 7 cbr 210 ------- 0 0.0.0.0 1.1.1.0 28 30
+ 1.114344 7 8 cbr 210 ------- 0 0.0.0.0 1.1.1.0 28 30
- 1.114344 7 8 cbr 210 ------- 0 0.0.0.0 1.1.1.0 28 30
r 1.114508 5 6 cbr 210 ------- 1 0.1.0.0 1.0.1.0 2 31
r 1.114836 0 1 cbr 210 ------- 0 0.0.0.0 1.1.1.0 30 34
+ 1.114836 1 5 cbr 210 ------- 0 0.0.0.0 1.1.1.0 30 34
- 1.114836 1 5 cbr 210 ------- 0 0.0.0.0 1.1.1.0 30 34
+ 1.115 2 1 cbr 210 ------- 1 0.1.0.0 1.0.1.0 4 35
- 1.115 2 1 cbr 210 ------- 1 0.1.0.0 1.0.1.0 4 35
r 1.115758 5 6 cbr 210 ------- 0 0.0.0.0 1.1.1.0 29 32
+ 1.115758 6 7 cbr 210 ------- 0 0.0.0.0 1.1.1.0 29 32
- 1.115758 6 7 cbr 210 ------- 0 0.0.0.0 1.1.1.0 29 32
r 1.115922 1 5 cbr 210 ------- 1 0.1.0.0 1.0.1.0 3 33
+ 1.115922 5 6 cbr 210 ------- 1 0.1.0.0 1.0.1.0 3 33
- 1.115922 5 6 cbr 210 ------- 1 0.1.0.0 1.0.1.0 3 33
+ 1.11625 0 1 cbr 210 ------- 0 0.0.0.0 1.1.1.0 31 36
- 1.11625 0 1 cbr 210 ------- 0 0.0.0.0 1.1.1.0 31 36
r 1.11668 7 8 cbr 210 ------- 0 0.0.0.0 1.1.1.0 28 30
r 1.117172 1 5 cbr 210 ------- 0 0.0.0.0 1.1.1.0 30 34
+ 1.117172 5 6 cbr 210 ------- 0 0.0.0.0 1.1.1.0 30 34
- 1.117172 5 6 cbr 210 ------- 0 0.0.0.0 1.1.1.0 30 34
r 1.117336 2 1 cbr 210 ------- 1 0.1.0.0 1.0.1.0 4 35
+ 1.117336 1 5 cbr 210 ------- 1 0.1.0.0 1.0.1.0 4 35
- 1.117336 1 5 cbr 210 ------- 1 0.1.0.0 1.0.1.0 4 35
r 1.118094 6 7 cbr 210 ------- 0 0.0.0.0 1.1.1.0 29 32
+ 1.118094 7 8 cbr 210 ------- 0 0.0.0.0 1.1.1.0 29 32
- 1.118094 7 8 cbr 210 ------- 0 0.0.0.0 1.1.1.0 29 32
r 1.118258 5 6 cbr 210 ------- 1 0.1.0.0 1.0.1.0 3 33
r 1.118586 0 1 cbr 210 ------- 0 0.0.0.0 1.1.1.0 31 36
+ 1.118586 1 5 cbr 210 ------- 0 0.0.0.0 1.1.1.0 31 36
- 1.118586 1 5 cbr 210 ------- 0 0.0.0.0 1.1.1.0 31 36
+ 1.11875 2 1 cbr 210 ------- 1 0.1.0.0 1.0.1.0 5 37
- 1.11875 2 1 cbr 210 ------- 1 0.1.0.0 1.0.1.0 5 37
r 1.119508 5 6 cbr 210 ------- 0 0.0.0.0 1.1.1.0 30 34
+ 1.119508 6 7 cbr 210 ------- 0 0.0.0.0 1.1.1.0 30 34
- 1.119508 6 7 cbr 210 ------- 0 0.0.0.0 1.1.1.0 30 34
r 1.119672 1 5 cbr 210 ------- 1 0.1.0.0 1.0.1.0 4 35
+ 1.119672 5 6 cbr 210 ------- 1 0.1.0.0 1.0.1.0 4 35
- 1.119672 5 6 cbr 210 ------- 1 0.1.0.0 1.0.1.0 4 35
+ 1.12 0 1 cbr 210 ------- 0 0.0.0.0 1.1.1.0 32 38
- 1.12 0 1 cbr 210 ------- 0 0.0.0.0 1.1.1.0 32 38
r 1.12043 7 8 cbr 210 ------- 0 0.0.0.0 1.1.1.0 29 32
r 1.120922 1 5 cbr 210 ------- 0 0.0.0.0 1.1.1.0 31 36
+ 1.120922 5 6 cbr 210 ------- 0 0.0.0.0 1.1.1.0 31 36
- 1.120922 5 6 cbr 210 ------- 0 0.0.0.0 1.1.1.0 31 36
r 1.121086 2 1 cbr 210 ------- 1 0.1.0.0 1.0.1.0 5 37
+ 1.121086 1 5 cbr 210 ------- 1 0.1.0.0 1.0.1.0 5 37
- 1.121086 1 5 cbr 210 ------- 1 0.1.0.0 1.0.1.0 5 37
r 1.121844 6 7 cbr 210 ------- 0 0.0.0.0 1.1.1.0 30 34
+ 1.121844 7 8 cbr 210 ------- 0 0.0.0.0 1.1.1.0 30 34
- 1.121844 7 8 cbr 210 ------- 0 0.0.0.0 1.1.1.0 30 34
r 1.122008 5 6 cbr 210 ------- 1 0.1.0.0 1.0.1.0 4 35
r 1.122336 0 1 cbr 210 ------- 0 0.0.0.0 1.1.1.0 32 38
+ 1.122336 1 5 cbr 210 ------- 0 0.0.0.0 1.1.1.0 32 38
- 1.122336 1 5 cbr 210 ------- 0 0.0.0.0 1.1.1.0 32 38
+ 1.1225 2 1 cbr 210 ------- 1 0.1.0.0 1.0.1.0 6 39
- 1.1225 2 1 cbr 210 ------- 1 0.1.0.0 1.0.1.0 6 39
r 1.123258 5 6 cbr 210 ------- 0 0.0.0.0 1.1.1.0 31 36
+ 1.123258 6 7 cbr 210 ------- 0 0.0.0.0 1.1.1.0 31 36
- 1.123258 6 7 cbr 210 ------- 0 0.0.0.0 1.1.1.0 31 36
r 1.123422 1 5 cbr 210 ------- 1 0.1.0.0 1.0.1.0 5 37
+ 1.123422 5 6 cbr 210 ------- 1 0.1.0.0 1.0.1.0 5 37
- 1.123422 5 6 cbr 210 ------- 1 0.1.0.0 1.0.1.0 5 37
+ 1.12375 0 1 cbr 210 ------- 0 0.0.0.0 1.1.1.0 33 40
- 1.12375 0 1 cbr 210 ------- 0 0.0.0.0 1.1.1.0 33 40
r 1.12418 7 8 cbr 210 ------- 0 0.0.0.0 1.1.1.0 30 34
r 1.124672 1 5 cbr 210 ------- 0 0.0.0.0 1.1.1.0 32 38
+ 1.124672 5 6 cbr 210 ------- 0 0.0.0.0 1.1.1.0 32 38
- 1.124672 5 6 cbr 210 ------- 0 0.0.0.0 1.1.1.0 32 38
r 1.124836 2 1 cbr 210 ------- 1 0.1.0.0 1.0.1.0 6 39
+ 1.124836 1 5 cbr 210 ------- 1 0.1.0.0 1.0.1.0 6 39
- 1.124836 1 5 cbr 210 ------- 1 0.1.0.0 1.0.1.0 6 39
r 1.125594 6 7 cbr 210 ------- 0 0.0.0.0 1.1.1.0 31 36
+ 1.125594 7 8 cbr 210 ------- 0 0.0.0.0 1.1.1.0 31 36
- 1.125594 7 8 cbr 210 ------- 0 0.0.0.0 1.1.1.0 31 36
r 1.125758 5 6 cbr 210 ------- 1 0.1.0.0 1.0.1.0 5 37
r 1.126086 0 1 cbr 210 ------- 0 0.0.0.0 1.1.1.0 33 40
+ 1.126086 1 5 cbr 210 ------- 0 0.0.0.0 1.1.1.0 33 40
- 1.126086 1 5 cbr 210 ------- 0 0.0.0.0 1.1.1.0 33 40
+ 1.12625 2 1 cbr 210 ------- 1 0.1.0.0 1.0.1.0 7 41
- 1.12625 2 1 cbr 210 ------- 1 0.1.0.0 1.0.1.0 7 41
r 1.127008 5 6 cbr 210 ------- 0 0.0.0.0 1.1.1.0 32 38
+ 1.127008 6 7 cbr 210 ------- 0 0.0.0.0 1.1.1.0 32 38