# TESTNAME: cache0-ottl
# TOPOLOGY: cache0
# avg-comp-page-age: 40000
# avg-page-age: 60
# avg-page-size: 1024
# avg-req-interval: 60
# client-req-size: 43
# comp-page-size: 51200
# duration: 500
# enable-log: 0
# hb-interval: 30
# max-page-age: 70
# max-page-size: 50000
# max-req-interval: 70
# min-page-age: 50
# min-page-size: 100
# min-req-interval: 50
# nam-trace-all: 1
# ns-random-seed: 188312339
# num-2nd-cache: 5
# num-comp-pages: 1
# prot: cache0-ottl
# scheduler-type: Calendar
# single-page: 1
# ttl: 0.1
# upd-interval: 5
# xtrace-page: webtrace-pglog
# xtrace-req: webtrace-reqlog
+ 20 0 1 tcp 83 ------- 0 0.1 1.1 1 0
- 20 0 1 tcp 83 ------- 0 0.1 1.1 1 0
r 20.002066 0 1 tcp 83 ------- 0 0.1 1.1 1 0
+ 20.002066 1 2 tcp 83 ------- 1 1.2 2.1 1 1
- 20.002066 1 2 tcp 83 ------- 1 1.2 2.1 1 1
r 20.052509 1 2 tcp 83 ------- 1 1.2 2.1 1 1
+ 20.052509 2 1 tcp 1064 ------- 1 2.1 1.2 1 2
- 20.052509 2 1 tcp 1064 ------- 1 2.1 1.2 1 2
r 20.108184 2 1 tcp 1064 ------- 1 2.1 1.2 1 2
+ 20.108184 1 0 tcp 1064 ------- 0 1.1 0.1 1 3
- 20.108184 1 0 tcp 1064 ------- 0 1.1 0.1 1 3
r 20.111035 1 0 tcp 1064 ------- 0 1.1 0.1 1 3
v 22.967215159999999 eval {set sim_annotation {S 2 INV _o104:0}}
+ 33.914706 0 1 tcp 83 ------- 0 0.1 1.1 2 4
- 33.914706 0 1 tcp 83 ------- 0 0.1 1.1 2 4
r 33.916772 0 1 tcp 83 ------- 0 0.1 1.1 2 4
+ 33.916772 1 2 tcp 90 ------- 1 1.2 2.1 2 5
- 33.916772 1 2 tcp 90 ------- 1 1.2 2.1 2 5
r 33.967252 1 2 tcp 90 ------- 1 1.2 2.1 2 5
+ 33.967252 2 1 tcp 1064 ------- 1 2.1 1.2 2 6
- 33.967252 2 1 tcp 1064 ------- 1 2.1 1.2 2 6
r 34.022927 2 1 tcp 1064 ------- 1 2.1 1.2 2 6
+ 34.022927 1 0 tcp 1064 ------- 0 1.1 0.1 2 7
- 34.022927 1 0 tcp 1064 ------- 0 1.1 0.1 2 7
r 34.025778 1 0 tcp 1064 ------- 0 1.1 0.1 2 7
v 37.520156800000002 eval {set sim_annotation {S 2 INV _o104:0}}
+ 48.467646 0 1 tcp 83 ------- 0 0.1 1.1 3 8
- 48.467646 0 1 tcp 83 ------- 0 0.1 1.1 3 8
r 48.469712 0 1 tcp 83 ------- 0 0.1 1.1 3 8
+ 48.469712 1 2 tcp 90 ------- 1 1.2 2.1 3 9
- 48.469712 1 2 tcp 90 ------- 1 1.2 2.1 3 9
r 48.520192 1 2 tcp 90 ------- 1 1.2 2.1 3 9
+ 48.520192 2 1 tcp 1064 ------- 1 2.1 1.2 3 10
- 48.520192 2 1 tcp 1064 ------- 1 2.1 1.2 3 10
r 48.575867 2 1 tcp 1064 ------- 1 2.1 1.2 3 10
+ 48.575867 1 0 tcp 1064 ------- 0 1.1 0.1 3 11
- 48.575867 1 0 tcp 1064 ------- 0 1.1 0.1 3 11
r 48.578718 1 0 tcp 1064 ------- 0 1.1 0.1 3 11
v 72.937139419999994 eval {set sim_annotation {S 2 INV _o104:0}}
+ 83.884626 0 1 tcp 83 ------- 0 0.1 1.1 4 12
- 83.884626 0 1 tcp 83 ------- 0 0.1 1.1 4 12
r 83.886692 0 1 tcp 83 ------- 0 0.1 1.1 4 12
+ 83.886692 1 2 tcp 90 ------- 1 1.2 2.1 4 13
- 83.886692 1 2 tcp 90 ------- 1 1.2 2.1 4 13
r 83.937172 1 2 tcp 90 ------- 1 1.2 2.1 4 13
+ 83.937172 2 1 tcp 1064 ------- 1 2.1 1.2 4 14
- 83.937172 2 1 tcp 1064 ------- 1 2.1 1.2 4 14
r 83.992847 2 1 tcp 1064 ------- 1 2.1 1.2 4 14
+ 83.992847 1 0 tcp 1064 ------- 0 1.1 0.1 4 15
- 83.992847 1 0 tcp 1064 ------- 0 1.1 0.1 4 15
r 83.995698 1 0 tcp 1064 ------- 0 1.1 0.1 4 15
v 296.17870099999999 eval {set sim_annotation {S 2 INV _o104:0}}
+ 307.126226 0 1 tcp 83 ------- 0 0.1 1.1 5 16
- 307.126226 0 1 tcp 83 ------- 0 0.1 1.1 5 16
r 307.128292 0 1 tcp 83 ------- 0 0.1 1.1 5 16
+ 307.128292 1 2 tcp 90 ------- 1 1.2 2.1 5 17
- 307.128292 1 2 tcp 90 ------- 1 1.2 2.1 5 17
r 307.178772 1 2 tcp 90 ------- 1 1.2 2.1 5 17
+ 307.178772 2 1 tcp 1064 ------- 1 2.1 1.2 5 18
- 307.178772 2 1 tcp 1064 ------- 1 2.1 1.2 5 18
r 307.234447 2 1 tcp 1064 ------- 1 2.1 1.2 5 18
+ 307.234447 1 0 tcp 1064 ------- 0 1.1 0.1 5 19
- 307.234447 1 0 tcp 1064 ------- 0 1.1 0.1 5 19
r 307.237298 1 0 tcp 1064 ------- 0 1.1 0.1 5 19
v 320.91195979999998 eval {set sim_annotation {S 2 INV _o104:0}}
+ 331.859486 0 1 tcp 83 ------- 0 0.1 1.1 6 20
- 331.859486 0 1 tcp 83 ------- 0 0.1 1.1 6 20
r 331.861552 0 1 tcp 83 ------- 0 0.1 1.1 6 20
+ 331.861552 1 2 tcp 90 ------- 1 1.2 2.1 6 21
- 331.861552 1 2 tcp 90 ------- 1 1.2 2.1 6 21
r 331.912032 1 2 tcp 90 ------- 1 1.2 2.1 6 21
+ 331.912032 2 1 tcp 1064 ------- 1 2.1 1.2 6 22
- 331.912032 2 1 tcp 1064 ------- 1 2.1 1.2 6 22
r 331.967707 2 1 tcp 1064 ------- 1 2.1 1.2 6 22
+ 331.967707 1 0 tcp 1064 ------- 0 1.1 0.1 6 23
- 331.967707 1 0 tcp 1064 ------- 0 1.1 0.1 6 23
r 331.970558 1 0 tcp 1064 ------- 0 1.1 0.1 6 23
v 430.46197110000003 eval {set sim_annotation {S 2 INV _o104:0}}
+ 441.409486 0 1 tcp 83 ------- 0 0.1 1.1 7 24
- 441.409486 0 1 tcp 83 ------- 0 0.1 1.1 7 24
r 441.411552 0 1 tcp 83 ------- 0 0.1 1.1 7 24
+ 441.411552 1 2 tcp 90 ------- 1 1.2 2.1 7 25
- 441.411552 1 2 tcp 90 ------- 1 1.2 2.1 7 25
r 441.462032 1 2 tcp 90 ------- 1 1.2 2.1 7 25
+ 441.462032 2 1 tcp 1064 ------- 1 2.1 1.2 7 26
- 441.462032 2 1 tcp 1064 ------- 1 2.1 1.2 7 26
r 441.517707 2 1 tcp 1064 ------- 1 2.1 1.2 7 26
+ 441.517707 1 0 tcp 1064 ------- 0 1.1 0.1 7 27
- 441.517707 1 0 tcp 1064 ------- 0 1.1 0.1 7 27
r 441.520558 1 0 tcp 1064 ------- 0 1.1 0.1 7 27
v 464.0976015 eval {set sim_annotation {S 2 INV _o104:0}}
+ 475.045116 0 1 tcp 83 ------- 0 0.1 1.1 8 28
- 475.045116 0 1 tcp 83 ------- 0 0.1 1.1 8 28
r 475.047182 0 1 tcp 83 ------- 0 0.1 1.1 8 28
+ 475.047182 1 2 tcp 90 ------- 1 1.2 2.1 8 29
- 475.047182 1 2 tcp 90 ------- 1 1.2 2.1 8 29
r 475.097662 1 2 tcp 90 ------- 1 1.2 2.1 8 29
+ 475.097662 2 1 tcp 1064 ------- 1 2.1 1.2 8 30
- 475.097662 2 1 tcp 1064 ------- 1 2.1 1.2 8 30
r 475.153337 2 1 tcp 1064 ------- 1 2.1 1.2 8 30
+ 475.153337 1 0 tcp 1064 ------- 0 1.1 0.1 8 31
- 475.153337 1 0 tcp 1064 ------- 0 1.1 0.1 8 31
r 475.156188 1 0 tcp 1064 ------- 0 1.1 0.1 8 31
