# TESTNAME: cache0f-ottl
# TOPOLOGY: cache0
# avg-comp-page-age: 40000
# avg-page-age: 60
# avg-page-size: 1024
# avg-req-interval: 60
# client-req-size: 43
# comp-page-size: 51200
# duration: 500
# enable-log: 0
# hb-interval: 30
# max-page-age: 70
# max-page-size: 50000
# max-req-interval: 70
# min-page-age: 50
# min-page-size: 100
# min-req-interval: 50
# nam-trace-all: 1
# ns-random-seed: 188312339
# num-2nd-cache: 5
# num-comp-pages: 1
# prot: cache0f-ottl
# scheduler-type: Calendar
# single-page: 1
# ttl: 0.1
# upd-interval: 5
# xtrace-page: webtrace-pglog
# xtrace-req: webtrace-reqlog
+ 20 0 1 tcp 40 ------- 0 0.1 1.1 0 0
- 20 0 1 tcp 40 ------- 0 0.1 1.1 0 0
r 20.002032 0 1 tcp 40 ------- 0 0.1 1.1 0 0
+ 20.002032 1 0 ack 40 ------- 0 1.1 0.1 0 1
- 20.002032 1 0 ack 40 ------- 0 1.1 0.1 0 1
r 20.004064 1 0 ack 40 ------- 0 1.1 0.1 0 1
+ 20.004064 0 1 tcp 40 ------- 0 0.1 1.1 1 2
- 20.004064 0 1 tcp 40 ------- 0 0.1 1.1 1 2
+ 20.004064 0 1 tcp 83 ------- 0 0.1 1.1 1 3
- 20.004096 0 1 tcp 83 ------- 0 0.1 1.1 1 3
r 20.006096 0 1 tcp 40 ------- 0 0.1 1.1 1 2
r 20.006162 0 1 tcp 83 ------- 0 0.1 1.1 1 3
+ 20.006162 1 2 tcp 40 ------- 1 1.2 2.1 0 4
- 20.006162 1 2 tcp 40 ------- 1 1.2 2.1 0 4
r 20.056376 1 2 tcp 40 ------- 1 1.2 2.1 0 4
+ 20.056376 2 1 ack 40 ------- 1 2.1 1.2 0 5
- 20.056376 2 1 ack 40 ------- 1 2.1 1.2 0 5
+ 20.1 1 0 ack 40 ------- 0 1.1 0.1 1 6
- 20.1 1 0 ack 40 ------- 0 1.1 0.1 1 6
r 20.102032 1 0 ack 40 ------- 0 1.1 0.1 1 6
r 20.106589 2 1 ack 40 ------- 1 2.1 1.2 0 5
+ 20.106589 1 2 tcp 40 ------- 1 1.2 2.1 1 7
- 20.106589 1 2 tcp 40 ------- 1 1.2 2.1 1 7
+ 20.106589 1 2 tcp 83 ------- 1 1.2 2.1 1 8
- 20.106802 1 2 tcp 83 ------- 1 1.2 2.1 1 8
r 20.156802 1 2 tcp 40 ------- 1 1.2 2.1 1 7
r 20.157245 1 2 tcp 83 ------- 1 1.2 2.1 1 8
+ 20.157245 2 1 ack 576 ------- 1 2.1 1.2 1 9
- 20.157245 2 1 ack 576 ------- 1 2.1 1.2 1 9
r 20.210317 2 1 ack 576 ------- 1 2.1 1.2 1 9
+ 20.210317 1 2 tcp 40 ------- 1 1.2 2.1 44 10
- 20.210317 1 2 tcp 40 ------- 1 1.2 2.1 44 10
r 20.26053 1 2 tcp 40 ------- 1 1.2 2.1 44 10
+ 20.26053 2 1 ack 528 ------- 1 2.1 1.2 537 11
- 20.26053 2 1 ack 528 ------- 1 2.1 1.2 537 11
r 20.313346 2 1 ack 528 ------- 1 2.1 1.2 537 11
+ 20.313346 1 0 ack 576 ------- 0 1.1 0.1 1 12
- 20.313346 1 0 ack 576 ------- 0 1.1 0.1 1 12
r 20.315807 1 0 ack 576 ------- 0 1.1 0.1 1 12
+ 20.315807 0 1 tcp 40 ------- 0 0.1 1.1 44 13
- 20.315807 0 1 tcp 40 ------- 0 0.1 1.1 44 13
r 20.317839 0 1 tcp 40 ------- 0 0.1 1.1 44 13
+ 20.317839 1 0 ack 528 ------- 0 1.1 0.1 537 14
- 20.317839 1 0 ack 528 ------- 0 1.1 0.1 537 14
r 20.320262 1 0 ack 528 ------- 0 1.1 0.1 537 14
+ 20.4 0 1 tcp 40 ------- 0 0.1 1.1 44 15
- 20.4 0 1 tcp 40 ------- 0 0.1 1.1 44 15
+ 20.4 1 2 tcp 40 ------- 1 1.2 2.1 44 16
- 20.4 1 2 tcp 40 ------- 1 1.2 2.1 44 16
r 20.402032 0 1 tcp 40 ------- 0 0.1 1.1 44 15
r 20.450213 1 2 tcp 40 ------- 1 1.2 2.1 44 16
v 23.071951160000001 eval {set sim_annotation {S 2 INV _o104:0}}
+ 33.914706 0 1 tcp 83 ---A--- 0 0.1 1.1 44 17
- 33.914706 0 1 tcp 83 ---A--- 0 0.1 1.1 44 17
r 33.916772 0 1 tcp 83 ---A--- 0 0.1 1.1 44 17
+ 33.916772 1 2 tcp 90 ---A--- 1 1.2 2.1 44 18
- 33.916772 1 2 tcp 90 ---A--- 1 1.2 2.1 44 18
r 33.967252 1 2 tcp 90 ---A--- 1 1.2 2.1 44 18
+ 33.967252 2 1 ack 576 ---A--- 1 2.1 1.2 1025 19
- 33.967252 2 1 ack 576 ---A--- 1 2.1 1.2 1025 19
+ 34 1 0 ack 40 ------- 0 1.1 0.1 1025 20
- 34 1 0 ack 40 ------- 0 1.1 0.1 1025 20
r 34.002032 1 0 ack 40 ------- 0 1.1 0.1 1025 20
r 34.020324 2 1 ack 576 ---A--- 1 2.1 1.2 1025 19
+ 34.020324 1 2 tcp 40 ------- 1 1.2 2.1 94 21
- 34.020324 1 2 tcp 40 ------- 1 1.2 2.1 94 21
r 34.070538 1 2 tcp 40 ------- 1 1.2 2.1 94 21
+ 34.070538 2 1 ack 528 ------- 1 2.1 1.2 1561 22
- 34.070538 2 1 ack 528 ------- 1 2.1 1.2 1561 22
r 34.123354 2 1 ack 528 ------- 1 2.1 1.2 1561 22
+ 34.123354 1 0 ack 576 ---A--- 0 1.1 0.1 1025 23
- 34.123354 1 0 ack 576 ---A--- 0 1.1 0.1 1025 23
r 34.125815 1 0 ack 576 ---A--- 0 1.1 0.1 1025 23
+ 34.125815 0 1 tcp 40 ------- 0 0.1 1.1 87 24
- 34.125815 0 1 tcp 40 ------- 0 0.1 1.1 87 24
r 34.127847 0 1 tcp 40 ------- 0 0.1 1.1 87 24
+ 34.127847 1 0 ack 528 ------- 0 1.1 0.1 1561 25
- 34.127847 1 0 ack 528 ------- 0 1.1 0.1 1561 25
r 34.130269 1 0 ack 528 ------- 0 1.1 0.1 1561 25
+ 34.2 0 1 tcp 40 ------- 0 0.1 1.1 87 26
- 34.2 0 1 tcp 40 ------- 0 0.1 1.1 87 26
+ 34.2 1 2 tcp 40 ------- 1 1.2 2.1 94 27
- 34.2 1 2 tcp 40 ------- 1 1.2 2.1 94 27
r 34.202032 0 1 tcp 40 ------- 0 0.1 1.1 87 26
r 34.250213 1 2 tcp 40 ------- 1 1.2 2.1 94 27
v 37.624892799999998 eval {set sim_annotation {S 2 INV _o104:0}}
+ 48.467646 0 1 tcp 83 ---A--- 0 0.1 1.1 87 28
- 48.467646 0 1 tcp 83 ---A--- 0 0.1 1.1 87 28
r 48.469712 0 1 tcp 83 ---A--- 0 0.1 1.1 87 28
+ 48.469712 1 2 tcp 90 ---A--- 1 1.2 2.1 94 29
- 48.469712 1 2 tcp 90 ---A--- 1 1.2 2.1 94 29
+ 48.5 1 0 ack 40 ------- 0 1.1 0.1 2049 30
- 48.5 1 0 ack 40 ------- 0 1.1 0.1 2049 30
r 48.502032 1 0 ack 40 ------- 0 1.1 0.1 2049 30
r 48.520192 1 2 tcp 90 ---A--- 1 1.2 2.1 94 29
+ 48.520192 2 1 ack 576 ---A--- 1 2.1 1.2 2049 31
- 48.520192 2 1 ack 576 ---A--- 1 2.1 1.2 2049 31
r 48.573264 2 1 ack 576 ---A--- 1 2.1 1.2 2049 31
+ 48.573264 1 2 tcp 40 ------- 1 1.2 2.1 144 32
- 48.573264 1 2 tcp 40 ------- 1 1.2 2.1 144 32
r 48.623478 1 2 tcp 40 ------- 1 1.2 2.1 144 32
+ 48.623478 2 1 ack 528 ------- 1 2.1 1.2 2585 33
- 48.623478 2 1 ack 528 ------- 1 2.1 1.2 2585 33
r 48.676294 2 1 ack 528 ------- 1 2.1 1.2 2585 33
+ 48.676294 1 0 ack 576 ---A--- 0 1.1 0.1 2049 34
- 48.676294 1 0 ack 576 ---A--- 0 1.1 0.1 2049 34
r 48.678755 1 0 ack 576 ---A--- 0 1.1 0.1 2049 34
+ 48.678755 0 1 tcp 40 ------- 0 0.1 1.1 130 35
- 48.678755 0 1 tcp 40 ------- 0 0.1 1.1 130 35
r 48.680787 0 1 tcp 40 ------- 0 0.1 1.1 130 35
+ 48.680787 1 0 ack 528 ------- 0 1.1 0.1 2585 36
- 48.680787 1 0 ack 528 ------- 0 1.1 0.1 2585 36
r 48.683209 1 0 ack 528 ------- 0 1.1 0.1 2585 36
+ 48.7 0 1 tcp 40 ------- 0 0.1 1.1 130 37
- 48.7 0 1 tcp 40 ------- 0 0.1 1.1 130 37
+ 48.7 1 2 tcp 40 ------- 1 1.2 2.1 144 38
- 48.7 1 2 tcp 40 ------- 1 1.2 2.1 144 38
r 48.702032 0 1 tcp 40 ------- 0 0.1 1.1 130 37
r 48.750213 1 2 tcp 40 ------- 1 1.2 2.1 144 38
v 73.041875419999997 eval {set sim_annotation {S 2 INV _o104:0}}
+ 83.884626 0 1 tcp 83 ---A--- 0 0.1 1.1 130 39
- 83.884626 0 1 tcp 83 ---A--- 0 0.1 1.1 130 39
r 83.886692 0 1 tcp 83 ---A--- 0 0.1 1.1 130 39
+ 83.886692 1 2 tcp 90 ---A--- 1 1.2 2.1 144 40
- 83.886692 1 2 tcp 90 ---A--- 1 1.2 2.1 144 40
+ 83.9 1 0 ack 40 ------- 0 1.1 0.1 3073 41
- 83.9 1 0 ack 40 ------- 0 1.1 0.1 3073 41
r 83.902032 1 0 ack 40 ------- 0 1.1 0.1 3073 41
r 83.937172 1 2 tcp 90 ---A--- 1 1.2 2.1 144 40
+ 83.937172 2 1 ack 576 ---A--- 1 2.1 1.2 3073 42
- 83.937172 2 1 ack 576 ---A--- 1 2.1 1.2 3073 42
r 83.990244 2 1 ack 576 ---A--- 1 2.1 1.2 3073 42
+ 83.990244 1 2 tcp 40 ------- 1 1.2 2.1 194 43
- 83.990244 1 2 tcp 40 ------- 1 1.2 2.1 194 43
r 84.040458 1 2 tcp 40 ------- 1 1.2 2.1 194 43
+ 84.040458 2 1 ack 528 ------- 1 2.1 1.2 3609 44
- 84.040458 2 1 ack 528 ------- 1 2.1 1.2 3609 44
r 84.093274 2 1 ack 528 ------- 1 2.1 1.2 3609 44
+ 84.093274 1 0 ack 576 ---A--- 0 1.1 0.1 3073 45
- 84.093274 1 0 ack 576 ---A--- 0 1.1 0.1 3073 45
r 84.095735 1 0 ack 576 ---A--- 0 1.1 0.1 3073 45
+ 84.095735 0 1 tcp 40 ------- 0 0.1 1.1 173 46
- 84.095735 0 1 tcp 40 ------- 0 0.1 1.1 173 46
r 84.097767 0 1 tcp 40 ------- 0 0.1 1.1 173 46
+ 84.097767 1 0 ack 528 ------- 0 1.1 0.1 3609 47
- 84.097767 1 0 ack 528 ------- 0 1.1 0.1 3609 47
+ 84.1 1 2 tcp 40 ------- 1 1.2 2.1 194 48
- 84.1 1 2 tcp 40 ------- 1 1.2 2.1 194 48
r 84.100189 1 0 ack 528 ------- 0 1.1 0.1 3609 47
r 84.150213 1 2 tcp 40 ------- 1 1.2 2.1 194 48
+ 84.2 0 1 tcp 40 ------- 0 0.1 1.1 173 49
- 84.2 0 1 tcp 40 ------- 0 0.1 1.1 173 49
r 84.202032 0 1 tcp 40 ------- 0 0.1 1.1 173 49
v 296.28343699999999 eval {set sim_annotation {S 2 INV _o104:0}}
+ 307.126226 0 1 tcp 83 ---A--- 0 0.1 1.1 173 50
- 307.126226 0 1 tcp 83 ---A--- 0 0.1 1.1 173 50
r 307.128292 0 1 tcp 83 ---A--- 0 0.1 1.1 173 50
+ 307.128292 1 2 tcp 90 ---A--- 1 1.2 2.1 194 51
- 307.128292 1 2 tcp 90 ---A--- 1 1.2 2.1 194 51
r 307.178772 1 2 tcp 90 ---A--- 1 1.2 2.1 194 51
+ 307.178772 2 1 ack 576 ---A--- 1 2.1 1.2 4097 52
- 307.178772 2 1 ack 576 ---A--- 1 2.1 1.2 4097 52
+ 307.2 1 0 ack 40 ------- 0 1.1 0.1 4097 53
- 307.2 1 0 ack 40 ------- 0 1.1 0.1 4097 53
r 307.202032 1 0 ack 40 ------- 0 1.1 0.1 4097 53
r 307.231844 2 1 ack 576 ---A--- 1 2.1 1.2 4097 52
+ 307.231844 1 2 tcp 40 ------- 1 1.2 2.1 244 54
- 307.231844 1 2 tcp 40 ------- 1 1.2 2.1 244 54
r 307.282058 1 2 tcp 40 ------- 1 1.2 2.1 244 54
+ 307.282058 2 1 ack 528 ------- 1 2.1 1.2 4633 55
- 307.282058 2 1 ack 528 ------- 1 2.1 1.2 4633 55
r 307.334874 2 1 ack 528 ------- 1 2.1 1.2 4633 55
+ 307.334874 1 0 ack 576 ---A--- 0 1.1 0.1 4097 56
- 307.334874 1 0 ack 576 ---A--- 0 1.1 0.1 4097 56
r 307.337335 1 0 ack 576 ---A--- 0 1.1 0.1 4097 56
+ 307.337335 0 1 tcp 40 ------- 0 0.1 1.1 216 57
- 307.337335 0 1 tcp 40 ------- 0 0.1 1.1 216 57
r 307.339367 0 1 tcp 40 ------- 0 0.1 1.1 216 57
+ 307.339367 1 0 ack 528 ------- 0 1.1 0.1 4633 58
- 307.339367 1 0 ack 528 ------- 0 1.1 0.1 4633 58
r 307.341789 1 0 ack 528 ------- 0 1.1 0.1 4633 58
+ 307.4 0 1 tcp 40 ------- 0 0.1 1.1 216 59
- 307.4 0 1 tcp 40 ------- 0 0.1 1.1 216 59
+ 307.4 1 2 tcp 40 ------- 1 1.2 2.1 244 60
- 307.4 1 2 tcp 40 ------- 1 1.2 2.1 244 60
r 307.402032 0 1 tcp 40 ------- 0 0.1 1.1 216 59
r 307.450213 1 2 tcp 40 ------- 1 1.2 2.1 244 60
v 321.01669579999998 eval {set sim_annotation {S 2 INV _o104:0}}
+ 331.859486 0 1 tcp 83 ---A--- 0 0.1 1.1 216 61
- 331.859486 0 1 tcp 83 ---A--- 0 0.1 1.1 216 61
r 331.861552 0 1 tcp 83 ---A--- 0 0.1 1.1 216 61
+ 331.861552 1 2 tcp 90 ---A--- 1 1.2 2.1 244 62
- 331.861552 1 2 tcp 90 ---A--- 1 1.2 2.1 244 62
+ 331.9 1 0 ack 40 ------- 0 1.1 0.1 5121 63
- 331.9 1 0 ack 40 ------- 0 1.1 0.1 5121 63
r 331.902032 1 0 ack 40 ------- 0 1.1 0.1 5121 63
r 331.912032 1 2 tcp 90 ---A--- 1 1.2 2.1 244 62
+ 331.912032 2 1 ack 576 ---A--- 1 2.1 1.2 5121 64
- 331.912032 2 1 ack 576 ---A--- 1 2.1 1.2 5121 64
r 331.965104 2 1 ack 576 ---A--- 1 2.1 1.2 5121 64
+ 331.965104 1 2 tcp 40 ------- 1 1.2 2.1 294 65
- 331.965104 1 2 tcp 40 ------- 1 1.2 2.1 294 65
r 332.015318 1 2 tcp 40 ------- 1 1.2 2.1 294 65
+ 332.015318 2 1 ack 528 ------- 1 2.1 1.2 5657 66
- 332.015318 2 1 ack 528 ------- 1 2.1 1.2 5657 66
r 332.068134 2 1 ack 528 ------- 1 2.1 1.2 5657 66
+ 332.068134 1 0 ack 576 ---A--- 0 1.1 0.1 5121 67
- 332.068134 1 0 ack 576 ---A--- 0 1.1 0.1 5121 67
r 332.070595 1 0 ack 576 ---A--- 0 1.1 0.1 5121 67
+ 332.070595 0 1 tcp 40 ------- 0 0.1 1.1 259 68
- 332.070595 0 1 tcp 40 ------- 0 0.1 1.1 259 68
r 332.072627 0 1 tcp 40 ------- 0 0.1 1.1 259 68
+ 332.072627 1 0 ack 528 ------- 0 1.1 0.1 5657 69
- 332.072627 1 0 ack 528 ------- 0 1.1 0.1 5657 69
r 332.075049 1 0 ack 528 ------- 0 1.1 0.1 5657 69
+ 332.1 0 1 tcp 40 ------- 0 0.1 1.1 259 70
- 332.1 0 1 tcp 40 ------- 0 0.1 1.1 259 70
+ 332.1 1 2 tcp 40 ------- 1 1.2 2.1 294 71
- 332.1 1 2 tcp 40 ------- 1 1.2 2.1 294 71
r 332.102032 0 1 tcp 40 ------- 0 0.1 1.1 259 70
r 332.150213 1 2 tcp 40 ------- 1 1.2 2.1 294 71
v 430.56670709999997 eval {set sim_annotation {S 2 INV _o104:0}}
+ 441.409486 0 1 tcp 83 ---A--- 0 0.1 1.1 259 72
- 441.409486 0 1 tcp 83 ---A--- 0 0.1 1.1 259 72
r 441.411552 0 1 tcp 83 ---A--- 0 0.1 1.1 259 72
+ 441.411552 1 2 tcp 90 ---A--- 1 1.2 2.1 294 73
- 441.411552 1 2 tcp 90 ---A--- 1 1.2 2.1 294 73
r 441.462032 1 2 tcp 90 ---A--- 1 1.2 2.1 294 73
+ 441.462032 2 1 ack 576 ---A--- 1 2.1 1.2 6145 74
- 441.462032 2 1 ack 576 ---A--- 1 2.1 1.2 6145 74
+ 441.5 1 0 ack 40 ------- 0 1.1 0.1 6145 75
- 441.5 1 0 ack 40 ------- 0 1.1 0.1 6145 75
r 441.502032 1 0 ack 40 ------- 0 1.1 0.1 6145 75
r 441.515104 2 1 ack 576 ---A--- 1 2.1 1.2 6145 74
+ 441.515104 1 2 tcp 40 ------- 1 1.2 2.1 344 76
- 441.515104 1 2 tcp 40 ------- 1 1.2 2.1 344 76
r 441.565318 1 2 tcp 40 ------- 1 1.2 2.1 344 76
+ 441.565318 2 1 ack 528 ------- 1 2.1 1.2 6681 77
- 441.565318 2 1 ack 528 ------- 1 2.1 1.2 6681 77
r 441.618134 2 1 ack 528 ------- 1 2.1 1.2 6681 77
+ 441.618134 1 0 ack 576 ---A--- 0 1.1 0.1 6145 78
- 441.618134 1 0 ack 576 ---A--- 0 1.1 0.1 6145 78
r 441.620595 1 0 ack 576 ---A--- 0 1.1 0.1 6145 78
+ 441.620595 0 1 tcp 40 ------- 0 0.1 1.1 302 79
- 441.620595 0 1 tcp 40 ------- 0 0.1 1.1 302 79
r 441.622627 0 1 tcp 40 ------- 0 0.1 1.1 302 79
+ 441.622627 1 0 ack 528 ------- 0 1.1 0.1 6681 80
- 441.622627 1 0 ack 528 ------- 0 1.1 0.1 6681 80
r 441.625049 1 0 ack 528 ------- 0 1.1 0.1 6681 80
+ 441.7 0 1 tcp 40 ------- 0 0.1 1.1 302 81
- 441.7 0 1 tcp 40 ------- 0 0.1 1.1 302 81
+ 441.7 1 2 tcp 40 ------- 1 1.2 2.1 344 82
- 441.7 1 2 tcp 40 ------- 1 1.2 2.1 344 82
r 441.702032 0 1 tcp 40 ------- 0 0.1 1.1 302 81
r 441.750213 1 2 tcp 40 ------- 1 1.2 2.1 344 82
v 464.2023375 eval {set sim_annotation {S 2 INV _o104:0}}
+ 475.045116 0 1 tcp 83 ---A--- 0 0.1 1.1 302 83
- 475.045116 0 1 tcp 83 ---A--- 0 0.1 1.1 302 83
r 475.047182 0 1 tcp 83 ---A--- 0 0.1 1.1 302 83
+ 475.047182 1 2 tcp 90 ---A--- 1 1.2 2.1 344 84
- 475.047182 1 2 tcp 90 ---A--- 1 1.2 2.1 344 84
r 475.097662 1 2 tcp 90 ---A--- 1 1.2 2.1 344 84
+ 475.097662 2 1 ack 576 ---A--- 1 2.1 1.2 7169 85
- 475.097662 2 1 ack 576 ---A--- 1 2.1 1.2 7169 85
+ 475.1 1 0 ack 40 ------- 0 1.1 0.1 7169 86
- 475.1 1 0 ack 40 ------- 0 1.1 0.1 7169 86
r 475.102032 1 0 ack 40 ------- 0 1.1 0.1 7169 86
r 475.150734 2 1 ack 576 ---A--- 1 2.1 1.2 7169 85
+ 475.150734 1 2 tcp 40 ------- 1 1.2 2.1 394 87
- 475.150734 1 2 tcp 40 ------- 1 1.2 2.1 394 87
r 475.200948 1 2 tcp 40 ------- 1 1.2 2.1 394 87
+ 475.200948 2 1 ack 528 ------- 1 2.1 1.2 7705 88
- 475.200948 2 1 ack 528 ------- 1 2.1 1.2 7705 88
r 475.253764 2 1 ack 528 ------- 1 2.1 1.2 7705 88
+ 475.253764 1 0 ack 576 ---A--- 0 1.1 0.1 7169 89
- 475.253764 1 0 ack 576 ---A--- 0 1.1 0.1 7169 89
r 475.256225 1 0 ack 576 ---A--- 0 1.1 0.1 7169 89
+ 475.256225 0 1 tcp 40 ------- 0 0.1 1.1 345 90
- 475.256225 0 1 tcp 40 ------- 0 0.1 1.1 345 90
r 475.258257 0 1 tcp 40 ------- 0 0.1 1.1 345 90
+ 475.258257 1 0 ack 528 ------- 0 1.1 0.1 7705 91
- 475.258257 1 0 ack 528 ------- 0 1.1 0.1 7705 91
r 475.260679 1 0 ack 528 ------- 0 1.1 0.1 7705 91
+ 475.3 0 1 tcp 40 ------- 0 0.1 1.1 345 92
- 475.3 0 1 tcp 40 ------- 0 0.1 1.1 345 92
+ 475.3 1 2 tcp 40 ------- 1 1.2 2.1 394 93
- 475.3 1 2 tcp 40 ------- 1 1.2 2.1 394 93
r 475.302032 0 1 tcp 40 ------- 0 0.1 1.1 345 92
r 475.350213 1 2 tcp 40 ------- 1 1.2 2.1 394 93
