# TESTNAME: cache0-inv
# TOPOLOGY: cache0
# avg-comp-page-age: 40000
# avg-page-age: 60
# avg-page-size: 1024
# avg-req-interval: 60
# client-req-size: 43
# comp-page-size: 51200
# duration: 500
# enable-log: 0
# hb-interval: 30
# max-page-age: 70
# max-page-size: 50000
# max-req-interval: 70
# min-page-age: 50
# min-page-size: 100
# min-req-interval: 50
# nam-trace-all: 1
# ns-random-seed: 188312339
# num-2nd-cache: 5
# num-comp-pages: 1
# prot: cache0-inv
# scheduler-type: Calendar
# single-page: 1
# ttl: 0.1
# upd-interval: 5
# xtrace-page: webtrace-pglog
# xtrace-req: webtrace-reqlog
+ 10 2 1 tcp 50 ------- 1 2.1 1.2 1 0
- 10 2 1 tcp 50 ------- 1 2.1 1.2 1 0
r 10.050267 2 1 tcp 50 ------- 1 2.1 1.2 1 0
+ 20 0 1 tcp 83 ------- 0 0.1 1.1 1 1
- 20 0 1 tcp 83 ------- 0 0.1 1.1 1 1
r 20.002066 0 1 tcp 83 ------- 0 0.1 1.1 1 1
+ 20.002066 1 2 tcp 83 ------- 1 1.2 2.1 1 2
- 20.002066 1 2 tcp 83 ------- 1 1.2 2.1 1 2
r 20.052509 1 2 tcp 83 ------- 1 1.2 2.1 1 2
+ 20.052509 2 1 tcp 1064 ------- 1 2.1 1.2 2 3
- 20.052509 2 1 tcp 1064 ------- 1 2.1 1.2 2 3
r 20.108184 2 1 tcp 1064 ------- 1 2.1 1.2 2 3
+ 20.108184 1 0 tcp 1064 ------- 0 1.1 0.1 1 4
- 20.108184 1 0 tcp 1064 ------- 0 1.1 0.1 1 4
r 20.111035 1 0 tcp 1064 ------- 0 1.1 0.1 1 4
v 22.967215159999999 eval {set sim_annotation {S 2 INV _o104:0}}
+ 33.914706 0 1 tcp 83 ------- 0 0.1 1.1 2 5
- 33.914706 0 1 tcp 83 ------- 0 0.1 1.1 2 5
r 33.916772 0 1 tcp 83 ------- 0 0.1 1.1 2 5
+ 33.916772 1 0 tcp 1064 ------- 0 1.1 0.1 2 6
- 33.916772 1 0 tcp 1064 ------- 0 1.1 0.1 2 6
r 33.919624 1 0 tcp 1064 ------- 0 1.1 0.1 2 6
v 37.520156800000002 eval {set sim_annotation {S 2 INV _o104:0}}
+ 40.42522 2 1 httpInval 72 ------- 40 2.2 1.3 -1 7
- 40.42522 2 1 httpInval 72 ------- 40 2.2 1.3 -1 7
r 40.475604 2 1 httpInval 72 ------- 40 2.2 1.3 -1 7
+ 48.467646 0 1 tcp 83 ------- 0 0.1 1.1 3 8
- 48.467646 0 1 tcp 83 ------- 0 0.1 1.1 3 8
r 48.469712 0 1 tcp 83 ------- 0 0.1 1.1 3 8
+ 48.469712 1 2 tcp 90 ------- 1 1.2 2.1 2 9
- 48.469712 1 2 tcp 90 ------- 1 1.2 2.1 2 9
r 48.520192 1 2 tcp 90 ------- 1 1.2 2.1 2 9
+ 48.520192 2 1 tcp 1064 ------- 1 2.1 1.2 3 10
- 48.520192 2 1 tcp 1064 ------- 1 2.1 1.2 3 10
r 48.575867 2 1 tcp 1064 ------- 1 2.1 1.2 3 10
+ 48.575867 1 0 tcp 1064 ------- 0 1.1 0.1 3 11
- 48.575867 1 0 tcp 1064 ------- 0 1.1 0.1 3 11
r 48.578718 1 0 tcp 1064 ------- 0 1.1 0.1 3 11
+ 67.634504 2 1 httpInval 72 ------- 40 2.2 1.3 -1 12
- 67.634504 2 1 httpInval 72 ------- 40 2.2 1.3 -1 12
r 67.684888 2 1 httpInval 72 ------- 40 2.2 1.3 -1 12
v 72.937139419999994 eval {set sim_annotation {S 2 INV _o104:0}}
+ 83.884626 0 1 tcp 83 ------- 0 0.1 1.1 4 13
- 83.884626 0 1 tcp 83 ------- 0 0.1 1.1 4 13
r 83.886692 0 1 tcp 83 ------- 0 0.1 1.1 4 13
+ 83.886692 1 0 tcp 1064 ------- 0 1.1 0.1 4 14
- 83.886692 1 0 tcp 1064 ------- 0 1.1 0.1 4 14
r 83.889544 1 0 tcp 1064 ------- 0 1.1 0.1 4 14
+ 96.111393 2 1 httpInval 72 ------- 40 2.2 1.3 -1 15
- 96.111393 2 1 httpInval 72 ------- 40 2.2 1.3 -1 15
r 96.161777 2 1 httpInval 72 ------- 40 2.2 1.3 -1 15
+ 126.30915 2 1 httpInval 72 ------- 40 2.2 1.3 -1 16
- 126.30915 2 1 httpInval 72 ------- 40 2.2 1.3 -1 16
r 126.359534 2 1 httpInval 72 ------- 40 2.2 1.3 -1 16
+ 157.300838 2 1 httpInval 72 ------- 40 2.2 1.3 -1 17
- 157.300838 2 1 httpInval 72 ------- 40 2.2 1.3 -1 17
r 157.351222 2 1 httpInval 72 ------- 40 2.2 1.3 -1 17
+ 186.642686 2 1 httpInval 72 ------- 40 2.2 1.3 -1 18
- 186.642686 2 1 httpInval 72 ------- 40 2.2 1.3 -1 18
r 186.69307 2 1 httpInval 72 ------- 40 2.2 1.3 -1 18
+ 215.265704 2 1 httpInval 72 ------- 40 2.2 1.3 -1 19
- 215.265704 2 1 httpInval 72 ------- 40 2.2 1.3 -1 19
r 215.316088 2 1 httpInval 72 ------- 40 2.2 1.3 -1 19
+ 246.959824 2 1 httpInval 41 ------- 40 2.2 1.3 -1 20
- 246.959824 2 1 httpInval 41 ------- 40 2.2 1.3 -1 20
r 247.010043 2 1 httpInval 41 ------- 40 2.2 1.3 -1 20
+ 278.336575 2 1 httpInval 41 ------- 40 2.2 1.3 -1 21
- 278.336575 2 1 httpInval 41 ------- 40 2.2 1.3 -1 21
r 278.386793 2 1 httpInval 41 ------- 40 2.2 1.3 -1 21
v 296.17870099999999 eval {set sim_annotation {S 2 INV _o104:0}}
+ 307.126226 0 1 tcp 83 ------- 0 0.1 1.1 5 22
- 307.126226 0 1 tcp 83 ------- 0 0.1 1.1 5 22
r 307.128292 0 1 tcp 83 ------- 0 0.1 1.1 5 22
+ 307.128292 1 2 tcp 90 ------- 1 1.2 2.1 3 23
- 307.128292 1 2 tcp 90 ------- 1 1.2 2.1 3 23
r 307.178772 1 2 tcp 90 ------- 1 1.2 2.1 3 23
+ 307.178772 2 1 tcp 1064 ------- 1 2.1 1.2 4 24
- 307.178772 2 1 tcp 1064 ------- 1 2.1 1.2 4 24
r 307.234447 2 1 tcp 1064 ------- 1 2.1 1.2 4 24
+ 307.234447 1 0 tcp 1064 ------- 0 1.1 0.1 5 25
- 307.234447 1 0 tcp 1064 ------- 0 1.1 0.1 5 25
r 307.237298 1 0 tcp 1064 ------- 0 1.1 0.1 5 25
+ 310.287982 2 1 httpInval 72 ------- 40 2.2 1.3 -1 26
- 310.287982 2 1 httpInval 72 ------- 40 2.2 1.3 -1 26
r 310.338366 2 1 httpInval 72 ------- 40 2.2 1.3 -1 26
v 320.91195979999998 eval {set sim_annotation {S 2 INV _o104:0}}
+ 331.859486 0 1 tcp 83 ------- 0 0.1 1.1 6 27
- 331.859486 0 1 tcp 83 ------- 0 0.1 1.1 6 27
r 331.861552 0 1 tcp 83 ------- 0 0.1 1.1 6 27
+ 331.861552 1 0 tcp 1064 ------- 0 1.1 0.1 6 28
- 331.861552 1 0 tcp 1064 ------- 0 1.1 0.1 6 28
r 331.864404 1 0 tcp 1064 ------- 0 1.1 0.1 6 28
+ 342.065547 2 1 httpInval 72 ------- 40 2.2 1.3 -1 29
- 342.065547 2 1 httpInval 72 ------- 40 2.2 1.3 -1 29
r 342.115931 2 1 httpInval 72 ------- 40 2.2 1.3 -1 29
+ 369.066986 2 1 httpInval 72 ------- 40 2.2 1.3 -1 30
- 369.066986 2 1 httpInval 72 ------- 40 2.2 1.3 -1 30
r 369.11737 2 1 httpInval 72 ------- 40 2.2 1.3 -1 30
+ 399.486639 2 1 httpInval 72 ------- 40 2.2 1.3 -1 31
- 399.486639 2 1 httpInval 72 ------- 40 2.2 1.3 -1 31
r 399.537023 2 1 httpInval 72 ------- 40 2.2 1.3 -1 31
v 430.46197110000003 eval {set sim_annotation {S 2 INV _o104:0}}
+ 430.619787 2 1 httpInval 72 ------- 40 2.2 1.3 -1 32
- 430.619787 2 1 httpInval 72 ------- 40 2.2 1.3 -1 32
r 430.670171 2 1 httpInval 72 ------- 40 2.2 1.3 -1 32
+ 441.409486 0 1 tcp 83 ------- 0 0.1 1.1 7 33
- 441.409486 0 1 tcp 83 ------- 0 0.1 1.1 7 33
r 441.411552 0 1 tcp 83 ------- 0 0.1 1.1 7 33
+ 441.411552 1 2 tcp 90 ------- 1 1.2 2.1 4 34
- 441.411552 1 2 tcp 90 ------- 1 1.2 2.1 4 34
r 441.462032 1 2 tcp 90 ------- 1 1.2 2.1 4 34
+ 441.462032 2 1 tcp 1064 ------- 1 2.1 1.2 5 35
- 441.462032 2 1 tcp 1064 ------- 1 2.1 1.2 5 35
r 441.517707 2 1 tcp 1064 ------- 1 2.1 1.2 5 35
+ 441.517707 1 0 tcp 1064 ------- 0 1.1 0.1 7 36
- 441.517707 1 0 tcp 1064 ------- 0 1.1 0.1 7 36
r 441.520558 1 0 tcp 1064 ------- 0 1.1 0.1 7 36
+ 461.636656 2 1 httpInval 72 ------- 40 2.2 1.3 -1 37
- 461.636656 2 1 httpInval 72 ------- 40 2.2 1.3 -1 37
r 461.68704 2 1 httpInval 72 ------- 40 2.2 1.3 -1 37
v 464.0976015 eval {set sim_annotation {S 2 INV _o104:0}}
+ 475.045116 0 1 tcp 83 ------- 0 0.1 1.1 8 38
- 475.045116 0 1 tcp 83 ------- 0 0.1 1.1 8 38
r 475.047182 0 1 tcp 83 ------- 0 0.1 1.1 8 38
+ 475.047182 1 0 tcp 1064 ------- 0 1.1 0.1 8 39
- 475.047182 1 0 tcp 1064 ------- 0 1.1 0.1 8 39
r 475.050034 1 0 tcp 1064 ------- 0 1.1 0.1 8 39
+ 489.046776 2 1 httpInval 72 ------- 40 2.2 1.3 -1 40
- 489.046776 2 1 httpInval 72 ------- 40 2.2 1.3 -1 40
r 489.09716 2 1 httpInval 72 ------- 40 2.2 1.3 -1 40
