# TESTNAME: cache0f-push
# TOPOLOGY: cache0
# avg-comp-page-age: 40000
# avg-page-age: 60
# avg-page-size: 1024
# avg-req-interval: 60
# client-req-size: 43
# comp-page-size: 51200
# duration: 500
# enable-log: 0
# hb-interval: 30
# max-page-age: 70
# max-page-size: 50000
# max-req-interval: 70
# min-page-age: 50
# min-page-size: 100
# min-req-interval: 50
# nam-trace-all: 1
# ns-random-seed: 188312339
# num-2nd-cache: 5
# num-comp-pages: 1
# prot: cache0f-push
# scheduler-type: Calendar
# single-page: 1
# ttl: 0.1
# upd-interval: 5
# xtrace-page: webtrace-pglog
# xtrace-req: webtrace-reqlog
+ 10 2 1 tcp 40 ------- 1 2.1 1.2 0 0
- 10 2 1 tcp 40 ------- 1 2.1 1.2 0 0
r 10.050213 2 1 tcp 40 ------- 1 2.1 1.2 0 0
+ 10.050213 1 2 ack 40 ------- 1 1.2 2.1 0 1
- 10.050213 1 2 ack 40 ------- 1 1.2 2.1 0 1
r 10.100427 1 2 ack 40 ------- 1 1.2 2.1 0 1
+ 10.100427 2 1 tcp 40 ------- 1 2.1 1.2 1 2
- 10.100427 2 1 tcp 40 ------- 1 2.1 1.2 1 2
+ 10.100427 2 1 tcp 50 ------- 1 2.1 1.2 1 3
- 10.10064 2 1 tcp 50 ------- 1 2.1 1.2 1 3
r 10.15064 2 1 tcp 40 ------- 1 2.1 1.2 1 2
r 10.150907 2 1 tcp 50 ------- 1 2.1 1.2 1 3
+ 10.2 1 2 ack 40 ------- 1 1.2 2.1 1 4
- 10.2 1 2 ack 40 ------- 1 1.2 2.1 1 4
r 10.250213 1 2 ack 40 ------- 1 1.2 2.1 1 4
+ 20 0 1 tcp 40 ------- 0 0.1 1.1 0 5
- 20 0 1 tcp 40 ------- 0 0.1 1.1 0 5
r 20.002032 0 1 tcp 40 ------- 0 0.1 1.1 0 5
+ 20.002032 1 0 ack 40 ------- 0 1.1 0.1 0 6
- 20.002032 1 0 ack 40 ------- 0 1.1 0.1 0 6
r 20.004064 1 0 ack 40 ------- 0 1.1 0.1 0 6
+ 20.004064 0 1 tcp 40 ------- 0 0.1 1.1 1 7
- 20.004064 0 1 tcp 40 ------- 0 0.1 1.1 1 7
+ 20.004064 0 1 tcp 83 ------- 0 0.1 1.1 1 8
- 20.004096 0 1 tcp 83 ------- 0 0.1 1.1 1 8
r 20.006096 0 1 tcp 40 ------- 0 0.1 1.1 1 7
r 20.006162 0 1 tcp 83 ------- 0 0.1 1.1 1 8
+ 20.006162 1 2 ack 83 ------- 1 1.2 2.1 1 9
- 20.006162 1 2 ack 83 ------- 1 1.2 2.1 1 9
r 20.056605 1 2 ack 83 ------- 1 1.2 2.1 1 9
+ 20.056605 2 1 tcp 576 ---A--- 1 2.1 1.2 11 10
- 20.056605 2 1 tcp 576 ---A--- 1 2.1 1.2 11 10
+ 20.1 1 0 ack 40 ------- 0 1.1 0.1 1 11
- 20.1 1 0 ack 40 ------- 0 1.1 0.1 1 11
r 20.102032 1 0 ack 40 ------- 0 1.1 0.1 1 11
r 20.109677 2 1 tcp 576 ---A--- 1 2.1 1.2 11 10
+ 20.109677 1 2 ack 40 ------- 1 1.2 2.1 44 12
- 20.109677 1 2 ack 40 ------- 1 1.2 2.1 44 12
r 20.15989 1 2 ack 40 ------- 1 1.2 2.1 44 12
+ 20.15989 2 1 tcp 528 ------- 1 2.1 1.2 547 13
- 20.15989 2 1 tcp 528 ------- 1 2.1 1.2 547 13
r 20.212706 2 1 tcp 528 ------- 1 2.1 1.2 547 13
+ 20.212706 1 0 ack 576 ------- 0 1.1 0.1 1 14
- 20.212706 1 0 ack 576 ------- 0 1.1 0.1 1 14
r 20.215167 1 0 ack 576 ------- 0 1.1 0.1 1 14
+ 20.215167 0 1 tcp 40 ------- 0 0.1 1.1 44 15
- 20.215167 0 1 tcp 40 ------- 0 0.1 1.1 44 15
r 20.217199 0 1 tcp 40 ------- 0 0.1 1.1 44 15
+ 20.217199 1 0 ack 528 ------- 0 1.1 0.1 537 16
- 20.217199 1 0 ack 528 ------- 0 1.1 0.1 537 16
r 20.219622 1 0 ack 528 ------- 0 1.1 0.1 537 16
+ 20.3 0 1 tcp 40 ------- 0 0.1 1.1 44 17
- 20.3 0 1 tcp 40 ------- 0 0.1 1.1 44 17
+ 20.3 1 2 ack 40 ------- 1 1.2 2.1 44 18
- 20.3 1 2 ack 40 ------- 1 1.2 2.1 44 18
r 20.302032 0 1 tcp 40 ------- 0 0.1 1.1 44 17
r 20.350213 1 2 ack 40 ------- 1 1.2 2.1 44 18
v 22.971311159999999 eval {set sim_annotation {S 2 INV _o104:0}}
+ 33.914706 0 1 tcp 83 ---A--- 0 0.1 1.1 44 19
- 33.914706 0 1 tcp 83 ---A--- 0 0.1 1.1 44 19
r 33.916772 0 1 tcp 83 ---A--- 0 0.1 1.1 44 19
+ 33.916772 1 0 ack 576 ---A--- 0 1.1 0.1 1025 20
- 33.916772 1 0 ack 576 ---A--- 0 1.1 0.1 1025 20
r 33.919233 1 0 ack 576 ---A--- 0 1.1 0.1 1025 20
+ 33.919233 0 1 tcp 40 ------- 0 0.1 1.1 87 21
- 33.919233 0 1 tcp 40 ------- 0 0.1 1.1 87 21
r 33.921265 0 1 tcp 40 ------- 0 0.1 1.1 87 21
+ 33.921265 1 0 ack 528 ------- 0 1.1 0.1 1561 22
- 33.921265 1 0 ack 528 ------- 0 1.1 0.1 1561 22
r 33.923688 1 0 ack 528 ------- 0 1.1 0.1 1561 22
+ 34 0 1 tcp 40 ------- 0 0.1 1.1 87 23
- 34 0 1 tcp 40 ------- 0 0.1 1.1 87 23
r 34.002032 0 1 tcp 40 ------- 0 0.1 1.1 87 23
v 37.524252799999999 eval {set sim_annotation {S 2 INV _o104:0}}
+ 41.694121 2 1 httpInval 40 ------- 40 2.2 1.3 -1 24
- 41.694121 2 1 httpInval 40 ------- 40 2.2 1.3 -1 24
r 41.744334 2 1 httpInval 40 ------- 40 2.2 1.3 -1 24
+ 41.744334 1 2 httpInval 40 ------- 40 1.3 2.2 -1 25
- 41.744334 1 2 httpInval 40 ------- 40 1.3 2.2 -1 25
r 41.794548 1 2 httpInval 40 ------- 40 1.3 2.2 -1 25
+ 41.794548 2 1 httpInval 40 ------- 40 2.2 1.3 -1 26
- 41.794548 2 1 httpInval 40 ------- 40 2.2 1.3 -1 26
+ 41.794548 2 1 httpInval 72 ------- 40 2.2 1.3 -1 27
- 41.794761 2 1 httpInval 72 ------- 40 2.2 1.3 -1 27
r 41.844761 2 1 httpInval 40 ------- 40 2.2 1.3 -1 26
r 41.845145 2 1 httpInval 72 ------- 40 2.2 1.3 -1 27
+ 41.9 1 2 httpInval 40 ------- 40 1.3 2.2 -1 28
- 41.9 1 2 httpInval 40 ------- 40 1.3 2.2 -1 28
r 41.950213 1 2 httpInval 40 ------- 40 1.3 2.2 -1 28
+ 48.467646 0 1 tcp 83 ---A--- 0 0.1 1.1 87 29
- 48.467646 0 1 tcp 83 ---A--- 0 0.1 1.1 87 29
r 48.469712 0 1 tcp 83 ---A--- 0 0.1 1.1 87 29
+ 48.469712 1 2 ack 90 ---A--- 1 1.2 2.1 44 30
- 48.469712 1 2 ack 90 ---A--- 1 1.2 2.1 44 30
+ 48.5 1 0 ack 40 ------- 0 1.1 0.1 2049 31
- 48.5 1 0 ack 40 ------- 0 1.1 0.1 2049 31
r 48.502032 1 0 ack 40 ------- 0 1.1 0.1 2049 31
r 48.520192 1 2 ack 90 ---A--- 1 1.2 2.1 44 30
+ 48.520192 2 1 tcp 576 ---A--- 1 2.1 1.2 1035 32
- 48.520192 2 1 tcp 576 ---A--- 1 2.1 1.2 1035 32
r 48.573264 2 1 tcp 576 ---A--- 1 2.1 1.2 1035 32
+ 48.573264 1 2 ack 40 ------- 1 1.2 2.1 94 33
- 48.573264 1 2 ack 40 ------- 1 1.2 2.1 94 33
r 48.623478 1 2 ack 40 ------- 1 1.2 2.1 94 33
+ 48.623478 2 1 tcp 528 ------- 1 2.1 1.2 1571 34
- 48.623478 2 1 tcp 528 ------- 1 2.1 1.2 1571 34
r 48.676294 2 1 tcp 528 ------- 1 2.1 1.2 1571 34
+ 48.676294 1 0 ack 576 ---A--- 0 1.1 0.1 2049 35
- 48.676294 1 0 ack 576 ---A--- 0 1.1 0.1 2049 35
r 48.678755 1 0 ack 576 ---A--- 0 1.1 0.1 2049 35
+ 48.678755 0 1 tcp 40 ------- 0 0.1 1.1 130 36
- 48.678755 0 1 tcp 40 ------- 0 0.1 1.1 130 36
r 48.680787 0 1 tcp 40 ------- 0 0.1 1.1 130 36
+ 48.680787 1 0 ack 528 ------- 0 1.1 0.1 2585 37
- 48.680787 1 0 ack 528 ------- 0 1.1 0.1 2585 37
r 48.683209 1 0 ack 528 ------- 0 1.1 0.1 2585 37
+ 48.7 0 1 tcp 40 ------- 0 0.1 1.1 130 38
- 48.7 0 1 tcp 40 ------- 0 0.1 1.1 130 38
+ 48.7 1 2 ack 40 ------- 1 1.2 2.1 94 39
- 48.7 1 2 ack 40 ------- 1 1.2 2.1 94 39
r 48.702032 0 1 tcp 40 ------- 0 0.1 1.1 130 38
r 48.750213 1 2 ack 40 ------- 1 1.2 2.1 94 39
v 72.941235419999998 eval {set sim_annotation {S 2 INV _o104:0}}
+ 72.941235 2 1 tcp 576 ---A--- 41 2.1 1.2 2059 40
- 72.941235 2 1 tcp 576 ---A--- 41 2.1 1.2 2059 40
r 72.994307 2 1 tcp 576 ---A--- 41 2.1 1.2 2059 40
+ 72.994307 1 2 ack 40 ------- 1 1.2 2.1 94 41
- 72.994307 1 2 ack 40 ------- 1 1.2 2.1 94 41
r 73.044521 1 2 ack 40 ------- 1 1.2 2.1 94 41
+ 73.044521 2 1 tcp 528 ------- 1 2.1 1.2 2595 42
- 73.044521 2 1 tcp 528 ------- 1 2.1 1.2 2595 42
r 73.097337 2 1 tcp 528 ------- 1 2.1 1.2 2595 42
+ 73.1 1 2 ack 40 ------- 1 1.2 2.1 94 43
- 73.1 1 2 ack 40 ------- 1 1.2 2.1 94 43
r 73.150213 1 2 ack 40 ------- 1 1.2 2.1 94 43
+ 73.471686 2 1 httpInval 72 ---A--- 40 2.2 1.3 -1 44
- 73.471686 2 1 httpInval 72 ---A--- 40 2.2 1.3 -1 44
r 73.52207 2 1 httpInval 72 ---A--- 40 2.2 1.3 -1 44
+ 73.6 1 2 httpInval 40 ------- 40 1.3 2.2 -1 45
- 73.6 1 2 httpInval 40 ------- 40 1.3 2.2 -1 45
r 73.650213 1 2 httpInval 40 ------- 40 1.3 2.2 -1 45
+ 83.884626 0 1 tcp 83 ---A--- 0 0.1 1.1 130 46
- 83.884626 0 1 tcp 83 ---A--- 0 0.1 1.1 130 46
r 83.886692 0 1 tcp 83 ---A--- 0 0.1 1.1 130 46
+ 83.886692 1 0 ack 576 ---A--- 0 1.1 0.1 3073 47
- 83.886692 1 0 ack 576 ---A--- 0 1.1 0.1 3073 47
+ 83.886692 1 2 ack 50 ---A--- 1 1.2 2.1 94 48
- 83.886692 1 2 ack 50 ---A--- 1 1.2 2.1 94 48
r 83.889153 1 0 ack 576 ---A--- 0 1.1 0.1 3073 47
+ 83.889153 0 1 tcp 40 ------- 0 0.1 1.1 173 49
- 83.889153 0 1 tcp 40 ------- 0 0.1 1.1 173 49
r 83.891185 0 1 tcp 40 ------- 0 0.1 1.1 173 49
+ 83.891185 1 0 ack 528 ------- 0 1.1 0.1 3609 50
- 83.891185 1 0 ack 528 ------- 0 1.1 0.1 3609 50
r 83.893608 1 0 ack 528 ------- 0 1.1 0.1 3609 50
+ 83.9 0 1 tcp 40 ------- 0 0.1 1.1 173 51
- 83.9 0 1 tcp 40 ------- 0 0.1 1.1 173 51
r 83.902032 0 1 tcp 40 ------- 0 0.1 1.1 173 51
r 83.936959 1 2 ack 50 ---A--- 1 1.2 2.1 94 48
+ 84 2 1 tcp 40 ------- 1 2.1 1.2 3083 52
- 84 2 1 tcp 40 ------- 1 2.1 1.2 3083 52
r 84.050213 2 1 tcp 40 ------- 1 2.1 1.2 3083 52
+ 100.473125 2 1 httpInval 72 ---A--- 40 2.2 1.3 -1 53
- 100.473125 2 1 httpInval 72 ---A--- 40 2.2 1.3 -1 53
r 100.523509 2 1 httpInval 72 ---A--- 40 2.2 1.3 -1 53
+ 100.6 1 2 httpInval 40 ------- 40 1.3 2.2 -1 54
- 100.6 1 2 httpInval 40 ------- 40 1.3 2.2 -1 54
r 100.650213 1 2 httpInval 40 ------- 40 1.3 2.2 -1 54
+ 130.892778 2 1 httpInval 72 ---A--- 40 2.2 1.3 -1 55
- 130.892778 2 1 httpInval 72 ---A--- 40 2.2 1.3 -1 55
r 130.943162 2 1 httpInval 72 ---A--- 40 2.2 1.3 -1 55
+ 131 1 2 httpInval 40 ------- 40 1.3 2.2 -1 56
- 131 1 2 httpInval 40 ------- 40 1.3 2.2 -1 56
r 131.050213 1 2 httpInval 40 ------- 40 1.3 2.2 -1 56
+ 162.025926 2 1 httpInval 72 ---A--- 40 2.2 1.3 -1 57
- 162.025926 2 1 httpInval 72 ---A--- 40 2.2 1.3 -1 57
r 162.07631 2 1 httpInval 72 ---A--- 40 2.2 1.3 -1 57
+ 162.1 1 2 httpInval 40 ------- 40 1.3 2.2 -1 58
- 162.1 1 2 httpInval 40 ------- 40 1.3 2.2 -1 58
r 162.150213 1 2 httpInval 40 ------- 40 1.3 2.2 -1 58
+ 220.452914 2 1 httpInval 42 ---A--- 40 2.2 1.3 -1 59
- 220.452914 2 1 httpInval 42 ---A--- 40 2.2 1.3 -1 59
r 220.503138 2 1 httpInval 42 ---A--- 40 2.2 1.3 -1 59
+ 220.6 1 2 httpInval 40 ------- 40 1.3 2.2 -1 60
- 220.6 1 2 httpInval 40 ------- 40 1.3 2.2 -1 60
r 220.650213 1 2 httpInval 40 ------- 40 1.3 2.2 -1 60
+ 282.633011 2 1 httpInval 42 ---A--- 40 2.2 1.3 -1 61
- 282.633011 2 1 httpInval 42 ---A--- 40 2.2 1.3 -1 61
r 282.683235 2 1 httpInval 42 ---A--- 40 2.2 1.3 -1 61
+ 282.7 1 2 httpInval 40 ------- 40 1.3 2.2 -1 62
- 282.7 1 2 httpInval 40 ------- 40 1.3 2.2 -1 62
r 282.750213 1 2 httpInval 40 ------- 40 1.3 2.2 -1 62
v 296.18279699999999 eval {set sim_annotation {S 2 INV _o104:0}}
+ 296.182797 2 1 tcp 576 ---A--- 41 2.1 1.2 3083 63
- 296.182797 2 1 tcp 576 ---A--- 41 2.1 1.2 3083 63
r 296.235869 2 1 tcp 576 ---A--- 41 2.1 1.2 3083 63
+ 296.235869 1 2 ack 40 ------- 1 1.2 2.1 104 64
- 296.235869 1 2 ack 40 ------- 1 1.2 2.1 104 64
r 296.286082 1 2 ack 40 ------- 1 1.2 2.1 104 64
+ 296.286082 2 1 tcp 528 ------- 1 2.1 1.2 3619 65
- 296.286082 2 1 tcp 528 ------- 1 2.1 1.2 3619 65
r 296.338898 2 1 tcp 528 ------- 1 2.1 1.2 3619 65
+ 296.4 1 2 ack 40 ------- 1 1.2 2.1 104 66
- 296.4 1 2 ack 40 ------- 1 1.2 2.1 104 66
r 296.450213 1 2 ack 40 ------- 1 1.2 2.1 104 66
+ 307.126226 0 1 tcp 83 ---A--- 0 0.1 1.1 173 67
- 307.126226 0 1 tcp 83 ---A--- 0 0.1 1.1 173 67
r 307.128292 0 1 tcp 83 ---A--- 0 0.1 1.1 173 67
+ 307.128292 1 0 ack 576 ---A--- 0 1.1 0.1 4097 68
- 307.128292 1 0 ack 576 ---A--- 0 1.1 0.1 4097 68
+ 307.128292 1 2 ack 50 ---A--- 1 1.2 2.1 104 69
- 307.128292 1 2 ack 50 ---A--- 1 1.2 2.1 104 69
r 307.130753 1 0 ack 576 ---A--- 0 1.1 0.1 4097 68
+ 307.130753 0 1 tcp 40 ------- 0 0.1 1.1 216 70
- 307.130753 0 1 tcp 40 ------- 0 0.1 1.1 216 70
r 307.132785 0 1 tcp 40 ------- 0 0.1 1.1 216 70
+ 307.132785 1 0 ack 528 ------- 0 1.1 0.1 4633 71
- 307.132785 1 0 ack 528 ------- 0 1.1 0.1 4633 71
r 307.135208 1 0 ack 528 ------- 0 1.1 0.1 4633 71
r 307.178559 1 2 ack 50 ---A--- 1 1.2 2.1 104 69
+ 307.2 0 1 tcp 40 ------- 0 0.1 1.1 216 72
- 307.2 0 1 tcp 40 ------- 0 0.1 1.1 216 72
+ 307.2 2 1 tcp 40 ------- 1 2.1 1.2 4107 73
- 307.2 2 1 tcp 40 ------- 1 2.1 1.2 4107 73
r 307.202032 0 1 tcp 40 ------- 0 0.1 1.1 216 72
r 307.250213 2 1 tcp 40 ------- 1 2.1 1.2 4107 73
v 320.91605579999998 eval {set sim_annotation {S 2 INV _o104:0}}
+ 320.916056 2 1 tcp 576 ---A--- 41 2.1 1.2 4107 74
- 320.916056 2 1 tcp 576 ---A--- 41 2.1 1.2 4107 74
r 320.969128 2 1 tcp 576 ---A--- 41 2.1 1.2 4107 74
+ 320.969128 1 2 ack 40 ------- 1 1.2 2.1 114 75
- 320.969128 1 2 ack 40 ------- 1 1.2 2.1 114 75
r 321.019341 1 2 ack 40 ------- 1 1.2 2.1 114 75
+ 321.019341 2 1 tcp 528 ------- 1 2.1 1.2 4643 76
- 321.019341 2 1 tcp 528 ------- 1 2.1 1.2 4643 76
r 321.072157 2 1 tcp 528 ------- 1 2.1 1.2 4643 76
+ 321.1 1 2 ack 40 ------- 1 1.2 2.1 114 77
- 321.1 1 2 ack 40 ------- 1 1.2 2.1 114 77
r 321.150213 1 2 ack 40 ------- 1 1.2 2.1 114 77
+ 331.859486 0 1 tcp 83 ---A--- 0 0.1 1.1 216 78
- 331.859486 0 1 tcp 83 ---A--- 0 0.1 1.1 216 78
r 331.861552 0 1 tcp 83 ---A--- 0 0.1 1.1 216 78
+ 331.861552 1 0 ack 576 ---A--- 0 1.1 0.1 5121 79
- 331.861552 1 0 ack 576 ---A--- 0 1.1 0.1 5121 79
+ 331.861552 1 2 ack 50 ---A--- 1 1.2 2.1 114 80
- 331.861552 1 2 ack 50 ---A--- 1 1.2 2.1 114 80
r 331.864013 1 0 ack 576 ---A--- 0 1.1 0.1 5121 79
+ 331.864013 0 1 tcp 40 ------- 0 0.1 1.1 259 81
- 331.864013 0 1 tcp 40 ------- 0 0.1 1.1 259 81
r 331.866045 0 1 tcp 40 ------- 0 0.1 1.1 259 81
+ 331.866045 1 0 ack 528 ------- 0 1.1 0.1 5657 82
- 331.866045 1 0 ack 528 ------- 0 1.1 0.1 5657 82
r 331.868468 1 0 ack 528 ------- 0 1.1 0.1 5657 82
+ 331.9 0 1 tcp 40 ------- 0 0.1 1.1 259 83
- 331.9 0 1 tcp 40 ------- 0 0.1 1.1 259 83
r 331.902032 0 1 tcp 40 ------- 0 0.1 1.1 259 83
r 331.911819 1 2 ack 50 ---A--- 1 1.2 2.1 114 80
+ 332 2 1 tcp 40 ------- 1 2.1 1.2 5131 84
- 332 2 1 tcp 40 ------- 1 2.1 1.2 5131 84
r 332.050213 2 1 tcp 40 ------- 1 2.1 1.2 5131 84
+ 342.660072 2 1 httpInval 42 ---A--- 40 2.2 1.3 -1 85
- 342.660072 2 1 httpInval 42 ---A--- 40 2.2 1.3 -1 85
r 342.710296 2 1 httpInval 42 ---A--- 40 2.2 1.3 -1 85
+ 342.8 1 2 httpInval 40 ------- 40 1.3 2.2 -1 86
- 342.8 1 2 httpInval 40 ------- 40 1.3 2.2 -1 86
r 342.850213 1 2 httpInval 40 ------- 40 1.3 2.2 -1 86
+ 399.522338 2 1 httpInval 42 ---A--- 40 2.2 1.3 -1 87
- 399.522338 2 1 httpInval 42 ---A--- 40 2.2 1.3 -1 87
r 399.572562 2 1 httpInval 42 ---A--- 40 2.2 1.3 -1 87
+ 399.6 1 2 httpInval 40 ------- 40 1.3 2.2 -1 88
- 399.6 1 2 httpInval 40 ------- 40 1.3 2.2 -1 88
r 399.650213 1 2 httpInval 40 ------- 40 1.3 2.2 -1 88
v 430.46606709999998 eval {set sim_annotation {S 2 INV _o104:0}}
+ 430.466067 2 1 tcp 576 ---A--- 41 2.1 1.2 5131 89
- 430.466067 2 1 tcp 576 ---A--- 41 2.1 1.2 5131 89
r 430.519139 2 1 tcp 576 ---A--- 41 2.1 1.2 5131 89
+ 430.519139 1 2 ack 40 ------- 1 1.2 2.1 124 90
- 430.519139 1 2 ack 40 ------- 1 1.2 2.1 124 90
r 430.569352 1 2 ack 40 ------- 1 1.2 2.1 124 90
+ 430.569352 2 1 tcp 528 ------- 1 2.1 1.2 5667 91
- 430.569352 2 1 tcp 528 ------- 1 2.1 1.2 5667 91
r 430.622168 2 1 tcp 528 ------- 1 2.1 1.2 5667 91
+ 430.7 1 2 ack 40 ------- 1 1.2 2.1 124 92
- 430.7 1 2 ack 40 ------- 1 1.2 2.1 124 92
r 430.750213 1 2 ack 40 ------- 1 1.2 2.1 124 92
+ 441.409486 0 1 tcp 83 ---A--- 0 0.1 1.1 259 93
- 441.409486 0 1 tcp 83 ---A--- 0 0.1 1.1 259 93
r 441.411552 0 1 tcp 83 ---A--- 0 0.1 1.1 259 93
+ 441.411552 1 0 ack 576 ---A--- 0 1.1 0.1 6145 94
- 441.411552 1 0 ack 576 ---A--- 0 1.1 0.1 6145 94
+ 441.411552 1 2 ack 50 ---A--- 1 1.2 2.1 124 95
- 441.411552 1 2 ack 50 ---A--- 1 1.2 2.1 124 95
r 441.414013 1 0 ack 576 ---A--- 0 1.1 0.1 6145 94
+ 441.414013 0 1 tcp 40 ------- 0 0.1 1.1 302 96
- 441.414013 0 1 tcp 40 ------- 0 0.1 1.1 302 96
r 441.416045 0 1 tcp 40 ------- 0 0.1 1.1 302 96
+ 441.416045 1 0 ack 528 ------- 0 1.1 0.1 6681 97
- 441.416045 1 0 ack 528 ------- 0 1.1 0.1 6681 97
r 441.418468 1 0 ack 528 ------- 0 1.1 0.1 6681 97
r 441.461819 1 2 ack 50 ---A--- 1 1.2 2.1 124 95
+ 441.5 0 1 tcp 40 ------- 0 0.1 1.1 302 98
- 441.5 0 1 tcp 40 ------- 0 0.1 1.1 302 98
+ 441.5 2 1 tcp 40 ------- 1 2.1 1.2 6155 99
- 441.5 2 1 tcp 40 ------- 1 2.1 1.2 6155 99
r 441.502032 0 1 tcp 40 ------- 0 0.1 1.1 302 98
r 441.550213 2 1 tcp 40 ------- 1 2.1 1.2 6155 99
+ 460.189619 2 1 httpInval 42 ---A--- 40 2.2 1.3 -1 100
- 460.189619 2 1 httpInval 42 ---A--- 40 2.2 1.3 -1 100
r 460.239843 2 1 httpInval 42 ---A--- 40 2.2 1.3 -1 100
+ 460.3 1 2 httpInval 40 ------- 40 1.3 2.2 -1 101
- 460.3 1 2 httpInval 40 ------- 40 1.3 2.2 -1 101
r 460.350213 1 2 httpInval 40 ------- 40 1.3 2.2 -1 101
v 464.1016975 eval {set sim_annotation {S 2 INV _o104:0}}
+ 464.101698 2 1 tcp 576 ---A--- 41 2.1 1.2 6155 102
- 464.101698 2 1 tcp 576 ---A--- 41 2.1 1.2 6155 102
r 464.15477 2 1 tcp 576 ---A--- 41 2.1 1.2 6155 102
+ 464.15477 1 2 ack 40 ------- 1 1.2 2.1 134 103
- 464.15477 1 2 ack 40 ------- 1 1.2 2.1 134 103
r 464.204983 1 2 ack 40 ------- 1 1.2 2.1 134 103
+ 464.204983 2 1 tcp 528 ------- 1 2.1 1.2 6691 104
- 464.204983 2 1 tcp 528 ------- 1 2.1 1.2 6691 104
r 464.257799 2 1 tcp 528 ------- 1 2.1 1.2 6691 104
+ 464.3 1 2 ack 40 ------- 1 1.2 2.1 134 105
- 464.3 1 2 ack 40 ------- 1 1.2 2.1 134 105
r 464.350213 1 2 ack 40 ------- 1 1.2 2.1 134 105
+ 475.045116 0 1 tcp 83 ---A--- 0 0.1 1.1 302 106
- 475.045116 0 1 tcp 83 ---A--- 0 0.1 1.1 302 106
r 475.047182 0 1 tcp 83 ---A--- 0 0.1 1.1 302 106
+ 475.047182 1 0 ack 576 ---A--- 0 1.1 0.1 7169 107
- 475.047182 1 0 ack 576 ---A--- 0 1.1 0.1 7169 107
+ 475.047182 1 2 ack 50 ---A--- 1 1.2 2.1 134 108
- 475.047182 1 2 ack 50 ---A--- 1 1.2 2.1 134 108
r 475.049643 1 0 ack 576 ---A--- 0 1.1 0.1 7169 107
+ 475.049643 0 1 tcp 40 ------- 0 0.1 1.1 345 109
- 475.049643 0 1 tcp 40 ------- 0 0.1 1.1 345 109
r 475.051675 0 1 tcp 40 ------- 0 0.1 1.1 345 109
+ 475.051675 1 0 ack 528 ------- 0 1.1 0.1 7705 110
- 475.051675 1 0 ack 528 ------- 0 1.1 0.1 7705 110
r 475.054098 1 0 ack 528 ------- 0 1.1 0.1 7705 110
r 475.097449 1 2 ack 50 ---A--- 1 1.2 2.1 134 108
+ 475.1 0 1 tcp 40 ------- 0 0.1 1.1 345 111
- 475.1 0 1 tcp 40 ------- 0 0.1 1.1 345 111
+ 475.1 2 1 tcp 40 ------- 1 2.1 1.2 7179 112
- 475.1 2 1 tcp 40 ------- 1 2.1 1.2 7179 112
r 475.102032 0 1 tcp 40 ------- 0 0.1 1.1 345 111
r 475.150213 2 1 tcp 40 ------- 1 2.1 1.2 7179 112
