# TESTNAME: cache0-push
# TOPOLOGY: cache0
# avg-comp-page-age: 40000
# avg-page-age: 60
# avg-page-size: 1024
# avg-req-interval: 60
# client-req-size: 43
# comp-page-size: 51200
# duration: 500
# enable-log: 0
# hb-interval: 30
# max-page-age: 70
# max-page-size: 50000
# max-req-interval: 70
# min-page-age: 50
# min-page-size: 100
# min-req-interval: 50
# nam-trace-all: 1
# ns-random-seed: 188312339
# num-2nd-cache: 5
# num-comp-pages: 1
# prot: cache0-push
# scheduler-type: Calendar
# single-page: 1
# ttl: 0.1
# upd-interval: 5
# xtrace-page: webtrace-pglog
# xtrace-req: webtrace-reqlog
+ 10 2 1 tcp 50 ------- 1 2.1 1.2 1 0
- 10 2 1 tcp 50 ------- 1 2.1 1.2 1 0
r 10.050267 2 1 tcp 50 ------- 1 2.1 1.2 1 0
+ 20 0 1 tcp 83 ------- 0 0.1 1.1 1 1
- 20 0 1 tcp 83 ------- 0 0.1 1.1 1 1
r 20.002066 0 1 tcp 83 ------- 0 0.1 1.1 1 1
+ 20.002066 1 2 tcp 83 ------- 1 1.2 2.1 1 2
- 20.002066 1 2 tcp 83 ------- 1 1.2 2.1 1 2
r 20.052509 1 2 tcp 83 ------- 1 1.2 2.1 1 2
+ 20.052509 2 1 tcp 1064 ------- 1 2.1 1.2 2 3
- 20.052509 2 1 tcp 1064 ------- 1 2.1 1.2 2 3
r 20.108184 2 1 tcp 1064 ------- 1 2.1 1.2 2 3
+ 20.108184 1 0 tcp 1064 ------- 0 1.1 0.1 1 4
- 20.108184 1 0 tcp 1064 ------- 0 1.1 0.1 1 4
r 20.111035 1 0 tcp 1064 ------- 0 1.1 0.1 1 4
v 22.967215159999999 eval {set sim_annotation {S 2 INV _o104:0}}
+ 33.914706 0 1 tcp 83 ------- 0 0.1 1.1 2 5
- 33.914706 0 1 tcp 83 ------- 0 0.1 1.1 2 5
r 33.916772 0 1 tcp 83 ------- 0 0.1 1.1 2 5
+ 33.916772 1 0 tcp 1064 ------- 0 1.1 0.1 2 6
- 33.916772 1 0 tcp 1064 ------- 0 1.1 0.1 2 6
r 33.919624 1 0 tcp 1064 ------- 0 1.1 0.1 2 6
v 37.520156800000002 eval {set sim_annotation {S 2 INV _o104:0}}
+ 40.42522 2 1 httpInval 72 ------- 40 2.2 1.3 -1 7
- 40.42522 2 1 httpInval 72 ------- 40 2.2 1.3 -1 7
r 40.475604 2 1 httpInval 72 ------- 40 2.2 1.3 -1 7
+ 48.467646 0 1 tcp 83 ------- 0 0.1 1.1 3 8
- 48.467646 0 1 tcp 83 ------- 0 0.1 1.1 3 8
r 48.469712 0 1 tcp 83 ------- 0 0.1 1.1 3 8
+ 48.469712 1 2 tcp 90 ------- 1 1.2 2.1 2 9
- 48.469712 1 2 tcp 90 ------- 1 1.2 2.1 2 9
r 48.520192 1 2 tcp 90 ------- 1 1.2 2.1 2 9
+ 48.520192 2 1 tcp 1064 ------- 1 2.1 1.2 3 10
- 48.520192 2 1 tcp 1064 ------- 1 2.1 1.2 3 10
r 48.575867 2 1 tcp 1064 ------- 1 2.1 1.2 3 10
+ 48.575867 1 0 tcp 1064 ------- 0 1.1 0.1 3 11
- 48.575867 1 0 tcp 1064 ------- 0 1.1 0.1 3 11
r 48.578718 1 0 tcp 1064 ------- 0 1.1 0.1 3 11
+ 67.634504 2 1 httpInval 72 ------- 40 2.2 1.3 -1 12
- 67.634504 2 1 httpInval 72 ------- 40 2.2 1.3 -1 12
r 67.684888 2 1 httpInval 72 ------- 40 2.2 1.3 -1 12
v 72.937139419999994 eval {set sim_annotation {S 2 INV _o104:0}}
+ 72.937139 2 1 tcp 1064 ------- 41 2.1 1.2 4 13
- 72.937139 2 1 tcp 1064 ------- 41 2.1 1.2 4 13
r 72.992814 2 1 tcp 1064 ------- 41 2.1 1.2 4 13
+ 83.884626 0 1 tcp 83 ------- 0 0.1 1.1 4 14
- 83.884626 0 1 tcp 83 ------- 0 0.1 1.1 4 14
r 83.886692 0 1 tcp 83 ------- 0 0.1 1.1 4 14
+ 83.886692 1 0 tcp 1064 ------- 0 1.1 0.1 4 15
- 83.886692 1 0 tcp 1064 ------- 0 1.1 0.1 4 15
+ 83.886692 1 2 tcp 50 ------- 1 1.2 2.1 3 16
- 83.886692 1 2 tcp 50 ------- 1 1.2 2.1 3 16
r 83.889544 1 0 tcp 1064 ------- 0 1.1 0.1 4 15
r 83.936959 1 2 tcp 50 ------- 1 1.2 2.1 3 16
+ 96.111393 2 1 httpInval 72 ------- 40 2.2 1.3 -1 17
- 96.111393 2 1 httpInval 72 ------- 40 2.2 1.3 -1 17
r 96.161777 2 1 httpInval 72 ------- 40 2.2 1.3 -1 17
+ 126.30915 2 1 httpInval 72 ------- 40 2.2 1.3 -1 18
- 126.30915 2 1 httpInval 72 ------- 40 2.2 1.3 -1 18
r 126.359534 2 1 httpInval 72 ------- 40 2.2 1.3 -1 18
+ 157.300838 2 1 httpInval 72 ------- 40 2.2 1.3 -1 19
- 157.300838 2 1 httpInval 72 ------- 40 2.2 1.3 -1 19
r 157.351222 2 1 httpInval 72 ------- 40 2.2 1.3 -1 19
+ 186.642686 2 1 httpInval 41 ------- 40 2.2 1.3 -1 20
- 186.642686 2 1 httpInval 41 ------- 40 2.2 1.3 -1 20
r 186.692905 2 1 httpInval 41 ------- 40 2.2 1.3 -1 20
+ 215.265704 2 1 httpInval 41 ------- 40 2.2 1.3 -1 21
- 215.265704 2 1 httpInval 41 ------- 40 2.2 1.3 -1 21
r 215.315922 2 1 httpInval 41 ------- 40 2.2 1.3 -1 21
+ 246.959824 2 1 httpInval 41 ------- 40 2.2 1.3 -1 22
- 246.959824 2 1 httpInval 41 ------- 40 2.2 1.3 -1 22
r 247.010043 2 1 httpInval 41 ------- 40 2.2 1.3 -1 22
+ 278.336575 2 1 httpInval 41 ------- 40 2.2 1.3 -1 23
- 278.336575 2 1 httpInval 41 ------- 40 2.2 1.3 -1 23
r 278.386793 2 1 httpInval 41 ------- 40 2.2 1.3 -1 23
v 296.17870099999999 eval {set sim_annotation {S 2 INV _o104:0}}
+ 296.178701 2 1 tcp 1064 ------- 41 2.1 1.2 5 24
- 296.178701 2 1 tcp 1064 ------- 41 2.1 1.2 5 24
r 296.234376 2 1 tcp 1064 ------- 41 2.1 1.2 5 24
+ 307.126226 0 1 tcp 83 ------- 0 0.1 1.1 5 25
- 307.126226 0 1 tcp 83 ------- 0 0.1 1.1 5 25
r 307.128292 0 1 tcp 83 ------- 0 0.1 1.1 5 25
+ 307.128292 1 0 tcp 1064 ------- 0 1.1 0.1 5 26
- 307.128292 1 0 tcp 1064 ------- 0 1.1 0.1 5 26
+ 307.128292 1 2 tcp 50 ------- 1 1.2 2.1 4 27
- 307.128292 1 2 tcp 50 ------- 1 1.2 2.1 4 27
r 307.131144 1 0 tcp 1064 ------- 0 1.1 0.1 5 26
r 307.178559 1 2 tcp 50 ------- 1 1.2 2.1 4 27
+ 310.287982 2 1 httpInval 41 ------- 40 2.2 1.3 -1 28
- 310.287982 2 1 httpInval 41 ------- 40 2.2 1.3 -1 28
r 310.338201 2 1 httpInval 41 ------- 40 2.2 1.3 -1 28
v 320.91195979999998 eval {set sim_annotation {S 2 INV _o104:0}}
+ 320.91196 2 1 tcp 1064 ------- 41 2.1 1.2 6 29
- 320.91196 2 1 tcp 1064 ------- 41 2.1 1.2 6 29
r 320.967634 2 1 tcp 1064 ------- 41 2.1 1.2 6 29
+ 331.859486 0 1 tcp 83 ------- 0 0.1 1.1 6 30
- 331.859486 0 1 tcp 83 ------- 0 0.1 1.1 6 30
r 331.861552 0 1 tcp 83 ------- 0 0.1 1.1 6 30
+ 331.861552 1 0 tcp 1064 ------- 0 1.1 0.1 6 31
- 331.861552 1 0 tcp 1064 ------- 0 1.1 0.1 6 31
+ 331.861552 1 2 tcp 50 ------- 1 1.2 2.1 5 32
- 331.861552 1 2 tcp 50 ------- 1 1.2 2.1 5 32
r 331.864404 1 0 tcp 1064 ------- 0 1.1 0.1 6 31
r 331.911819 1 2 tcp 50 ------- 1 1.2 2.1 5 32
+ 342.065547 2 1 httpInval 41 ------- 40 2.2 1.3 -1 33
- 342.065547 2 1 httpInval 41 ------- 40 2.2 1.3 -1 33
r 342.115766 2 1 httpInval 41 ------- 40 2.2 1.3 -1 33
+ 369.066986 2 1 httpInval 41 ------- 40 2.2 1.3 -1 34
- 369.066986 2 1 httpInval 41 ------- 40 2.2 1.3 -1 34
r 369.117205 2 1 httpInval 41 ------- 40 2.2 1.3 -1 34
+ 399.486639 2 1 httpInval 41 ------- 40 2.2 1.3 -1 35
- 399.486639 2 1 httpInval 41 ------- 40 2.2 1.3 -1 35
r 399.536858 2 1 httpInval 41 ------- 40 2.2 1.3 -1 35
v 430.46197110000003 eval {set sim_annotation {S 2 INV _o104:0}}
+ 430.461971 2 1 tcp 1064 ------- 41 2.1 1.2 7 36
- 430.461971 2 1 tcp 1064 ------- 41 2.1 1.2 7 36
r 430.517646 2 1 tcp 1064 ------- 41 2.1 1.2 7 36
+ 430.619787 2 1 httpInval 41 ------- 40 2.2 1.3 -1 37
- 430.619787 2 1 httpInval 41 ------- 40 2.2 1.3 -1 37
r 430.670006 2 1 httpInval 41 ------- 40 2.2 1.3 -1 37
+ 441.409486 0 1 tcp 83 ------- 0 0.1 1.1 7 38
- 441.409486 0 1 tcp 83 ------- 0 0.1 1.1 7 38
r 441.411552 0 1 tcp 83 ------- 0 0.1 1.1 7 38
+ 441.411552 1 0 tcp 1064 ------- 0 1.1 0.1 7 39
- 441.411552 1 0 tcp 1064 ------- 0 1.1 0.1 7 39
+ 441.411552 1 2 tcp 50 ------- 1 1.2 2.1 6 40
- 441.411552 1 2 tcp 50 ------- 1 1.2 2.1 6 40
r 441.414404 1 0 tcp 1064 ------- 0 1.1 0.1 7 39
r 441.461819 1 2 tcp 50 ------- 1 1.2 2.1 6 40
+ 461.636656 2 1 httpInval 41 ------- 40 2.2 1.3 -1 41
- 461.636656 2 1 httpInval 41 ------- 40 2.2 1.3 -1 41
r 461.686875 2 1 httpInval 41 ------- 40 2.2 1.3 -1 41
v 464.0976015 eval {set sim_annotation {S 2 INV _o104:0}}
+ 464.097602 2 1 tcp 1064 ------- 41 2.1 1.2 8 42
- 464.097602 2 1 tcp 1064 ------- 41 2.1 1.2 8 42
r 464.153276 2 1 tcp 1064 ------- 41 2.1 1.2 8 42
+ 475.045116 0 1 tcp 83 ------- 0 0.1 1.1 8 43
- 475.045116 0 1 tcp 83 ------- 0 0.1 1.1 8 43
r 475.047182 0 1 tcp 83 ------- 0 0.1 1.1 8 43
+ 475.047182 1 0 tcp 1064 ------- 0 1.1 0.1 8 44
- 475.047182 1 0 tcp 1064 ------- 0 1.1 0.1 8 44
+ 475.047182 1 2 tcp 50 ------- 1 1.2 2.1 7 45
- 475.047182 1 2 tcp 50 ------- 1 1.2 2.1 7 45
r 475.050034 1 0 tcp 1064 ------- 0 1.1 0.1 8 44
r 475.097449 1 2 tcp 50 ------- 1 1.2 2.1 7 45
+ 489.046776 2 1 httpInval 41 ------- 40 2.2 1.3 -1 46
- 489.046776 2 1 httpInval 41 ------- 40 2.2 1.3 -1 46
r 489.096994 2 1 httpInval 41 ------- 40 2.2 1.3 -1 46
