# TESTNAME: cache0f-inv
# TOPOLOGY: cache0
# avg-comp-page-age: 40000
# avg-page-age: 60
# avg-page-size: 1024
# avg-req-interval: 60
# client-req-size: 43
# comp-page-size: 51200
# duration: 500
# enable-log: 0
# hb-interval: 30
# max-page-age: 70
# max-page-size: 50000
# max-req-interval: 70
# min-page-age: 50
# min-page-size: 100
# min-req-interval: 50
# nam-trace-all: 1
# ns-random-seed: 188312339
# num-2nd-cache: 5
# num-comp-pages: 1
# prot: cache0f-inv
# scheduler-type: Calendar
# single-page: 1
# ttl: 0.1
# upd-interval: 5
# xtrace-page: webtrace-pglog
# xtrace-req: webtrace-reqlog
+ 10 2 1 tcp 40 ------- 1 2.1 1.2 0 0
- 10 2 1 tcp 40 ------- 1 2.1 1.2 0 0
r 10.050213 2 1 tcp 40 ------- 1 2.1 1.2 0 0
+ 10.050213 1 2 ack 40 ------- 1 1.2 2.1 0 1
- 10.050213 1 2 ack 40 ------- 1 1.2 2.1 0 1
r 10.100427 1 2 ack 40 ------- 1 1.2 2.1 0 1
+ 10.100427 2 1 tcp 40 ------- 1 2.1 1.2 1 2
- 10.100427 2 1 tcp 40 ------- 1 2.1 1.2 1 2
+ 10.100427 2 1 tcp 50 ------- 1 2.1 1.2 1 3
- 10.10064 2 1 tcp 50 ------- 1 2.1 1.2 1 3
r 10.15064 2 1 tcp 40 ------- 1 2.1 1.2 1 2
r 10.150907 2 1 tcp 50 ------- 1 2.1 1.2 1 3
+ 10.2 1 2 ack 40 ------- 1 1.2 2.1 1 4
- 10.2 1 2 ack 40 ------- 1 1.2 2.1 1 4
r 10.250213 1 2 ack 40 ------- 1 1.2 2.1 1 4
+ 20 0 1 tcp 40 ------- 0 0.1 1.1 0 5
- 20 0 1 tcp 40 ------- 0 0.1 1.1 0 5
r 20.002032 0 1 tcp 40 ------- 0 0.1 1.1 0 5
+ 20.002032 1 0 ack 40 ------- 0 1.1 0.1 0 6
- 20.002032 1 0 ack 40 ------- 0 1.1 0.1 0 6
r 20.004064 1 0 ack 40 ------- 0 1.1 0.1 0 6
+ 20.004064 0 1 tcp 40 ------- 0 0.1 1.1 1 7
- 20.004064 0 1 tcp 40 ------- 0 0.1 1.1 1 7
+ 20.004064 0 1 tcp 83 ------- 0 0.1 1.1 1 8
- 20.004096 0 1 tcp 83 ------- 0 0.1 1.1 1 8
r 20.006096 0 1 tcp 40 ------- 0 0.1 1.1 1 7
r 20.006162 0 1 tcp 83 ------- 0 0.1 1.1 1 8
+ 20.006162 1 2 ack 83 ------- 1 1.2 2.1 1 9
- 20.006162 1 2 ack 83 ------- 1 1.2 2.1 1 9
r 20.056605 1 2 ack 83 ------- 1 1.2 2.1 1 9
+ 20.056605 2 1 tcp 576 ---A--- 1 2.1 1.2 11 10
- 20.056605 2 1 tcp 576 ---A--- 1 2.1 1.2 11 10
+ 20.1 1 0 ack 40 ------- 0 1.1 0.1 1 11
- 20.1 1 0 ack 40 ------- 0 1.1 0.1 1 11
r 20.102032 1 0 ack 40 ------- 0 1.1 0.1 1 11
r 20.109677 2 1 tcp 576 ---A--- 1 2.1 1.2 11 10
+ 20.109677 1 2 ack 40 ------- 1 1.2 2.1 44 12
- 20.109677 1 2 ack 40 ------- 1 1.2 2.1 44 12
r 20.15989 1 2 ack 40 ------- 1 1.2 2.1 44 12
+ 20.15989 2 1 tcp 528 ------- 1 2.1 1.2 547 13
- 20.15989 2 1 tcp 528 ------- 1 2.1 1.2 547 13
r 20.212706 2 1 tcp 528 ------- 1 2.1 1.2 547 13
+ 20.212706 1 0 ack 576 ------- 0 1.1 0.1 1 14
- 20.212706 1 0 ack 576 ------- 0 1.1 0.1 1 14
r 20.215167 1 0 ack 576 ------- 0 1.1 0.1 1 14
+ 20.215167 0 1 tcp 40 ------- 0 0.1 1.1 44 15
- 20.215167 0 1 tcp 40 ------- 0 0.1 1.1 44 15
r 20.217199 0 1 tcp 40 ------- 0 0.1 1.1 44 15
+ 20.217199 1 0 ack 528 ------- 0 1.1 0.1 537 16
- 20.217199 1 0 ack 528 ------- 0 1.1 0.1 537 16
r 20.219622 1 0 ack 528 ------- 0 1.1 0.1 537 16
+ 20.3 0 1 tcp 40 ------- 0 0.1 1.1 44 17
- 20.3 0 1 tcp 40 ------- 0 0.1 1.1 44 17
+ 20.3 1 2 ack 40 ------- 1 1.2 2.1 44 18
- 20.3 1 2 ack 40 ------- 1 1.2 2.1 44 18
r 20.302032 0 1 tcp 40 ------- 0 0.1 1.1 44 17
r 20.350213 1 2 ack 40 ------- 1 1.2 2.1 44 18
v 22.971311159999999 eval {set sim_annotation {S 2 INV _o104:0}}
+ 33.914706 0 1 tcp 83 ---A--- 0 0.1 1.1 44 19
- 33.914706 0 1 tcp 83 ---A--- 0 0.1 1.1 44 19
r 33.916772 0 1 tcp 83 ---A--- 0 0.1 1.1 44 19
+ 33.916772 1 0 ack 576 ---A--- 0 1.1 0.1 1025 20
- 33.916772 1 0 ack 576 ---A--- 0 1.1 0.1 1025 20
r 33.919233 1 0 ack 576 ---A--- 0 1.1 0.1 1025 20
+ 33.919233 0 1 tcp 40 ------- 0 0.1 1.1 87 21
- 33.919233 0 1 tcp 40 ------- 0 0.1 1.1 87 21
r 33.921265 0 1 tcp 40 ------- 0 0.1 1.1 87 21
+ 33.921265 1 0 ack 528 ------- 0 1.1 0.1 1561 22
- 33.921265 1 0 ack 528 ------- 0 1.1 0.1 1561 22
r 33.923688 1 0 ack 528 ------- 0 1.1 0.1 1561 22
+ 34 0 1 tcp 40 ------- 0 0.1 1.1 87 23
- 34 0 1 tcp 40 ------- 0 0.1 1.1 87 23
r 34.002032 0 1 tcp 40 ------- 0 0.1 1.1 87 23
v 37.524252799999999 eval {set sim_annotation {S 2 INV _o104:0}}
+ 41.694121 2 1 httpInval 40 ------- 40 2.2 1.3 -1 24
- 41.694121 2 1 httpInval 40 ------- 40 2.2 1.3 -1 24
r 41.744334 2 1 httpInval 40 ------- 40 2.2 1.3 -1 24
+ 41.744334 1 2 httpInval 40 ------- 40 1.3 2.2 -1 25
- 41.744334 1 2 httpInval 40 ------- 40 1.3 2.2 -1 25
r 41.794548 1 2 httpInval 40 ------- 40 1.3 2.2 -1 25
+ 41.794548 2 1 httpInval 40 ------- 40 2.2 1.3 -1 26
- 41.794548 2 1 httpInval 40 ------- 40 2.2 1.3 -1 26
+ 41.794548 2 1 httpInval 72 ------- 40 2.2 1.3 -1 27
- 41.794761 2 1 httpInval 72 ------- 40 2.2 1.3 -1 27
r 41.844761 2 1 httpInval 40 ------- 40 2.2 1.3 -1 26
r 41.845145 2 1 httpInval 72 ------- 40 2.2 1.3 -1 27
+ 41.9 1 2 httpInval 40 ------- 40 1.3 2.2 -1 28
- 41.9 1 2 httpInval 40 ------- 40 1.3 2.2 -1 28
r 41.950213 1 2 httpInval 40 ------- 40 1.3 2.2 -1 28
+ 48.467646 0 1 tcp 83 ---A--- 0 0.1 1.1 87 29
- 48.467646 0 1 tcp 83 ---A--- 0 0.1 1.1 87 29
r 48.469712 0 1 tcp 83 ---A--- 0 0.1 1.1 87 29
+ 48.469712 1 2 ack 90 ---A--- 1 1.2 2.1 44 30
- 48.469712 1 2 ack 90 ---A--- 1 1.2 2.1 44 30
+ 48.5 1 0 ack 40 ------- 0 1.1 0.1 2049 31
- 48.5 1 0 ack 40 ------- 0 1.1 0.1 2049 31
r 48.502032 1 0 ack 40 ------- 0 1.1 0.1 2049 31
r 48.520192 1 2 ack 90 ---A--- 1 1.2 2.1 44 30
+ 48.520192 2 1 tcp 576 ---A--- 1 2.1 1.2 1035 32
- 48.520192 2 1 tcp 576 ---A--- 1 2.1 1.2 1035 32
r 48.573264 2 1 tcp 576 ---A--- 1 2.1 1.2 1035 32
+ 48.573264 1 2 ack 40 ------- 1 1.2 2.1 94 33
- 48.573264 1 2 ack 40 ------- 1 1.2 2.1 94 33
r 48.623478 1 2 ack 40 ------- 1 1.2 2.1 94 33
+ 48.623478 2 1 tcp 528 ------- 1 2.1 1.2 1571 34
- 48.623478 2 1 tcp 528 ------- 1 2.1 1.2 1571 34
r 48.676294 2 1 tcp 528 ------- 1 2.1 1.2 1571 34
+ 48.676294 1 0 ack 576 ---A--- 0 1.1 0.1 2049 35
- 48.676294 1 0 ack 576 ---A--- 0 1.1 0.1 2049 35
r 48.678755 1 0 ack 576 ---A--- 0 1.1 0.1 2049 35
+ 48.678755 0 1 tcp 40 ------- 0 0.1 1.1 130 36
- 48.678755 0 1 tcp 40 ------- 0 0.1 1.1 130 36
r 48.680787 0 1 tcp 40 ------- 0 0.1 1.1 130 36
+ 48.680787 1 0 ack 528 ------- 0 1.1 0.1 2585 37
- 48.680787 1 0 ack 528 ------- 0 1.1 0.1 2585 37
r 48.683209 1 0 ack 528 ------- 0 1.1 0.1 2585 37
+ 48.7 0 1 tcp 40 ------- 0 0.1 1.1 130 38
- 48.7 0 1 tcp 40 ------- 0 0.1 1.1 130 38
+ 48.7 1 2 ack 40 ------- 1 1.2 2.1 94 39
- 48.7 1 2 ack 40 ------- 1 1.2 2.1 94 39
r 48.702032 0 1 tcp 40 ------- 0 0.1 1.1 130 38
r 48.750213 1 2 ack 40 ------- 1 1.2 2.1 94 39
v 72.941235419999998 eval {set sim_annotation {S 2 INV _o104:0}}
+ 73.471686 2 1 httpInval 72 ---A--- 40 2.2 1.3 -1 40
- 73.471686 2 1 httpInval 72 ---A--- 40 2.2 1.3 -1 40
r 73.52207 2 1 httpInval 72 ---A--- 40 2.2 1.3 -1 40
+ 73.6 1 2 httpInval 40 ------- 40 1.3 2.2 -1 41
- 73.6 1 2 httpInval 40 ------- 40 1.3 2.2 -1 41
r 73.650213 1 2 httpInval 40 ------- 40 1.3 2.2 -1 41
+ 83.884626 0 1 tcp 83 ---A--- 0 0.1 1.1 130 42
- 83.884626 0 1 tcp 83 ---A--- 0 0.1 1.1 130 42
r 83.886692 0 1 tcp 83 ---A--- 0 0.1 1.1 130 42
+ 83.886692 1 2 ack 90 ---A--- 1 1.2 2.1 94 43
- 83.886692 1 2 ack 90 ---A--- 1 1.2 2.1 94 43
+ 83.9 1 0 ack 40 ------- 0 1.1 0.1 3073 44
- 83.9 1 0 ack 40 ------- 0 1.1 0.1 3073 44
r 83.902032 1 0 ack 40 ------- 0 1.1 0.1 3073 44
r 83.937172 1 2 ack 90 ---A--- 1 1.2 2.1 94 43
+ 83.937172 2 1 tcp 576 ---A--- 1 2.1 1.2 2059 45
- 83.937172 2 1 tcp 576 ---A--- 1 2.1 1.2 2059 45
r 83.990244 2 1 tcp 576 ---A--- 1 2.1 1.2 2059 45
+ 83.990244 1 2 ack 40 ------- 1 1.2 2.1 144 46
- 83.990244 1 2 ack 40 ------- 1 1.2 2.1 144 46
r 84.040458 1 2 ack 40 ------- 1 1.2 2.1 144 46
+ 84.040458 2 1 tcp 528 ------- 1 2.1 1.2 2595 47
- 84.040458 2 1 tcp 528 ------- 1 2.1 1.2 2595 47
r 84.093274 2 1 tcp 528 ------- 1 2.1 1.2 2595 47
+ 84.093274 1 0 ack 576 ---A--- 0 1.1 0.1 3073 48
- 84.093274 1 0 ack 576 ---A--- 0 1.1 0.1 3073 48
r 84.095735 1 0 ack 576 ---A--- 0 1.1 0.1 3073 48
+ 84.095735 0 1 tcp 40 ------- 0 0.1 1.1 173 49
- 84.095735 0 1 tcp 40 ------- 0 0.1 1.1 173 49
r 84.097767 0 1 tcp 40 ------- 0 0.1 1.1 173 49
+ 84.097767 1 0 ack 528 ------- 0 1.1 0.1 3609 50
- 84.097767 1 0 ack 528 ------- 0 1.1 0.1 3609 50
+ 84.1 1 2 ack 40 ------- 1 1.2 2.1 144 51
- 84.1 1 2 ack 40 ------- 1 1.2 2.1 144 51
r 84.100189 1 0 ack 528 ------- 0 1.1 0.1 3609 50
r 84.150213 1 2 ack 40 ------- 1 1.2 2.1 144 51
+ 84.2 0 1 tcp 40 ------- 0 0.1 1.1 173 52
- 84.2 0 1 tcp 40 ------- 0 0.1 1.1 173 52
r 84.202032 0 1 tcp 40 ------- 0 0.1 1.1 173 52
+ 100.473125 2 1 httpInval 72 ---A--- 40 2.2 1.3 -1 53
- 100.473125 2 1 httpInval 72 ---A--- 40 2.2 1.3 -1 53
r 100.523509 2 1 httpInval 72 ---A--- 40 2.2 1.3 -1 53
+ 100.6 1 2 httpInval 40 ------- 40 1.3 2.2 -1 54
- 100.6 1 2 httpInval 40 ------- 40 1.3 2.2 -1 54
r 100.650213 1 2 httpInval 40 ------- 40 1.3 2.2 -1 54
+ 130.892778 2 1 httpInval 72 ---A--- 40 2.2 1.3 -1 55
- 130.892778 2 1 httpInval 72 ---A--- 40 2.2 1.3 -1 55
r 130.943162 2 1 httpInval 72 ---A--- 40 2.2 1.3 -1 55
+ 131 1 2 httpInval 40 ------- 40 1.3 2.2 -1 56
- 131 1 2 httpInval 40 ------- 40 1.3 2.2 -1 56
r 131.050213 1 2 httpInval 40 ------- 40 1.3 2.2 -1 56
+ 162.025926 2 1 httpInval 72 ---A--- 40 2.2 1.3 -1 57
- 162.025926 2 1 httpInval 72 ---A--- 40 2.2 1.3 -1 57
r 162.07631 2 1 httpInval 72 ---A--- 40 2.2 1.3 -1 57
+ 162.1 1 2 httpInval 40 ------- 40 1.3 2.2 -1 58
- 162.1 1 2 httpInval 40 ------- 40 1.3 2.2 -1 58
r 162.150213 1 2 httpInval 40 ------- 40 1.3 2.2 -1 58
+ 193.042795 2 1 httpInval 72 ---A--- 40 2.2 1.3 -1 59
- 193.042795 2 1 httpInval 72 ---A--- 40 2.2 1.3 -1 59
r 193.093179 2 1 httpInval 72 ---A--- 40 2.2 1.3 -1 59
+ 193.1 1 2 httpInval 40 ------- 40 1.3 2.2 -1 60
- 193.1 1 2 httpInval 40 ------- 40 1.3 2.2 -1 60
r 193.150213 1 2 httpInval 40 ------- 40 1.3 2.2 -1 60
+ 252.426827 2 1 httpInval 42 ---A--- 40 2.2 1.3 -1 61
- 252.426827 2 1 httpInval 42 ---A--- 40 2.2 1.3 -1 61
r 252.477051 2 1 httpInval 42 ---A--- 40 2.2 1.3 -1 61
+ 252.5 1 2 httpInval 40 ------- 40 1.3 2.2 -1 62
- 252.5 1 2 httpInval 40 ------- 40 1.3 2.2 -1 62
r 252.550213 1 2 httpInval 40 ------- 40 1.3 2.2 -1 62
v 296.18279699999999 eval {set sim_annotation {S 2 INV _o104:0}}
+ 307.126226 0 1 tcp 83 ---A--- 0 0.1 1.1 173 63
- 307.126226 0 1 tcp 83 ---A--- 0 0.1 1.1 173 63
r 307.128292 0 1 tcp 83 ---A--- 0 0.1 1.1 173 63
+ 307.128292 1 0 ack 576 ---A--- 0 1.1 0.1 4097 64
- 307.128292 1 0 ack 576 ---A--- 0 1.1 0.1 4097 64
r 307.130753 1 0 ack 576 ---A--- 0 1.1 0.1 4097 64
+ 307.130753 0 1 tcp 40 ------- 0 0.1 1.1 216 65
- 307.130753 0 1 tcp 40 ------- 0 0.1 1.1 216 65
r 307.132785 0 1 tcp 40 ------- 0 0.1 1.1 216 65
+ 307.132785 1 0 ack 528 ------- 0 1.1 0.1 4633 66
- 307.132785 1 0 ack 528 ------- 0 1.1 0.1 4633 66
r 307.135208 1 0 ack 528 ------- 0 1.1 0.1 4633 66
+ 307.2 0 1 tcp 40 ------- 0 0.1 1.1 216 67
- 307.2 0 1 tcp 40 ------- 0 0.1 1.1 216 67
r 307.202032 0 1 tcp 40 ------- 0 0.1 1.1 216 67
+ 311.341777 2 1 httpInval 73 ---A--- 40 2.2 1.3 -1 68
- 311.341777 2 1 httpInval 73 ---A--- 40 2.2 1.3 -1 68
r 311.392166 2 1 httpInval 73 ---A--- 40 2.2 1.3 -1 68
+ 311.4 1 2 httpInval 40 ------- 40 1.3 2.2 -1 69
- 311.4 1 2 httpInval 40 ------- 40 1.3 2.2 -1 69
r 311.450213 1 2 httpInval 40 ------- 40 1.3 2.2 -1 69
v 320.91605579999998 eval {set sim_annotation {S 2 INV _o104:0}}
+ 331.859486 0 1 tcp 83 ---A--- 0 0.1 1.1 216 70
- 331.859486 0 1 tcp 83 ---A--- 0 0.1 1.1 216 70
r 331.861552 0 1 tcp 83 ---A--- 0 0.1 1.1 216 70
+ 331.861552 1 2 ack 90 ---A--- 1 1.2 2.1 144 71
- 331.861552 1 2 ack 90 ---A--- 1 1.2 2.1 144 71
+ 331.9 1 0 ack 40 ------- 0 1.1 0.1 5121 72
- 331.9 1 0 ack 40 ------- 0 1.1 0.1 5121 72
r 331.902032 1 0 ack 40 ------- 0 1.1 0.1 5121 72
r 331.912032 1 2 ack 90 ---A--- 1 1.2 2.1 144 71
+ 331.912032 2 1 tcp 576 ---A--- 1 2.1 1.2 3083 73
- 331.912032 2 1 tcp 576 ---A--- 1 2.1 1.2 3083 73
r 331.965104 2 1 tcp 576 ---A--- 1 2.1 1.2 3083 73
+ 331.965104 1 2 ack 40 ------- 1 1.2 2.1 194 74
- 331.965104 1 2 ack 40 ------- 1 1.2 2.1 194 74
r 332.015318 1 2 ack 40 ------- 1 1.2 2.1 194 74
+ 332.015318 2 1 tcp 528 ------- 1 2.1 1.2 3619 75
- 332.015318 2 1 tcp 528 ------- 1 2.1 1.2 3619 75
r 332.068134 2 1 tcp 528 ------- 1 2.1 1.2 3619 75
+ 332.068134 1 0 ack 576 ---A--- 0 1.1 0.1 5121 76
- 332.068134 1 0 ack 576 ---A--- 0 1.1 0.1 5121 76
r 332.070595 1 0 ack 576 ---A--- 0 1.1 0.1 5121 76
+ 332.070595 0 1 tcp 40 ------- 0 0.1 1.1 259 77
- 332.070595 0 1 tcp 40 ------- 0 0.1 1.1 259 77
r 332.072627 0 1 tcp 40 ------- 0 0.1 1.1 259 77
+ 332.072627 1 0 ack 528 ------- 0 1.1 0.1 5657 78
- 332.072627 1 0 ack 528 ------- 0 1.1 0.1 5657 78
r 332.075049 1 0 ack 528 ------- 0 1.1 0.1 5657 78
+ 332.1 0 1 tcp 40 ------- 0 0.1 1.1 259 79
- 332.1 0 1 tcp 40 ------- 0 0.1 1.1 259 79
+ 332.1 1 2 ack 40 ------- 1 1.2 2.1 194 80
- 332.1 1 2 ack 40 ------- 1 1.2 2.1 194 80
r 332.102032 0 1 tcp 40 ------- 0 0.1 1.1 259 79
r 332.150213 1 2 ack 40 ------- 1 1.2 2.1 194 80
+ 342.660072 2 1 httpInval 72 ---A--- 40 2.2 1.3 -1 81
- 342.660072 2 1 httpInval 72 ---A--- 40 2.2 1.3 -1 81
r 342.710456 2 1 httpInval 72 ---A--- 40 2.2 1.3 -1 81
+ 342.8 1 2 httpInval 40 ------- 40 1.3 2.2 -1 82
- 342.8 1 2 httpInval 40 ------- 40 1.3 2.2 -1 82
r 342.850213 1 2 httpInval 40 ------- 40 1.3 2.2 -1 82
+ 370.499983 2 1 httpInval 72 ---A--- 40 2.2 1.3 -1 83
- 370.499983 2 1 httpInval 72 ---A--- 40 2.2 1.3 -1 83
r 370.550367 2 1 httpInval 72 ---A--- 40 2.2 1.3 -1 83
+ 370.6 1 2 httpInval 40 ------- 40 1.3 2.2 -1 84
- 370.6 1 2 httpInval 40 ------- 40 1.3 2.2 -1 84
r 370.650213 1 2 httpInval 40 ------- 40 1.3 2.2 -1 84
+ 399.522338 2 1 httpInval 72 ---A--- 40 2.2 1.3 -1 85
- 399.522338 2 1 httpInval 72 ---A--- 40 2.2 1.3 -1 85
r 399.572722 2 1 httpInval 72 ---A--- 40 2.2 1.3 -1 85
+ 399.6 1 2 httpInval 40 ------- 40 1.3 2.2 -1 86
- 399.6 1 2 httpInval 40 ------- 40 1.3 2.2 -1 86
r 399.650213 1 2 httpInval 40 ------- 40 1.3 2.2 -1 86
+ 427.745202 2 1 httpInval 72 ---A--- 40 2.2 1.3 -1 87
- 427.745202 2 1 httpInval 72 ---A--- 40 2.2 1.3 -1 87
r 427.795586 2 1 httpInval 72 ---A--- 40 2.2 1.3 -1 87
+ 427.8 1 2 httpInval 40 ------- 40 1.3 2.2 -1 88
- 427.8 1 2 httpInval 40 ------- 40 1.3 2.2 -1 88
r 427.850213 1 2 httpInval 40 ------- 40 1.3 2.2 -1 88
v 430.46606709999998 eval {set sim_annotation {S 2 INV _o104:0}}
+ 441.409486 0 1 tcp 83 ---A--- 0 0.1 1.1 259 89
- 441.409486 0 1 tcp 83 ---A--- 0 0.1 1.1 259 89
r 441.411552 0 1 tcp 83 ---A--- 0 0.1 1.1 259 89
+ 441.411552 1 0 ack 576 ---A--- 0 1.1 0.1 6145 90
- 441.411552 1 0 ack 576 ---A--- 0 1.1 0.1 6145 90
r 441.414013 1 0 ack 576 ---A--- 0 1.1 0.1 6145 90
+ 441.414013 0 1 tcp 40 ------- 0 0.1 1.1 302 91
- 441.414013 0 1 tcp 40 ------- 0 0.1 1.1 302 91
r 441.416045 0 1 tcp 40 ------- 0 0.1 1.1 302 91
+ 441.416045 1 0 ack 528 ------- 0 1.1 0.1 6681 92
- 441.416045 1 0 ack 528 ------- 0 1.1 0.1 6681 92
r 441.418468 1 0 ack 528 ------- 0 1.1 0.1 6681 92
+ 441.5 0 1 tcp 40 ------- 0 0.1 1.1 302 93
- 441.5 0 1 tcp 40 ------- 0 0.1 1.1 302 93
r 441.502032 0 1 tcp 40 ------- 0 0.1 1.1 302 93
+ 460.189619 2 1 httpInval 72 ---A--- 40 2.2 1.3 -1 94
- 460.189619 2 1 httpInval 72 ---A--- 40 2.2 1.3 -1 94
r 460.240003 2 1 httpInval 72 ---A--- 40 2.2 1.3 -1 94
+ 460.3 1 2 httpInval 40 ------- 40 1.3 2.2 -1 95
- 460.3 1 2 httpInval 40 ------- 40 1.3 2.2 -1 95
r 460.350213 1 2 httpInval 40 ------- 40 1.3 2.2 -1 95
v 464.1016975 eval {set sim_annotation {S 2 INV _o104:0}}
+ 475.045116 0 1 tcp 83 ---A--- 0 0.1 1.1 302 96
- 475.045116 0 1 tcp 83 ---A--- 0 0.1 1.1 302 96
r 475.047182 0 1 tcp 83 ---A--- 0 0.1 1.1 302 96
+ 475.047182 1 2 ack 90 ---A--- 1 1.2 2.1 194 97
- 475.047182 1 2 ack 90 ---A--- 1 1.2 2.1 194 97
r 475.097662 1 2 ack 90 ---A--- 1 1.2 2.1 194 97
+ 475.097662 2 1 tcp 576 ---A--- 1 2.1 1.2 4107 98
- 475.097662 2 1 tcp 576 ---A--- 1 2.1 1.2 4107 98
+ 475.1 1 0 ack 40 ------- 0 1.1 0.1 7169 99
- 475.1 1 0 ack 40 ------- 0 1.1 0.1 7169 99
r 475.102032 1 0 ack 40 ------- 0 1.1 0.1 7169 99
r 475.150734 2 1 tcp 576 ---A--- 1 2.1 1.2 4107 98
+ 475.150734 1 2 ack 40 ------- 1 1.2 2.1 244 100
- 475.150734 1 2 ack 40 ------- 1 1.2 2.1 244 100
r 475.200948 1 2 ack 40 ------- 1 1.2 2.1 244 100
+ 475.200948 2 1 tcp 528 ------- 1 2.1 1.2 4643 101
- 475.200948 2 1 tcp 528 ------- 1 2.1 1.2 4643 101
r 475.253764 2 1 tcp 528 ------- 1 2.1 1.2 4643 101
+ 475.253764 1 0 ack 576 ---A--- 0 1.1 0.1 7169 102
- 475.253764 1 0 ack 576 ---A--- 0 1.1 0.1 7169 102
r 475.256225 1 0 ack 576 ---A--- 0 1.1 0.1 7169 102
+ 475.256225 0 1 tcp 40 ------- 0 0.1 1.1 345 103
- 475.256225 0 1 tcp 40 ------- 0 0.1 1.1 345 103
r 475.258257 0 1 tcp 40 ------- 0 0.1 1.1 345 103
+ 475.258257 1 0 ack 528 ------- 0 1.1 0.1 7705 104
- 475.258257 1 0 ack 528 ------- 0 1.1 0.1 7705 104
r 475.260679 1 0 ack 528 ------- 0 1.1 0.1 7705 104
+ 475.3 0 1 tcp 40 ------- 0 0.1 1.1 345 105
- 475.3 0 1 tcp 40 ------- 0 0.1 1.1 345 105
+ 475.3 1 2 ack 40 ------- 1 1.2 2.1 244 106
- 475.3 1 2 ack 40 ------- 1 1.2 2.1 244 106
r 475.302032 0 1 tcp 40 ------- 0 0.1 1.1 345 105
r 475.350213 1 2 ack 40 ------- 1 1.2 2.1 244 106
+ 489.663623 2 1 httpInval 72 ---A--- 40 2.2 1.3 -1 107
- 489.663623 2 1 httpInval 72 ---A--- 40 2.2 1.3 -1 107
r 489.714007 2 1 httpInval 72 ---A--- 40 2.2 1.3 -1 107
+ 489.8 1 2 httpInval 40 ------- 40 1.3 2.2 -1 108
- 489.8 1 2 httpInval 40 ------- 40 1.3 2.2 -1 108
r 489.850213 1 2 httpInval 40 ------- 40 1.3 2.2 -1 108
