# TESTNAME: http4f
# TOPOLOGY: 5node
# avg-comp-page-age: 40000
# avg-page-age: 60
# avg-page-size: 1024
# avg-req-interval: 60
# client-req-size: 43
# comp-page-size: 51200
# duration: 500
# enable-log: 0
# hb-interval: 30
# max-page-age: 70
# max-page-size: 50000
# max-req-interval: 70
# min-page-age: 50
# min-page-size: 100
# min-req-interval: 50
# nam-trace-all: 1
# ns-random-seed: 188312339
# num-2nd-cache: 5
# num-comp-pages: 1
# prot: http4f
# scheduler-type: Calendar
# single-page: 1
# ttl: 0.1
# upd-interval: 5
# xtrace-page: webtrace-pglog
# xtrace-req: webtrace-reqlog
+ 1 0 3 tcp 40 ------- 0 0.0 3.0 0 0
- 1 0 3 tcp 40 ------- 0 0.0 3.0 0 0
r 1.05032 0 3 tcp 40 ------- 0 0.0 3.0 0 0
+ 1.05032 3 0 ack 40 ------- 0 3.0 0.0 0 1
- 1.05032 3 0 ack 40 ------- 0 3.0 0.0 0 1
r 1.10064 3 0 ack 40 ------- 0 3.0 0.0 0 1
+ 1.10064 0 3 tcp 40 ------- 0 0.0 3.0 1 2
- 1.10064 0 3 tcp 40 ------- 0 0.0 3.0 1 2
+ 1.10064 0 3 tcp 83 ------- 0 0.0 3.0 1 3
- 1.10096 0 3 tcp 83 ------- 0 0.0 3.0 1 3
r 1.15096 0 3 tcp 40 ------- 0 0.0 3.0 1 2
r 1.151624 0 3 tcp 83 ------- 0 0.0 3.0 1 3
+ 1.151624 3 4 tcp 40 ------- 3 3.3 4.0 0 4
- 1.151624 3 4 tcp 40 ------- 3 3.3 4.0 0 4
+ 1.2 3 0 ack 40 ------- 0 3.0 0.0 1 5
- 1.2 3 0 ack 40 ------- 0 3.0 0.0 1 5
r 1.201944 3 4 tcp 40 ------- 3 3.3 4.0 0 4
+ 1.201944 4 3 ack 40 ------- 3 4.0 3.3 0 6
- 1.201944 4 3 ack 40 ------- 3 4.0 3.3 0 6
r 1.25032 3 0 ack 40 ------- 0 3.0 0.0 1 5
r 1.252264 4 3 ack 40 ------- 3 4.0 3.3 0 6
+ 1.252264 3 4 tcp 40 ------- 3 3.3 4.0 1 7
- 1.252264 3 4 tcp 40 ------- 3 3.3 4.0 1 7
+ 1.252264 3 4 tcp 83 ------- 3 3.3 4.0 1 8
- 1.252584 3 4 tcp 83 ------- 3 3.3 4.0 1 8
r 1.302584 3 4 tcp 40 ------- 3 3.3 4.0 1 7
r 1.303248 3 4 tcp 83 ------- 3 3.3 4.0 1 8
+ 1.303248 4 3 ack 576 ------- 3 4.0 3.3 1 9
- 1.303248 4 3 ack 576 ------- 3 4.0 3.3 1 9
r 1.357856 4 3 ack 576 ------- 3 4.0 3.3 1 9
+ 1.357856 3 4 tcp 40 ------- 3 3.3 4.0 44 10
- 1.357856 3 4 tcp 40 ------- 3 3.3 4.0 44 10
r 1.408176 3 4 tcp 40 ------- 3 3.3 4.0 44 10
+ 1.408176 4 3 ack 576 ------- 3 4.0 3.3 537 11
- 1.408176 4 3 ack 576 ------- 3 4.0 3.3 537 11
+ 1.408176 4 3 ack 576 ------- 3 4.0 3.3 1073 12
- 1.412784 4 3 ack 576 ------- 3 4.0 3.3 1073 12
r 1.462784 4 3 ack 576 ------- 3 4.0 3.3 537 11
+ 1.462784 3 4 tcp 40 ------- 3 3.3 4.0 44 13
- 1.462784 3 4 tcp 40 ------- 3 3.3 4.0 44 13
r 1.467392 4 3 ack 576 ------- 3 4.0 3.3 1073 12
+ 1.467392 3 4 tcp 40 ------- 3 3.3 4.0 44 14
- 1.467392 3 4 tcp 40 ------- 3 3.3 4.0 44 14
r 1.513104 3 4 tcp 40 ------- 3 3.3 4.0 44 13
r 1.517712 3 4 tcp 40 ------- 3 3.3 4.0 44 14
+ 1.517712 4 3 ack 432 ------- 3 4.0 3.3 1609 15
- 1.517712 4 3 ack 432 ------- 3 4.0 3.3 1609 15
r 1.571168 4 3 ack 432 ------- 3 4.0 3.3 1609 15
+ 1.571168 3 0 ack 576 ------- 0 3.0 0.0 1 16
- 1.571168 3 0 ack 576 ------- 0 3.0 0.0 1 16
+ 1.6 3 4 tcp 40 ------- 3 3.3 4.0 44 17
- 1.6 3 4 tcp 40 ------- 3 3.3 4.0 44 17
r 1.625776 3 0 ack 576 ------- 0 3.0 0.0 1 16
+ 1.625776 0 3 tcp 40 ------- 0 0.0 3.0 44 18
- 1.625776 0 3 tcp 40 ------- 0 0.0 3.0 44 18
r 1.65032 3 4 tcp 40 ------- 3 3.3 4.0 44 17
r 1.676096 0 3 tcp 40 ------- 0 0.0 3.0 44 18
+ 1.676096 3 0 ack 576 ------- 0 3.0 0.0 537 19
- 1.676096 3 0 ack 576 ------- 0 3.0 0.0 537 19
+ 1.676096 3 0 ack 576 ------- 0 3.0 0.0 1073 20
- 1.680704 3 0 ack 576 ------- 0 3.0 0.0 1073 20
r 1.730704 3 0 ack 576 ------- 0 3.0 0.0 537 19
+ 1.730704 0 3 tcp 40 ------- 0 0.0 3.0 44 21
- 1.730704 0 3 tcp 40 ------- 0 0.0 3.0 44 21
r 1.735312 3 0 ack 576 ------- 0 3.0 0.0 1073 20
+ 1.735312 0 3 tcp 40 ------- 0 0.0 3.0 44 22
- 1.735312 0 3 tcp 40 ------- 0 0.0 3.0 44 22
r 1.781024 0 3 tcp 40 ------- 0 0.0 3.0 44 21
r 1.785632 0 3 tcp 40 ------- 0 0.0 3.0 44 22
+ 1.785632 3 0 ack 432 ------- 0 3.0 0.0 1609 23
- 1.785632 3 0 ack 432 ------- 0 3.0 0.0 1609 23
r 1.839088 3 0 ack 432 ------- 0 3.0 0.0 1609 23
+ 1.9 0 3 tcp 40 ------- 0 0.0 3.0 44 24
- 1.9 0 3 tcp 40 ------- 0 0.0 3.0 44 24
r 1.95032 0 3 tcp 40 ------- 0 0.0 3.0 44 24
+ 2 1 3 tcp 40 ------- 1 1.0 3.1 0 25
- 2 1 3 tcp 40 ------- 1 1.0 3.1 0 25
r 2.05032 1 3 tcp 40 ------- 1 1.0 3.1 0 25
+ 2.05032 3 1 ack 40 ------- 1 3.1 1.0 0 26
- 2.05032 3 1 ack 40 ------- 1 3.1 1.0 0 26
r 2.10064 3 1 ack 40 ------- 1 3.1 1.0 0 26
+ 2.10064 1 3 tcp 40 ------- 1 1.0 3.1 1 27
- 2.10064 1 3 tcp 40 ------- 1 1.0 3.1 1 27
+ 2.10064 1 3 tcp 83 ------- 1 1.0 3.1 1 28
- 2.10096 1 3 tcp 83 ------- 1 1.0 3.1 1 28
r 2.15096 1 3 tcp 40 ------- 1 1.0 3.1 1 27
r 2.151624 1 3 tcp 83 ------- 1 1.0 3.1 1 28
+ 2.151624 3 4 tcp 83 ---A--- 3 3.3 4.0 44 29
- 2.151624 3 4 tcp 83 ---A--- 3 3.3 4.0 44 29
+ 2.2 3 1 ack 40 ------- 1 3.1 1.0 1 30
- 2.2 3 1 ack 40 ------- 1 3.1 1.0 1 30
r 2.202288 3 4 tcp 83 ---A--- 3 3.3 4.0 44 29
+ 2.202288 4 3 ack 576 ---A--- 3 4.0 3.3 2001 31
- 2.202288 4 3 ack 576 ---A--- 3 4.0 3.3 2001 31
r 2.25032 3 1 ack 40 ------- 1 3.1 1.0 1 30
r 2.256896 4 3 ack 576 ---A--- 3 4.0 3.3 2001 31
+ 2.256896 3 4 tcp 40 ------- 3 3.3 4.0 87 32
- 2.256896 3 4 tcp 40 ------- 3 3.3 4.0 87 32
r 2.307216 3 4 tcp 40 ------- 3 3.3 4.0 87 32
+ 2.307216 4 3 ack 576 ------- 3 4.0 3.3 2537 33
- 2.307216 4 3 ack 576 ------- 3 4.0 3.3 2537 33
+ 2.307216 4 3 ack 576 ------- 3 4.0 3.3 3073 34
- 2.311824 4 3 ack 576 ------- 3 4.0 3.3 3073 34
r 2.361824 4 3 ack 576 ------- 3 4.0 3.3 2537 33
+ 2.361824 3 4 tcp 40 ------- 3 3.3 4.0 87 35
- 2.361824 3 4 tcp 40 ------- 3 3.3 4.0 87 35
r 2.366432 4 3 ack 576 ------- 3 4.0 3.3 3073 34
+ 2.366432 3 4 tcp 40 ------- 3 3.3 4.0 87 36
- 2.366432 3 4 tcp 40 ------- 3 3.3 4.0 87 36
r 2.412144 3 4 tcp 40 ------- 3 3.3 4.0 87 35
r 2.416752 3 4 tcp 40 ------- 3 3.3 4.0 87 36
+ 2.416752 4 3 ack 432 ------- 3 4.0 3.3 3609 37
- 2.416752 4 3 ack 432 ------- 3 4.0 3.3 3609 37
r 2.470208 4 3 ack 432 ------- 3 4.0 3.3 3609 37
+ 2.470208 3 1 ack 576 ------- 1 3.1 1.0 1 38
- 2.470208 3 1 ack 576 ------- 1 3.1 1.0 1 38
+ 2.5 3 4 tcp 40 ------- 3 3.3 4.0 87 39
- 2.5 3 4 tcp 40 ------- 3 3.3 4.0 87 39
r 2.524816 3 1 ack 576 ------- 1 3.1 1.0 1 38
+ 2.524816 1 3 tcp 40 ------- 1 1.0 3.1 44 40
- 2.524816 1 3 tcp 40 ------- 1 1.0 3.1 44 40
r 2.55032 3 4 tcp 40 ------- 3 3.3 4.0 87 39
r 2.575136 1 3 tcp 40 ------- 1 1.0 3.1 44 40
+ 2.575136 3 1 ack 576 ------- 1 3.1 1.0 537 41
- 2.575136 3 1 ack 576 ------- 1 3.1 1.0 537 41
+ 2.575136 3 1 ack 576 ------- 1 3.1 1.0 1073 42
- 2.579744 3 1 ack 576 ------- 1 3.1 1.0 1073 42
r 2.629744 3 1 ack 576 ------- 1 3.1 1.0 537 41
+ 2.629744 1 3 tcp 40 ------- 1 1.0 3.1 44 43
- 2.629744 1 3 tcp 40 ------- 1 1.0 3.1 44 43
r 2.634352 3 1 ack 576 ------- 1 3.1 1.0 1073 42
+ 2.634352 1 3 tcp 40 ------- 1 1.0 3.1 44 44
- 2.634352 1 3 tcp 40 ------- 1 1.0 3.1 44 44
r 2.680064 1 3 tcp 40 ------- 1 1.0 3.1 44 43
r 2.684672 1 3 tcp 40 ------- 1 1.0 3.1 44 44
+ 2.684672 3 1 ack 432 ------- 1 3.1 1.0 1609 45
- 2.684672 3 1 ack 432 ------- 1 3.1 1.0 1609 45
r 2.738128 3 1 ack 432 ------- 1 3.1 1.0 1609 45
+ 2.8 1 3 tcp 40 ------- 1 1.0 3.1 44 46
- 2.8 1 3 tcp 40 ------- 1 1.0 3.1 44 46
r 2.85032 1 3 tcp 40 ------- 1 1.0 3.1 44 46
+ 3 2 3 tcp 40 ------- 2 2.0 3.2 0 47
- 3 2 3 tcp 40 ------- 2 2.0 3.2 0 47
r 3.05032 2 3 tcp 40 ------- 2 2.0 3.2 0 47
+ 3.05032 3 2 ack 40 ------- 2 3.2 2.0 0 48
- 3.05032 3 2 ack 40 ------- 2 3.2 2.0 0 48
r 3.10064 3 2 ack 40 ------- 2 3.2 2.0 0 48
+ 3.10064 2 3 tcp 40 ------- 2 2.0 3.2 1 49
- 3.10064 2 3 tcp 40 ------- 2 2.0 3.2 1 49
+ 3.10064 2 3 tcp 83 ------- 2 2.0 3.2 1 50
- 3.10096 2 3 tcp 83 ------- 2 2.0 3.2 1 50
r 3.15096 2 3 tcp 40 ------- 2 2.0 3.2 1 49
r 3.151624 2 3 tcp 83 ------- 2 2.0 3.2 1 50
+ 3.151624 3 4 tcp 90 ---A--- 3 3.3 4.0 87 51
- 3.151624 3 4 tcp 90 ---A--- 3 3.3 4.0 87 51
+ 3.2 3 2 ack 40 ------- 2 3.2 2.0 1 52
- 3.2 3 2 ack 40 ------- 2 3.2 2.0 1 52
r 3.202344 3 4 tcp 90 ---A--- 3 3.3 4.0 87 51
+ 3.202344 4 3 ack 83 ---A--- 3 4.0 3.3 4001 53
- 3.202344 4 3 ack 83 ---A--- 3 4.0 3.3 4001 53
r 3.25032 3 2 ack 40 ------- 2 3.2 2.0 1 52
r 3.253008 4 3 ack 83 ---A--- 3 4.0 3.3 4001 53
+ 3.253008 3 2 ack 576 ------- 2 3.2 2.0 1 54
- 3.253008 3 2 ack 576 ------- 2 3.2 2.0 1 54
+ 3.3 3 4 tcp 40 ------- 3 3.3 4.0 137 55
- 3.3 3 4 tcp 40 ------- 3 3.3 4.0 137 55
r 3.307616 3 2 ack 576 ------- 2 3.2 2.0 1 54
+ 3.307616 2 3 tcp 40 ------- 2 2.0 3.2 44 56
- 3.307616 2 3 tcp 40 ------- 2 2.0 3.2 44 56
r 3.35032 3 4 tcp 40 ------- 3 3.3 4.0 137 55
r 3.357936 2 3 tcp 40 ------- 2 2.0 3.2 44 56
+ 3.357936 3 2 ack 576 ------- 2 3.2 2.0 537 57
- 3.357936 3 2 ack 576 ------- 2 3.2 2.0 537 57
+ 3.357936 3 2 ack 576 ------- 2 3.2 2.0 1073 58
- 3.362544 3 2 ack 576 ------- 2 3.2 2.0 1073 58
r 3.412544 3 2 ack 576 ------- 2 3.2 2.0 537 57
+ 3.412544 2 3 tcp 40 ------- 2 2.0 3.2 44 59
- 3.412544 2 3 tcp 40 ------- 2 2.0 3.2 44 59
r 3.417152 3 2 ack 576 ------- 2 3.2 2.0 1073 58
+ 3.417152 2 3 tcp 40 ------- 2 2.0 3.2 44 60
- 3.417152 2 3 tcp 40 ------- 2 2.0 3.2 44 60
r 3.462864 2 3 tcp 40 ------- 2 2.0 3.2 44 59
r 3.467472 2 3 tcp 40 ------- 2 2.0 3.2 44 60
+ 3.467472 3 2 ack 432 ------- 2 3.2 2.0 1609 61
- 3.467472 3 2 ack 432 ------- 2 3.2 2.0 1609 61
r 3.520928 3 2 ack 432 ------- 2 3.2 2.0 1609 61
+ 3.6 2 3 tcp 40 ------- 2 2.0 3.2 44 62
- 3.6 2 3 tcp 40 ------- 2 2.0 3.2 44 62
r 3.65032 2 3 tcp 40 ------- 2 2.0 3.2 44 62
+ 6 0 3 tcp 83 ---A--- 0 0.0 3.0 44 63
- 6 0 3 tcp 83 ---A--- 0 0.0 3.0 44 63
r 6.050664 0 3 tcp 83 ---A--- 0 0.0 3.0 44 63
+ 6.050664 3 4 tcp 90 ---A--- 3 3.3 4.0 137 64
- 6.050664 3 4 tcp 90 ---A--- 3 3.3 4.0 137 64
+ 6.1 3 0 ack 40 ------- 0 3.0 0.0 2001 65
- 6.1 3 0 ack 40 ------- 0 3.0 0.0 2001 65
r 6.101384 3 4 tcp 90 ---A--- 3 3.3 4.0 137 64
+ 6.101384 4 3 ack 83 ---A--- 3 4.0 3.3 4044 66
- 6.101384 4 3 ack 83 ---A--- 3 4.0 3.3 4044 66
r 6.15032 3 0 ack 40 ------- 0 3.0 0.0 2001 65
r 6.152048 4 3 ack 83 ---A--- 3 4.0 3.3 4044 66
+ 6.152048 3 0 ack 576 ---A--- 0 3.0 0.0 2001 67
- 6.152048 3 0 ack 576 ---A--- 0 3.0 0.0 2001 67
+ 6.2 3 4 tcp 40 ------- 3 3.3 4.0 187 68
- 6.2 3 4 tcp 40 ------- 3 3.3 4.0 187 68
r 6.206656 3 0 ack 576 ---A--- 0 3.0 0.0 2001 67
+ 6.206656 0 3 tcp 40 ------- 0 0.0 3.0 87 69
- 6.206656 0 3 tcp 40 ------- 0 0.0 3.0 87 69
r 6.25032 3 4 tcp 40 ------- 3 3.3 4.0 187 68
r 6.256976 0 3 tcp 40 ------- 0 0.0 3.0 87 69
+ 6.256976 3 0 ack 576 ------- 0 3.0 0.0 2537 70
- 6.256976 3 0 ack 576 ------- 0 3.0 0.0 2537 70
+ 6.256976 3 0 ack 576 ------- 0 3.0 0.0 3073 71
- 6.261584 3 0 ack 576 ------- 0 3.0 0.0 3073 71
r 6.311584 3 0 ack 576 ------- 0 3.0 0.0 2537 70
+ 6.311584 0 3 tcp 40 ------- 0 0.0 3.0 87 72
- 6.311584 0 3 tcp 40 ------- 0 0.0 3.0 87 72
r 6.316192 3 0 ack 576 ------- 0 3.0 0.0 3073 71
+ 6.316192 0 3 tcp 40 ------- 0 0.0 3.0 87 73
- 6.316192 0 3 tcp 40 ------- 0 0.0 3.0 87 73
r 6.361904 0 3 tcp 40 ------- 0 0.0 3.0 87 72
r 6.366512 0 3 tcp 40 ------- 0 0.0 3.0 87 73
+ 6.366512 3 0 ack 432 ------- 0 3.0 0.0 3609 74
- 6.366512 3 0 ack 432 ------- 0 3.0 0.0 3609 74
r 6.419968 3 0 ack 432 ------- 0 3.0 0.0 3609 74
+ 6.5 0 3 tcp 40 ------- 0 0.0 3.0 87 75
- 6.5 0 3 tcp 40 ------- 0 0.0 3.0 87 75
r 6.55032 0 3 tcp 40 ------- 0 0.0 3.0 87 75
+ 7 1 3 tcp 83 ---A--- 1 1.0 3.1 44 76
- 7 1 3 tcp 83 ---A--- 1 1.0 3.1 44 76
r 7.050664 1 3 tcp 83 ---A--- 1 1.0 3.1 44 76
+ 7.050664 3 4 tcp 90 ---A--- 3 3.3 4.0 187 77
- 7.050664 3 4 tcp 90 ---A--- 3 3.3 4.0 187 77
+ 7.1 3 1 ack 40 ------- 1 3.1 1.0 2001 78
- 7.1 3 1 ack 40 ------- 1 3.1 1.0 2001 78
r 7.101384 3 4 tcp 90 ---A--- 3 3.3 4.0 187 77
+ 7.101384 4 3 ack 83 ---A--- 3 4.0 3.3 4087 79
- 7.101384 4 3 ack 83 ---A--- 3 4.0 3.3 4087 79
r 7.15032 3 1 ack 40 ------- 1 3.1 1.0 2001 78
r 7.152048 4 3 ack 83 ---A--- 3 4.0 3.3 4087 79
+ 7.152048 3 1 ack 576 ---A--- 1 3.1 1.0 2001 80
- 7.152048 3 1 ack 576 ---A--- 1 3.1 1.0 2001 80
+ 7.2 3 4 tcp 40 ------- 3 3.3 4.0 237 81
- 7.2 3 4 tcp 40 ------- 3 3.3 4.0 237 81
r 7.206656 3 1 ack 576 ---A--- 1 3.1 1.0 2001 80
+ 7.206656 1 3 tcp 40 ------- 1 1.0 3.1 87 82
- 7.206656 1 3 tcp 40 ------- 1 1.0 3.1 87 82
r 7.25032 3 4 tcp 40 ------- 3 3.3 4.0 237 81
r 7.256976 1 3 tcp 40 ------- 1 1.0 3.1 87 82
+ 7.256976 3 1 ack 576 ------- 1 3.1 1.0 2537 83
- 7.256976 3 1 ack 576 ------- 1 3.1 1.0 2537 83
+ 7.256976 3 1 ack 576 ------- 1 3.1 1.0 3073 84
- 7.261584 3 1 ack 576 ------- 1 3.1 1.0 3073 84
r 7.311584 3 1 ack 576 ------- 1 3.1 1.0 2537 83
+ 7.311584 1 3 tcp 40 ------- 1 1.0 3.1 87 85
- 7.311584 1 3 tcp 40 ------- 1 1.0 3.1 87 85
r 7.316192 3 1 ack 576 ------- 1 3.1 1.0 3073 84
+ 7.316192 1 3 tcp 40 ------- 1 1.0 3.1 87 86
- 7.316192 1 3 tcp 40 ------- 1 1.0 3.1 87 86
r 7.361904 1 3 tcp 40 ------- 1 1.0 3.1 87 85
r 7.366512 1 3 tcp 40 ------- 1 1.0 3.1 87 86
+ 7.366512 3 1 ack 432 ------- 1 3.1 1.0 3609 87
- 7.366512 3 1 ack 432 ------- 1 3.1 1.0 3609 87
r 7.419968 3 1 ack 432 ------- 1 3.1 1.0 3609 87
+ 7.5 1 3 tcp 40 ------- 1 1.0 3.1 87 88
- 7.5 1 3 tcp 40 ------- 1 1.0 3.1 87 88
r 7.55032 1 3 tcp 40 ------- 1 1.0 3.1 87 88
+ 8 2 3 tcp 83 ---A--- 2 2.0 3.2 44 89
- 8 2 3 tcp 83 ---A--- 2 2.0 3.2 44 89
r 8.050664 2 3 tcp 83 ---A--- 2 2.0 3.2 44 89
+ 8.050664 3 4 tcp 90 ---A--- 3 3.3 4.0 237 90
- 8.050664 3 4 tcp 90 ---A--- 3 3.3 4.0 237 90
+ 8.1 3 2 ack 40 ------- 2 3.2 2.0 2001 91
- 8.1 3 2 ack 40 ------- 2 3.2 2.0 2001 91
r 8.101384 3 4 tcp 90 ---A--- 3 3.3 4.0 237 90
+ 8.101384 4 3 ack 83 ---A--- 3 4.0 3.3 4130 92
- 8.101384 4 3 ack 83 ---A--- 3 4.0 3.3 4130 92
r 8.15032 3 2 ack 40 ------- 2 3.2 2.0 2001 91
r 8.152048 4 3 ack 83 ---A--- 3 4.0 3.3 4130 92
+ 8.152048 3 2 ack 576 ---A--- 2 3.2 2.0 2001 93
- 8.152048 3 2 ack 576 ---A--- 2 3.2 2.0 2001 93
+ 8.2 3 4 tcp 40 ------- 3 3.3 4.0 287 94
- 8.2 3 4 tcp 40 ------- 3 3.3 4.0 287 94
r 8.206656 3 2 ack 576 ---A--- 2 3.2 2.0 2001 93
+ 8.206656 2 3 tcp 40 ------- 2 2.0 3.2 87 95
- 8.206656 2 3 tcp 40 ------- 2 2.0 3.2 87 95
r 8.25032 3 4 tcp 40 ------- 3 3.3 4.0 287 94
r 8.256976 2 3 tcp 40 ------- 2 2.0 3.2 87 95
+ 8.256976 3 2 ack 576 ------- 2 3.2 2.0 2537 96
- 8.256976 3 2 ack 576 ------- 2 3.2 2.0 2537 96
+ 8.256976 3 2 ack 576 ------- 2 3.2 2.0 3073 97
- 8.261584 3 2 ack 576 ------- 2 3.2 2.0 3073 97
r 8.311584 3 2 ack 576 ------- 2 3.2 2.0 2537 96
+ 8.311584 2 3 tcp 40 ------- 2 2.0 3.2 87 98
- 8.311584 2 3 tcp 40 ------- 2 2.0 3.2 87 98
r 8.316192 3 2 ack 576 ------- 2 3.2 2.0 3073 97
+ 8.316192 2 3 tcp 40 ------- 2 2.0 3.2 87 99
- 8.316192 2 3 tcp 40 ------- 2 2.0 3.2 87 99
r 8.361904 2 3 tcp 40 ------- 2 2.0 3.2 87 98
r 8.366512 2 3 tcp 40 ------- 2 2.0 3.2 87 99
+ 8.366512 3 2 ack 432 ------- 2 3.2 2.0 3609 100
- 8.366512 3 2 ack 432 ------- 2 3.2 2.0 3609 100
r 8.419968 3 2 ack 432 ------- 2 3.2 2.0 3609 100
+ 8.5 2 3 tcp 40 ------- 2 2.0 3.2 87 101
- 8.5 2 3 tcp 40 ------- 2 2.0 3.2 87 101
r 8.55032 2 3 tcp 40 ------- 2 2.0 3.2 87 101
+ 10 3 0 ack 40 ------- 0 3.0 0.0 4001 102
- 10 3 0 ack 40 ------- 0 3.0 0.0 4001 102
+ 10 0 3 tcp 40 ------- 0 0.0 3.0 87 103
- 10 0 3 tcp 40 ------- 0 0.0 3.0 87 103
+ 10 3 1 ack 40 ------- 1 3.1 1.0 4001 104
- 10 3 1 ack 40 ------- 1 3.1 1.0 4001 104
+ 10 1 3 tcp 40 ------- 1 1.0 3.1 87 105
- 10 1 3 tcp 40 ------- 1 1.0 3.1 87 105
+ 10 3 2 ack 40 ------- 2 3.2 2.0 4001 106
- 10 3 2 ack 40 ------- 2 3.2 2.0 4001 106
+ 10 2 3 tcp 40 ------- 2 2.0 3.2 87 107
- 10 2 3 tcp 40 ------- 2 2.0 3.2 87 107
+ 10 4 3 ack 40 ------- 3 4.0 3.3 4173 108
- 10 4 3 ack 40 ------- 3 4.0 3.3 4173 108
+ 10 3 4 tcp 40 ------- 3 3.3 4.0 287 109
- 10 3 4 tcp 40 ------- 3 3.3 4.0 287 109
r 10.05032 3 0 ack 40 ------- 0 3.0 0.0 4001 102
+ 10.05032 0 3 tcp 40 ------- 0 0.0 3.0 87 110
- 10.05032 0 3 tcp 40 ------- 0 0.0 3.0 87 110
r 10.05032 0 3 tcp 40 ------- 0 0.0 3.0 87 103
+ 10.05032 3 0 ack 40 ------- 0 3.0 0.0 4001 111
- 10.05032 3 0 ack 40 ------- 0 3.0 0.0 4001 111
r 10.05032 3 1 ack 40 ------- 1 3.1 1.0 4001 104
+ 10.05032 1 3 tcp 40 ------- 1 1.0 3.1 87 112
- 10.05032 1 3 tcp 40 ------- 1 1.0 3.1 87 112
r 10.05032 1 3 tcp 40 ------- 1 1.0 3.1 87 105
+ 10.05032 3 1 ack 40 ------- 1 3.1 1.0 4001 113
- 10.05032 3 1 ack 40 ------- 1 3.1 1.0 4001 113
r 10.05032 3 2 ack 40 ------- 2 3.2 2.0 4001 106
+ 10.05032 2 3 tcp 40 ------- 2 2.0 3.2 87 114
- 10.05032 2 3 tcp 40 ------- 2 2.0 3.2 87 114
r 10.05032 2 3 tcp 40 ------- 2 2.0 3.2 87 107
+ 10.05032 3 2 ack 40 ------- 2 3.2 2.0 4001 115
- 10.05032 3 2 ack 40 ------- 2 3.2 2.0 4001 115
r 10.05032 4 3 ack 40 ------- 3 4.0 3.3 4173 108
+ 10.05032 3 4 tcp 40 ------- 3 3.3 4.0 287 116
- 10.05032 3 4 tcp 40 ------- 3 3.3 4.0 287 116
r 10.05032 3 4 tcp 40 ------- 3 3.3 4.0 287 109
+ 10.05032 4 3 ack 40 ------- 3 4.0 3.3 4173 117
- 10.05032 4 3 ack 40 ------- 3 4.0 3.3 4173 117
r 10.10064 0 3 tcp 40 ------- 0 0.0 3.0 87 110
r 10.10064 3 0 ack 40 ------- 0 3.0 0.0 4001 111
r 10.10064 1 3 tcp 40 ------- 1 1.0 3.1 87 112
r 10.10064 3 1 ack 40 ------- 1 3.1 1.0 4001 113
r 10.10064 2 3 tcp 40 ------- 2 2.0 3.2 87 114
r 10.10064 3 2 ack 40 ------- 2 3.2 2.0 4001 115
r 10.10064 3 4 tcp 40 ------- 3 3.3 4.0 287 116
r 10.10064 4 3 ack 40 ------- 3 4.0 3.3 4173 117
