# TESTNAME: http3f
# TOPOLOGY: 5node
# avg-comp-page-age: 40000
# avg-page-age: 60
# avg-page-size: 1024
# avg-req-interval: 60
# client-req-size: 43
# comp-page-size: 51200
# duration: 500
# enable-log: 0
# hb-interval: 30
# max-page-age: 70
# max-page-size: 50000
# max-req-interval: 70
# min-page-age: 50
# min-page-size: 100
# min-req-interval: 50
# nam-trace-all: 1
# ns-random-seed: 188312339
# num-2nd-cache: 5
# num-comp-pages: 1
# prot: http3f
# scheduler-type: Calendar
# single-page: 1
# ttl: 0.1
# upd-interval: 5
# xtrace-page: webtrace-pglog
# xtrace-req: webtrace-reqlog
+ 1 0 3 tcp 40 ------- 0 0.0 3.0 0 0
- 1 0 3 tcp 40 ------- 0 0.0 3.0 0 0
r 1.05032 0 3 tcp 40 ------- 0 0.0 3.0 0 0
+ 1.05032 3 0 ack 40 ------- 0 3.0 0.0 0 1
- 1.05032 3 0 ack 40 ------- 0 3.0 0.0 0 1
r 1.10064 3 0 ack 40 ------- 0 3.0 0.0 0 1
+ 1.10064 0 3 tcp 40 ------- 0 0.0 3.0 1 2
- 1.10064 0 3 tcp 40 ------- 0 0.0 3.0 1 2
+ 1.10064 0 3 tcp 83 ------- 0 0.0 3.0 1 3
- 1.10096 0 3 tcp 83 ------- 0 0.0 3.0 1 3
r 1.15096 0 3 tcp 40 ------- 0 0.0 3.0 1 2
r 1.151624 0 3 tcp 83 ------- 0 0.0 3.0 1 3
+ 1.151624 3 4 tcp 40 ------- 3 3.3 4.0 0 4
- 1.151624 3 4 tcp 40 ------- 3 3.3 4.0 0 4
+ 1.2 3 0 ack 40 ------- 0 3.0 0.0 1 5
- 1.2 3 0 ack 40 ------- 0 3.0 0.0 1 5
r 1.201944 3 4 tcp 40 ------- 3 3.3 4.0 0 4
+ 1.201944 4 3 ack 40 ------- 3 4.0 3.3 0 6
- 1.201944 4 3 ack 40 ------- 3 4.0 3.3 0 6
r 1.25032 3 0 ack 40 ------- 0 3.0 0.0 1 5
r 1.252264 4 3 ack 40 ------- 3 4.0 3.3 0 6
+ 1.252264 3 4 tcp 40 ------- 3 3.3 4.0 1 7
- 1.252264 3 4 tcp 40 ------- 3 3.3 4.0 1 7
+ 1.252264 3 4 tcp 83 ------- 3 3.3 4.0 1 8
- 1.252584 3 4 tcp 83 ------- 3 3.3 4.0 1 8
r 1.302584 3 4 tcp 40 ------- 3 3.3 4.0 1 7
r 1.303248 3 4 tcp 83 ------- 3 3.3 4.0 1 8
+ 1.303248 4 3 ack 576 ------- 3 4.0 3.3 1 9
- 1.303248 4 3 ack 576 ------- 3 4.0 3.3 1 9
r 1.357856 4 3 ack 576 ------- 3 4.0 3.3 1 9
+ 1.357856 3 4 tcp 40 ------- 3 3.3 4.0 44 10
- 1.357856 3 4 tcp 40 ------- 3 3.3 4.0 44 10
r 1.408176 3 4 tcp 40 ------- 3 3.3 4.0 44 10
+ 1.408176 4 3 ack 576 ------- 3 4.0 3.3 537 11
- 1.408176 4 3 ack 576 ------- 3 4.0 3.3 537 11
+ 1.408176 4 3 ack 576 ------- 3 4.0 3.3 1073 12
- 1.412784 4 3 ack 576 ------- 3 4.0 3.3 1073 12
r 1.462784 4 3 ack 576 ------- 3 4.0 3.3 537 11
+ 1.462784 3 4 tcp 40 ------- 3 3.3 4.0 44 13
- 1.462784 3 4 tcp 40 ------- 3 3.3 4.0 44 13
r 1.467392 4 3 ack 576 ------- 3 4.0 3.3 1073 12
+ 1.467392 3 4 tcp 40 ------- 3 3.3 4.0 44 14
- 1.467392 3 4 tcp 40 ------- 3 3.3 4.0 44 14
r 1.513104 3 4 tcp 40 ------- 3 3.3 4.0 44 13
r 1.517712 3 4 tcp 40 ------- 3 3.3 4.0 44 14
+ 1.517712 4 3 ack 432 ------- 3 4.0 3.3 1609 15
- 1.517712 4 3 ack 432 ------- 3 4.0 3.3 1609 15
r 1.571168 4 3 ack 432 ------- 3 4.0 3.3 1609 15
+ 1.571168 3 0 ack 576 ------- 0 3.0 0.0 1 16
- 1.571168 3 0 ack 576 ------- 0 3.0 0.0 1 16
+ 1.6 3 4 tcp 40 ------- 3 3.3 4.0 44 17
- 1.6 3 4 tcp 40 ------- 3 3.3 4.0 44 17
r 1.625776 3 0 ack 576 ------- 0 3.0 0.0 1 16
+ 1.625776 0 3 tcp 40 ------- 0 0.0 3.0 44 18
- 1.625776 0 3 tcp 40 ------- 0 0.0 3.0 44 18
r 1.65032 3 4 tcp 40 ------- 3 3.3 4.0 44 17
r 1.676096 0 3 tcp 40 ------- 0 0.0 3.0 44 18
+ 1.676096 3 0 ack 576 ------- 0 3.0 0.0 537 19
- 1.676096 3 0 ack 576 ------- 0 3.0 0.0 537 19
+ 1.676096 3 0 ack 576 ------- 0 3.0 0.0 1073 20
- 1.680704 3 0 ack 576 ------- 0 3.0 0.0 1073 20
r 1.730704 3 0 ack 576 ------- 0 3.0 0.0 537 19
+ 1.730704 0 3 tcp 40 ------- 0 0.0 3.0 44 21
- 1.730704 0 3 tcp 40 ------- 0 0.0 3.0 44 21
r 1.735312 3 0 ack 576 ------- 0 3.0 0.0 1073 20
+ 1.735312 0 3 tcp 40 ------- 0 0.0 3.0 44 22
- 1.735312 0 3 tcp 40 ------- 0 0.0 3.0 44 22
r 1.781024 0 3 tcp 40 ------- 0 0.0 3.0 44 21
r 1.785632 0 3 tcp 40 ------- 0 0.0 3.0 44 22
+ 1.785632 3 0 ack 432 ------- 0 3.0 0.0 1609 23
- 1.785632 3 0 ack 432 ------- 0 3.0 0.0 1609 23
r 1.839088 3 0 ack 432 ------- 0 3.0 0.0 1609 23
+ 1.9 0 3 tcp 40 ------- 0 0.0 3.0 44 24
- 1.9 0 3 tcp 40 ------- 0 0.0 3.0 44 24
r 1.95032 0 3 tcp 40 ------- 0 0.0 3.0 44 24
+ 2 1 3 tcp 40 ------- 1 1.0 3.1 0 25
- 2 1 3 tcp 40 ------- 1 1.0 3.1 0 25
r 2.05032 1 3 tcp 40 ------- 1 1.0 3.1 0 25
+ 2.05032 3 1 ack 40 ------- 1 3.1 1.0 0 26
- 2.05032 3 1 ack 40 ------- 1 3.1 1.0 0 26
r 2.10064 3 1 ack 40 ------- 1 3.1 1.0 0 26
+ 2.10064 1 3 tcp 40 ------- 1 1.0 3.1 1 27
- 2.10064 1 3 tcp 40 ------- 1 1.0 3.1 1 27
+ 2.10064 1 3 tcp 83 ------- 1 1.0 3.1 1 28
- 2.10096 1 3 tcp 83 ------- 1 1.0 3.1 1 28
r 2.15096 1 3 tcp 40 ------- 1 1.0 3.1 1 27
r 2.151624 1 3 tcp 83 ------- 1 1.0 3.1 1 28
+ 2.151624 3 4 tcp 83 ---A--- 3 3.3 4.0 44 29
- 2.151624 3 4 tcp 83 ---A--- 3 3.3 4.0 44 29
+ 2.2 3 1 ack 40 ------- 1 3.1 1.0 1 30
- 2.2 3 1 ack 40 ------- 1 3.1 1.0 1 30
r 2.202288 3 4 tcp 83 ---A--- 3 3.3 4.0 44 29
+ 2.202288 4 3 ack 576 ---A--- 3 4.0 3.3 2001 31
- 2.202288 4 3 ack 576 ---A--- 3 4.0 3.3 2001 31
r 2.25032 3 1 ack 40 ------- 1 3.1 1.0 1 30
r 2.256896 4 3 ack 576 ---A--- 3 4.0 3.3 2001 31
+ 2.256896 3 4 tcp 40 ------- 3 3.3 4.0 87 32
- 2.256896 3 4 tcp 40 ------- 3 3.3 4.0 87 32
r 2.307216 3 4 tcp 40 ------- 3 3.3 4.0 87 32
+ 2.307216 4 3 ack 576 ------- 3 4.0 3.3 2537 33
- 2.307216 4 3 ack 576 ------- 3 4.0 3.3 2537 33
+ 2.307216 4 3 ack 576 ------- 3 4.0 3.3 3073 34
- 2.311824 4 3 ack 576 ------- 3 4.0 3.3 3073 34
r 2.361824 4 3 ack 576 ------- 3 4.0 3.3 2537 33
+ 2.361824 3 4 tcp 40 ------- 3 3.3 4.0 87 35
- 2.361824 3 4 tcp 40 ------- 3 3.3 4.0 87 35
r 2.366432 4 3 ack 576 ------- 3 4.0 3.3 3073 34
+ 2.366432 3 4 tcp 40 ------- 3 3.3 4.0 87 36
- 2.366432 3 4 tcp 40 ------- 3 3.3 4.0 87 36
r 2.412144 3 4 tcp 40 ------- 3 3.3 4.0 87 35
r 2.416752 3 4 tcp 40 ------- 3 3.3 4.0 87 36
+ 2.416752 4 3 ack 432 ------- 3 4.0 3.3 3609 37
- 2.416752 4 3 ack 432 ------- 3 4.0 3.3 3609 37
r 2.470208 4 3 ack 432 ------- 3 4.0 3.3 3609 37
+ 2.470208 3 1 ack 576 ------- 1 3.1 1.0 1 38
- 2.470208 3 1 ack 576 ------- 1 3.1 1.0 1 38
+ 2.5 3 4 tcp 40 ------- 3 3.3 4.0 87 39
- 2.5 3 4 tcp 40 ------- 3 3.3 4.0 87 39
r 2.524816 3 1 ack 576 ------- 1 3.1 1.0 1 38
+ 2.524816 1 3 tcp 40 ------- 1 1.0 3.1 44 40
- 2.524816 1 3 tcp 40 ------- 1 1.0 3.1 44 40
r 2.55032 3 4 tcp 40 ------- 3 3.3 4.0 87 39
r 2.575136 1 3 tcp 40 ------- 1 1.0 3.1 44 40
+ 2.575136 3 1 ack 576 ------- 1 3.1 1.0 537 41
- 2.575136 3 1 ack 576 ------- 1 3.1 1.0 537 41
+ 2.575136 3 1 ack 576 ------- 1 3.1 1.0 1073 42
- 2.579744 3 1 ack 576 ------- 1 3.1 1.0 1073 42
r 2.629744 3 1 ack 576 ------- 1 3.1 1.0 537 41
+ 2.629744 1 3 tcp 40 ------- 1 1.0 3.1 44 43
- 2.629744 1 3 tcp 40 ------- 1 1.0 3.1 44 43
r 2.634352 3 1 ack 576 ------- 1 3.1 1.0 1073 42
+ 2.634352 1 3 tcp 40 ------- 1 1.0 3.1 44 44
- 2.634352 1 3 tcp 40 ------- 1 1.0 3.1 44 44
r 2.680064 1 3 tcp 40 ------- 1 1.0 3.1 44 43
r 2.684672 1 3 tcp 40 ------- 1 1.0 3.1 44 44
+ 2.684672 3 1 ack 432 ------- 1 3.1 1.0 1609 45
- 2.684672 3 1 ack 432 ------- 1 3.1 1.0 1609 45
r 2.738128 3 1 ack 432 ------- 1 3.1 1.0 1609 45
+ 2.8 1 3 tcp 40 ------- 1 1.0 3.1 44 46
- 2.8 1 3 tcp 40 ------- 1 1.0 3.1 44 46
r 2.85032 1 3 tcp 40 ------- 1 1.0 3.1 44 46
+ 3 2 3 tcp 40 ------- 2 2.0 3.2 0 47
- 3 2 3 tcp 40 ------- 2 2.0 3.2 0 47
r 3.05032 2 3 tcp 40 ------- 2 2.0 3.2 0 47
+ 3.05032 3 2 ack 40 ------- 2 3.2 2.0 0 48
- 3.05032 3 2 ack 40 ------- 2 3.2 2.0 0 48
r 3.10064 3 2 ack 40 ------- 2 3.2 2.0 0 48
+ 3.10064 2 3 tcp 40 ------- 2 2.0 3.2 1 49
- 3.10064 2 3 tcp 40 ------- 2 2.0 3.2 1 49
+ 3.10064 2 3 tcp 83 ------- 2 2.0 3.2 1 50
- 3.10096 2 3 tcp 83 ------- 2 2.0 3.2 1 50
r 3.15096 2 3 tcp 40 ------- 2 2.0 3.2 1 49
r 3.151624 2 3 tcp 83 ------- 2 2.0 3.2 1 50
+ 3.151624 3 2 ack 576 ------- 2 3.2 2.0 1 51
- 3.151624 3 2 ack 576 ------- 2 3.2 2.0 1 51
r 3.206232 3 2 ack 576 ------- 2 3.2 2.0 1 51
+ 3.206232 2 3 tcp 40 ------- 2 2.0 3.2 44 52
- 3.206232 2 3 tcp 40 ------- 2 2.0 3.2 44 52
r 3.256552 2 3 tcp 40 ------- 2 2.0 3.2 44 52
+ 3.256552 3 2 ack 576 ------- 2 3.2 2.0 537 53
- 3.256552 3 2 ack 576 ------- 2 3.2 2.0 537 53
+ 3.256552 3 2 ack 576 ------- 2 3.2 2.0 1073 54
- 3.26116 3 2 ack 576 ------- 2 3.2 2.0 1073 54
r 3.31116 3 2 ack 576 ------- 2 3.2 2.0 537 53
+ 3.31116 2 3 tcp 40 ------- 2 2.0 3.2 44 55
- 3.31116 2 3 tcp 40 ------- 2 2.0 3.2 44 55
r 3.315768 3 2 ack 576 ------- 2 3.2 2.0 1073 54
+ 3.315768 2 3 tcp 40 ------- 2 2.0 3.2 44 56
- 3.315768 2 3 tcp 40 ------- 2 2.0 3.2 44 56
r 3.36148 2 3 tcp 40 ------- 2 2.0 3.2 44 55
r 3.366088 2 3 tcp 40 ------- 2 2.0 3.2 44 56
+ 3.366088 3 2 ack 432 ------- 2 3.2 2.0 1609 57
- 3.366088 3 2 ack 432 ------- 2 3.2 2.0 1609 57
r 3.419544 3 2 ack 432 ------- 2 3.2 2.0 1609 57
+ 3.5 2 3 tcp 40 ------- 2 2.0 3.2 44 58
- 3.5 2 3 tcp 40 ------- 2 2.0 3.2 44 58
r 3.55032 2 3 tcp 40 ------- 2 2.0 3.2 44 58
+ 5 0 3 tcp 83 ---A--- 0 0.0 3.0 44 59
- 5 0 3 tcp 83 ---A--- 0 0.0 3.0 44 59
r 5.050664 0 3 tcp 83 ---A--- 0 0.0 3.0 44 59
+ 5.050664 3 0 ack 576 ---A--- 0 3.0 0.0 2001 60
- 5.050664 3 0 ack 576 ---A--- 0 3.0 0.0 2001 60
r 5.105272 3 0 ack 576 ---A--- 0 3.0 0.0 2001 60
+ 5.105272 0 3 tcp 40 ------- 0 0.0 3.0 87 61
- 5.105272 0 3 tcp 40 ------- 0 0.0 3.0 87 61
r 5.155592 0 3 tcp 40 ------- 0 0.0 3.0 87 61
+ 5.155592 3 0 ack 576 ------- 0 3.0 0.0 2537 62
- 5.155592 3 0 ack 576 ------- 0 3.0 0.0 2537 62
+ 5.155592 3 0 ack 576 ------- 0 3.0 0.0 3073 63
- 5.1602 3 0 ack 576 ------- 0 3.0 0.0 3073 63
r 5.2102 3 0 ack 576 ------- 0 3.0 0.0 2537 62
+ 5.2102 0 3 tcp 40 ------- 0 0.0 3.0 87 64
- 5.2102 0 3 tcp 40 ------- 0 0.0 3.0 87 64
r 5.214808 3 0 ack 576 ------- 0 3.0 0.0 3073 63
+ 5.214808 0 3 tcp 40 ------- 0 0.0 3.0 87 65
- 5.214808 0 3 tcp 40 ------- 0 0.0 3.0 87 65
r 5.26052 0 3 tcp 40 ------- 0 0.0 3.0 87 64
r 5.265128 0 3 tcp 40 ------- 0 0.0 3.0 87 65
+ 5.265128 3 0 ack 432 ------- 0 3.0 0.0 3609 66
- 5.265128 3 0 ack 432 ------- 0 3.0 0.0 3609 66
r 5.318584 3 0 ack 432 ------- 0 3.0 0.0 3609 66
+ 5.4 0 3 tcp 40 ------- 0 0.0 3.0 87 67
- 5.4 0 3 tcp 40 ------- 0 0.0 3.0 87 67
r 5.45032 0 3 tcp 40 ------- 0 0.0 3.0 87 67
+ 6 1 3 tcp 83 ---A--- 1 1.0 3.1 44 68
- 6 1 3 tcp 83 ---A--- 1 1.0 3.1 44 68
r 6.050664 1 3 tcp 83 ---A--- 1 1.0 3.1 44 68
+ 6.050664 3 1 ack 576 ---A--- 1 3.1 1.0 2001 69
- 6.050664 3 1 ack 576 ---A--- 1 3.1 1.0 2001 69
r 6.105272 3 1 ack 576 ---A--- 1 3.1 1.0 2001 69
+ 6.105272 1 3 tcp 40 ------- 1 1.0 3.1 87 70
- 6.105272 1 3 tcp 40 ------- 1 1.0 3.1 87 70
r 6.155592 1 3 tcp 40 ------- 1 1.0 3.1 87 70
+ 6.155592 3 1 ack 576 ------- 1 3.1 1.0 2537 71
- 6.155592 3 1 ack 576 ------- 1 3.1 1.0 2537 71
+ 6.155592 3 1 ack 576 ------- 1 3.1 1.0 3073 72
- 6.1602 3 1 ack 576 ------- 1 3.1 1.0 3073 72
r 6.2102 3 1 ack 576 ------- 1 3.1 1.0 2537 71
+ 6.2102 1 3 tcp 40 ------- 1 1.0 3.1 87 73
- 6.2102 1 3 tcp 40 ------- 1 1.0 3.1 87 73
r 6.214808 3 1 ack 576 ------- 1 3.1 1.0 3073 72
+ 6.214808 1 3 tcp 40 ------- 1 1.0 3.1 87 74
- 6.214808 1 3 tcp 40 ------- 1 1.0 3.1 87 74
r 6.26052 1 3 tcp 40 ------- 1 1.0 3.1 87 73
r 6.265128 1 3 tcp 40 ------- 1 1.0 3.1 87 74
+ 6.265128 3 1 ack 432 ------- 1 3.1 1.0 3609 75
- 6.265128 3 1 ack 432 ------- 1 3.1 1.0 3609 75
r 6.318584 3 1 ack 432 ------- 1 3.1 1.0 3609 75
+ 6.4 1 3 tcp 40 ------- 1 1.0 3.1 87 76
- 6.4 1 3 tcp 40 ------- 1 1.0 3.1 87 76
r 6.45032 1 3 tcp 40 ------- 1 1.0 3.1 87 76
+ 7 2 3 tcp 83 ---A--- 2 2.0 3.2 44 77
- 7 2 3 tcp 83 ---A--- 2 2.0 3.2 44 77
r 7.050664 2 3 tcp 83 ---A--- 2 2.0 3.2 44 77
+ 7.050664 3 2 ack 576 ---A--- 2 3.2 2.0 2001 78
- 7.050664 3 2 ack 576 ---A--- 2 3.2 2.0 2001 78
r 7.105272 3 2 ack 576 ---A--- 2 3.2 2.0 2001 78
+ 7.105272 2 3 tcp 40 ------- 2 2.0 3.2 87 79
- 7.105272 2 3 tcp 40 ------- 2 2.0 3.2 87 79
r 7.155592 2 3 tcp 40 ------- 2 2.0 3.2 87 79
+ 7.155592 3 2 ack 576 ------- 2 3.2 2.0 2537 80
- 7.155592 3 2 ack 576 ------- 2 3.2 2.0 2537 80
+ 7.155592 3 2 ack 576 ------- 2 3.2 2.0 3073 81
- 7.1602 3 2 ack 576 ------- 2 3.2 2.0 3073 81
r 7.2102 3 2 ack 576 ------- 2 3.2 2.0 2537 80
+ 7.2102 2 3 tcp 40 ------- 2 2.0 3.2 87 82
- 7.2102 2 3 tcp 40 ------- 2 2.0 3.2 87 82
r 7.214808 3 2 ack 576 ------- 2 3.2 2.0 3073 81
+ 7.214808 2 3 tcp 40 ------- 2 2.0 3.2 87 83
- 7.214808 2 3 tcp 40 ------- 2 2.0 3.2 87 83
r 7.26052 2 3 tcp 40 ------- 2 2.0 3.2 87 82
r 7.265128 2 3 tcp 40 ------- 2 2.0 3.2 87 83
+ 7.265128 3 2 ack 432 ------- 2 3.2 2.0 3609 84
- 7.265128 3 2 ack 432 ------- 2 3.2 2.0 3609 84
r 7.318584 3 2 ack 432 ------- 2 3.2 2.0 3609 84
+ 7.4 2 3 tcp 40 ------- 2 2.0 3.2 87 85
- 7.4 2 3 tcp 40 ------- 2 2.0 3.2 87 85
r 7.45032 2 3 tcp 40 ------- 2 2.0 3.2 87 85
+ 9 3 0 ack 40 ------- 0 3.0 0.0 4001 86
- 9 3 0 ack 40 ------- 0 3.0 0.0 4001 86
+ 9 0 3 tcp 40 ------- 0 0.0 3.0 87 87
- 9 0 3 tcp 40 ------- 0 0.0 3.0 87 87
+ 9 3 1 ack 40 ------- 1 3.1 1.0 4001 88
- 9 3 1 ack 40 ------- 1 3.1 1.0 4001 88
+ 9 1 3 tcp 40 ------- 1 1.0 3.1 87 89
- 9 1 3 tcp 40 ------- 1 1.0 3.1 87 89
+ 9 3 2 ack 40 ------- 2 3.2 2.0 4001 90
- 9 3 2 ack 40 ------- 2 3.2 2.0 4001 90
+ 9 2 3 tcp 40 ------- 2 2.0 3.2 87 91
- 9 2 3 tcp 40 ------- 2 2.0 3.2 87 91
+ 9 4 3 ack 40 ------- 3 4.0 3.3 4001 92
- 9 4 3 ack 40 ------- 3 4.0 3.3 4001 92
+ 9 3 4 tcp 40 ------- 3 3.3 4.0 87 93
- 9 3 4 tcp 40 ------- 3 3.3 4.0 87 93
r 9.05032 3 0 ack 40 ------- 0 3.0 0.0 4001 86
+ 9.05032 0 3 tcp 40 ------- 0 0.0 3.0 87 94
- 9.05032 0 3 tcp 40 ------- 0 0.0 3.0 87 94
r 9.05032 0 3 tcp 40 ------- 0 0.0 3.0 87 87
+ 9.05032 3 0 ack 40 ------- 0 3.0 0.0 4001 95
- 9.05032 3 0 ack 40 ------- 0 3.0 0.0 4001 95
r 9.05032 3 1 ack 40 ------- 1 3.1 1.0 4001 88
+ 9.05032 1 3 tcp 40 ------- 1 1.0 3.1 87 96
- 9.05032 1 3 tcp 40 ------- 1 1.0 3.1 87 96
r 9.05032 1 3 tcp 40 ------- 1 1.0 3.1 87 89
+ 9.05032 3 1 ack 40 ------- 1 3.1 1.0 4001 97
- 9.05032 3 1 ack 40 ------- 1 3.1 1.0 4001 97
r 9.05032 3 2 ack 40 ------- 2 3.2 2.0 4001 90
+ 9.05032 2 3 tcp 40 ------- 2 2.0 3.2 87 98
- 9.05032 2 3 tcp 40 ------- 2 2.0 3.2 87 98
r 9.05032 2 3 tcp 40 ------- 2 2.0 3.2 87 91
+ 9.05032 3 2 ack 40 ------- 2 3.2 2.0 4001 99
- 9.05032 3 2 ack 40 ------- 2 3.2 2.0 4001 99
r 9.05032 4 3 ack 40 ------- 3 4.0 3.3 4001 92
+ 9.05032 3 4 tcp 40 ------- 3 3.3 4.0 87 100
- 9.05032 3 4 tcp 40 ------- 3 3.3 4.0 87 100
r 9.05032 3 4 tcp 40 ------- 3 3.3 4.0 87 93
+ 9.05032 4 3 ack 40 ------- 3 4.0 3.3 4001 101
- 9.05032 4 3 ack 40 ------- 3 4.0 3.3 4001 101
r 9.10064 0 3 tcp 40 ------- 0 0.0 3.0 87 94
r 9.10064 3 0 ack 40 ------- 0 3.0 0.0 4001 95
r 9.10064 1 3 tcp 40 ------- 1 1.0 3.1 87 96
r 9.10064 3 1 ack 40 ------- 1 3.1 1.0 4001 97
r 9.10064 2 3 tcp 40 ------- 2 2.0 3.2 87 98
r 9.10064 3 2 ack 40 ------- 2 3.2 2.0 4001 99
r 9.10064 3 4 tcp 40 ------- 3 3.3 4.0 87 100
r 9.10064 4 3 ack 40 ------- 3 4.0 3.3 4001 101
+ 9.9 0 3 tcp 40 ------- 4 0.0 3.0 0 102
- 9.9 0 3 tcp 40 ------- 4 0.0 3.0 0 102
r 9.95032 0 3 tcp 40 ------- 4 0.0 3.0 0 102
+ 9.95032 3 0 ack 40 ------- 4 3.0 0.0 0 103
- 9.95032 3 0 ack 40 ------- 4 3.0 0.0 0 103
+ 10 1 3 tcp 40 ------- 5 1.0 3.1 0 104
- 10 1 3 tcp 40 ------- 5 1.0 3.1 0 104
r 10.00064 3 0 ack 40 ------- 4 3.0 0.0 0 103
+ 10.00064 0 3 tcp 40 ------- 4 0.0 3.0 1 105
- 10.00064 0 3 tcp 40 ------- 4 0.0 3.0 1 105
+ 10.00064 0 3 tcp 83 ------- 4 0.0 3.0 1 106
- 10.00096 0 3 tcp 83 ------- 4 0.0 3.0 1 106
r 10.05032 1 3 tcp 40 ------- 5 1.0 3.1 0 104
+ 10.05032 3 1 ack 40 ------- 5 3.1 1.0 0 107
- 10.05032 3 1 ack 40 ------- 5 3.1 1.0 0 107
r 10.05096 0 3 tcp 40 ------- 4 0.0 3.0 1 105
r 10.051624 0 3 tcp 83 ------- 4 0.0 3.0 1 106
+ 10.051624 3 0 ack 576 ------- 4 3.0 0.0 1 108
- 10.051624 3 0 ack 576 ------- 4 3.0 0.0 1 108
r 10.10064 3 1 ack 40 ------- 5 3.1 1.0 0 107
+ 10.10064 1 3 tcp 40 ------- 5 1.0 3.1 1 109
- 10.10064 1 3 tcp 40 ------- 5 1.0 3.1 1 109
+ 10.10064 1 3 tcp 83 ------- 5 1.0 3.1 1 110
- 10.10096 1 3 tcp 83 ------- 5 1.0 3.1 1 110
r 10.106232 3 0 ack 576 ------- 4 3.0 0.0 1 108
+ 10.106232 0 3 tcp 40 ------- 4 0.0 3.0 44 111
- 10.106232 0 3 tcp 40 ------- 4 0.0 3.0 44 111
r 10.15096 1 3 tcp 40 ------- 5 1.0 3.1 1 109
r 10.151624 1 3 tcp 83 ------- 5 1.0 3.1 1 110
+ 10.151624 3 1 ack 576 ------- 5 3.1 1.0 1 112
- 10.151624 3 1 ack 576 ------- 5 3.1 1.0 1 112
r 10.156552 0 3 tcp 40 ------- 4 0.0 3.0 44 111
+ 10.156552 3 0 ack 576 ------- 4 3.0 0.0 537 113
- 10.156552 3 0 ack 576 ------- 4 3.0 0.0 537 113
+ 10.156552 3 0 ack 576 ------- 4 3.0 0.0 1073 114
- 10.16116 3 0 ack 576 ------- 4 3.0 0.0 1073 114
r 10.206232 3 1 ack 576 ------- 5 3.1 1.0 1 112
+ 10.206232 1 3 tcp 40 ------- 5 1.0 3.1 44 115
- 10.206232 1 3 tcp 40 ------- 5 1.0 3.1 44 115
r 10.21116 3 0 ack 576 ------- 4 3.0 0.0 537 113
+ 10.21116 0 3 tcp 40 ------- 4 0.0 3.0 44 116
- 10.21116 0 3 tcp 40 ------- 4 0.0 3.0 44 116
r 10.215768 3 0 ack 576 ------- 4 3.0 0.0 1073 114
+ 10.215768 0 3 tcp 40 ------- 4 0.0 3.0 44 117
- 10.215768 0 3 tcp 40 ------- 4 0.0 3.0 44 117
r 10.256552 1 3 tcp 40 ------- 5 1.0 3.1 44 115
+ 10.256552 3 1 ack 576 ------- 5 3.1 1.0 537 118
- 10.256552 3 1 ack 576 ------- 5 3.1 1.0 537 118
+ 10.256552 3 1 ack 576 ------- 5 3.1 1.0 1073 119
- 10.26116 3 1 ack 576 ------- 5 3.1 1.0 1073 119
r 10.26148 0 3 tcp 40 ------- 4 0.0 3.0 44 116
r 10.266088 0 3 tcp 40 ------- 4 0.0 3.0 44 117
+ 10.266088 3 0 ack 432 ------- 4 3.0 0.0 1609 120
- 10.266088 3 0 ack 432 ------- 4 3.0 0.0 1609 120
r 10.31116 3 1 ack 576 ------- 5 3.1 1.0 537 118
+ 10.31116 1 3 tcp 40 ------- 5 1.0 3.1 44 121
- 10.31116 1 3 tcp 40 ------- 5 1.0 3.1 44 121
r 10.315768 3 1 ack 576 ------- 5 3.1 1.0 1073 119
+ 10.315768 1 3 tcp 40 ------- 5 1.0 3.1 44 122
- 10.315768 1 3 tcp 40 ------- 5 1.0 3.1 44 122
r 10.319544 3 0 ack 432 ------- 4 3.0 0.0 1609 120
r 10.36148 1 3 tcp 40 ------- 5 1.0 3.1 44 121
r 10.366088 1 3 tcp 40 ------- 5 1.0 3.1 44 122
+ 10.366088 3 1 ack 432 ------- 5 3.1 1.0 1609 123
- 10.366088 3 1 ack 432 ------- 5 3.1 1.0 1609 123
+ 10.4 0 3 tcp 40 ------- 4 0.0 3.0 44 124
- 10.4 0 3 tcp 40 ------- 4 0.0 3.0 44 124
r 10.419544 3 1 ack 432 ------- 5 3.1 1.0 1609 123
r 10.45032 0 3 tcp 40 ------- 4 0.0 3.0 44 124
+ 10.5 1 3 tcp 40 ------- 5 1.0 3.1 44 125
- 10.5 1 3 tcp 40 ------- 5 1.0 3.1 44 125
r 10.55032 1 3 tcp 40 ------- 5 1.0 3.1 44 125
+ 10.9 1 3 tcp 83 ---A--- 5 1.0 3.1 44 126
- 10.9 1 3 tcp 83 ---A--- 5 1.0 3.1 44 126
r 10.950664 1 3 tcp 83 ---A--- 5 1.0 3.1 44 126
+ 10.950664 3 1 ack 576 ---A--- 5 3.1 1.0 2001 127
- 10.950664 3 1 ack 576 ---A--- 5 3.1 1.0 2001 127
+ 11 2 3 tcp 40 ------- 6 2.0 3.2 0 128
- 11 2 3 tcp 40 ------- 6 2.0 3.2 0 128
r 11.005272 3 1 ack 576 ---A--- 5 3.1 1.0 2001 127
+ 11.005272 1 3 tcp 40 ------- 5 1.0 3.1 87 129
- 11.005272 1 3 tcp 40 ------- 5 1.0 3.1 87 129
r 11.05032 2 3 tcp 40 ------- 6 2.0 3.2 0 128
+ 11.05032 3 2 ack 40 ------- 6 3.2 2.0 0 130
- 11.05032 3 2 ack 40 ------- 6 3.2 2.0 0 130
r 11.055592 1 3 tcp 40 ------- 5 1.0 3.1 87 129
+ 11.055592 3 1 ack 576 ------- 5 3.1 1.0 2537 131
- 11.055592 3 1 ack 576 ------- 5 3.1 1.0 2537 131
+ 11.055592 3 1 ack 576 ------- 5 3.1 1.0 3073 132
- 11.0602 3 1 ack 576 ------- 5 3.1 1.0 3073 132
r 11.10064 3 2 ack 40 ------- 6 3.2 2.0 0 130
+ 11.10064 2 3 tcp 40 ------- 6 2.0 3.2 1 133
- 11.10064 2 3 tcp 40 ------- 6 2.0 3.2 1 133
+ 11.10064 2 3 tcp 83 ------- 6 2.0 3.2 1 134
- 11.10096 2 3 tcp 83 ------- 6 2.0 3.2 1 134
r 11.1102 3 1 ack 576 ------- 5 3.1 1.0 2537 131
+ 11.1102 1 3 tcp 40 ------- 5 1.0 3.1 87 135
- 11.1102 1 3 tcp 40 ------- 5 1.0 3.1 87 135
r 11.114808 3 1 ack 576 ------- 5 3.1 1.0 3073 132
+ 11.114808 1 3 tcp 40 ------- 5 1.0 3.1 87 136
- 11.114808 1 3 tcp 40 ------- 5 1.0 3.1 87 136
r 11.15096 2 3 tcp 40 ------- 6 2.0 3.2 1 133
r 11.151624 2 3 tcp 83 ------- 6 2.0 3.2 1 134
+ 11.151624 3 2 ack 576 ------- 6 3.2 2.0 1 137
- 11.151624 3 2 ack 576 ------- 6 3.2 2.0 1 137
r 11.16052 1 3 tcp 40 ------- 5 1.0 3.1 87 135
r 11.165128 1 3 tcp 40 ------- 5 1.0 3.1 87 136
+ 11.165128 3 1 ack 432 ------- 5 3.1 1.0 3609 138
- 11.165128 3 1 ack 432 ------- 5 3.1 1.0 3609 138
r 11.206232 3 2 ack 576 ------- 6 3.2 2.0 1 137
+ 11.206232 2 3 tcp 40 ------- 6 2.0 3.2 44 139
- 11.206232 2 3 tcp 40 ------- 6 2.0 3.2 44 139
r 11.218584 3 1 ack 432 ------- 5 3.1 1.0 3609 138
r 11.256552 2 3 tcp 40 ------- 6 2.0 3.2 44 139
+ 11.256552 3 2 ack 576 ------- 6 3.2 2.0 537 140
- 11.256552 3 2 ack 576 ------- 6 3.2 2.0 537 140
+ 11.256552 3 2 ack 576 ------- 6 3.2 2.0 1073 141
- 11.26116 3 2 ack 576 ------- 6 3.2 2.0 1073 141
+ 11.3 1 3 tcp 40 ------- 5 1.0 3.1 87 142
- 11.3 1 3 tcp 40 ------- 5 1.0 3.1 87 142
r 11.31116 3 2 ack 576 ------- 6 3.2 2.0 537 140
+ 11.31116 2 3 tcp 40 ------- 6 2.0 3.2 44 143
- 11.31116 2 3 tcp 40 ------- 6 2.0 3.2 44 143
r 11.315768 3 2 ack 576 ------- 6 3.2 2.0 1073 141
+ 11.315768 2 3 tcp 40 ------- 6 2.0 3.2 44 144
- 11.315768 2 3 tcp 40 ------- 6 2.0 3.2 44 144
r 11.35032 1 3 tcp 40 ------- 5 1.0 3.1 87 142
r 11.36148 2 3 tcp 40 ------- 6 2.0 3.2 44 143
r 11.366088 2 3 tcp 40 ------- 6 2.0 3.2 44 144
+ 11.366088 3 2 ack 432 ------- 6 3.2 2.0 1609 145
- 11.366088 3 2 ack 432 ------- 6 3.2 2.0 1609 145
r 11.419544 3 2 ack 432 ------- 6 3.2 2.0 1609 145
+ 11.5 2 3 tcp 40 ------- 6 2.0 3.2 44 146
- 11.5 2 3 tcp 40 ------- 6 2.0 3.2 44 146
r 11.55032 2 3 tcp 40 ------- 6 2.0 3.2 44 146
+ 11.9 2 3 tcp 83 ---A--- 6 2.0 3.2 44 147
- 11.9 2 3 tcp 83 ---A--- 6 2.0 3.2 44 147
r 11.950664 2 3 tcp 83 ---A--- 6 2.0 3.2 44 147
+ 11.950664 3 2 ack 576 ---A--- 6 3.2 2.0 2001 148
- 11.950664 3 2 ack 576 ---A--- 6 3.2 2.0 2001 148
r 12.005272 3 2 ack 576 ---A--- 6 3.2 2.0 2001 148
+ 12.005272 2 3 tcp 40 ------- 6 2.0 3.2 87 149
- 12.005272 2 3 tcp 40 ------- 6 2.0 3.2 87 149
r 12.055592 2 3 tcp 40 ------- 6 2.0 3.2 87 149
+ 12.055592 3 2 ack 576 ------- 6 3.2 2.0 2537 150
- 12.055592 3 2 ack 576 ------- 6 3.2 2.0 2537 150
+ 12.055592 3 2 ack 576 ------- 6 3.2 2.0 3073 151
- 12.0602 3 2 ack 576 ------- 6 3.2 2.0 3073 151
r 12.1102 3 2 ack 576 ------- 6 3.2 2.0 2537 150
+ 12.1102 2 3 tcp 40 ------- 6 2.0 3.2 87 152
- 12.1102 2 3 tcp 40 ------- 6 2.0 3.2 87 152
r 12.114808 3 2 ack 576 ------- 6 3.2 2.0 3073 151
+ 12.114808 2 3 tcp 40 ------- 6 2.0 3.2 87 153
- 12.114808 2 3 tcp 40 ------- 6 2.0 3.2 87 153
r 12.16052 2 3 tcp 40 ------- 6 2.0 3.2 87 152
r 12.165128 2 3 tcp 40 ------- 6 2.0 3.2 87 153
+ 12.165128 3 2 ack 432 ------- 6 3.2 2.0 3609 154
- 12.165128 3 2 ack 432 ------- 6 3.2 2.0 3609 154
r 12.218584 3 2 ack 432 ------- 6 3.2 2.0 3609 154
+ 12.3 2 3 tcp 40 ------- 6 2.0 3.2 87 155
- 12.3 2 3 tcp 40 ------- 6 2.0 3.2 87 155
r 12.35032 2 3 tcp 40 ------- 6 2.0 3.2 87 155
+ 13 0 3 tcp 83 ---A--- 4 0.0 3.0 44 156
- 13 0 3 tcp 83 ---A--- 4 0.0 3.0 44 156
r 13.050664 0 3 tcp 83 ---A--- 4 0.0 3.0 44 156
+ 13.050664 3 0 ack 576 ---A--- 4 3.0 0.0 2001 157
- 13.050664 3 0 ack 576 ---A--- 4 3.0 0.0 2001 157
r 13.105272 3 0 ack 576 ---A--- 4 3.0 0.0 2001 157
+ 13.105272 0 3 tcp 40 ------- 4 0.0 3.0 87 158
- 13.105272 0 3 tcp 40 ------- 4 0.0 3.0 87 158
r 13.155592 0 3 tcp 40 ------- 4 0.0 3.0 87 158
+ 13.155592 3 0 ack 576 ------- 4 3.0 0.0 2537 159
- 13.155592 3 0 ack 576 ------- 4 3.0 0.0 2537 159
+ 13.155592 3 0 ack 576 ------- 4 3.0 0.0 3073 160
- 13.1602 3 0 ack 576 ------- 4 3.0 0.0 3073 160
r 13.2102 3 0 ack 576 ------- 4 3.0 0.0 2537 159
+ 13.2102 0 3 tcp 40 ------- 4 0.0 3.0 87 161
- 13.2102 0 3 tcp 40 ------- 4 0.0 3.0 87 161
r 13.214808 3 0 ack 576 ------- 4 3.0 0.0 3073 160
+ 13.214808 0 3 tcp 40 ------- 4 0.0 3.0 87 162
- 13.214808 0 3 tcp 40 ------- 4 0.0 3.0 87 162
r 13.26052 0 3 tcp 40 ------- 4 0.0 3.0 87 161
r 13.265128 0 3 tcp 40 ------- 4 0.0 3.0 87 162
+ 13.265128 3 0 ack 432 ------- 4 3.0 0.0 3609 163
- 13.265128 3 0 ack 432 ------- 4 3.0 0.0 3609 163
r 13.318584 3 0 ack 432 ------- 4 3.0 0.0 3609 163
+ 13.4 0 3 tcp 40 ------- 4 0.0 3.0 87 164
- 13.4 0 3 tcp 40 ------- 4 0.0 3.0 87 164
r 13.45032 0 3 tcp 40 ------- 4 0.0 3.0 87 164
+ 13.9 0 3 tcp 83 ---A--- 4 0.0 3.0 87 165
- 13.9 0 3 tcp 83 ---A--- 4 0.0 3.0 87 165
r 13.950664 0 3 tcp 83 ---A--- 4 0.0 3.0 87 165
+ 13.950664 3 0 ack 576 ---A--- 4 3.0 0.0 4001 166
- 13.950664 3 0 ack 576 ---A--- 4 3.0 0.0 4001 166
+ 14 1 3 tcp 83 ---A--- 5 1.0 3.1 87 167
- 14 1 3 tcp 83 ---A--- 5 1.0 3.1 87 167
r 14.005272 3 0 ack 576 ---A--- 4 3.0 0.0 4001 166
+ 14.005272 0 3 tcp 40 ------- 4 0.0 3.0 130 168
- 14.005272 0 3 tcp 40 ------- 4 0.0 3.0 130 168
r 14.050664 1 3 tcp 83 ---A--- 5 1.0 3.1 87 167
+ 14.050664 3 1 ack 576 ---A--- 5 3.1 1.0 4001 169
- 14.050664 3 1 ack 576 ---A--- 5 3.1 1.0 4001 169
r 14.055592 0 3 tcp 40 ------- 4 0.0 3.0 130 168
+ 14.055592 3 0 ack 576 ------- 4 3.0 0.0 4537 170
- 14.055592 3 0 ack 576 ------- 4 3.0 0.0 4537 170
+ 14.055592 3 0 ack 576 ------- 4 3.0 0.0 5073 171
- 14.0602 3 0 ack 576 ------- 4 3.0 0.0 5073 171
r 14.105272 3 1 ack 576 ---A--- 5 3.1 1.0 4001 169
+ 14.105272 1 3 tcp 40 ------- 5 1.0 3.1 130 172
- 14.105272 1 3 tcp 40 ------- 5 1.0 3.1 130 172
r 14.1102 3 0 ack 576 ------- 4 3.0 0.0 4537 170
+ 14.1102 0 3 tcp 40 ------- 4 0.0 3.0 130 173
- 14.1102 0 3 tcp 40 ------- 4 0.0 3.0 130 173
r 14.114808 3 0 ack 576 ------- 4 3.0 0.0 5073 171
+ 14.114808 0 3 tcp 40 ------- 4 0.0 3.0 130 174
- 14.114808 0 3 tcp 40 ------- 4 0.0 3.0 130 174
r 14.155592 1 3 tcp 40 ------- 5 1.0 3.1 130 172
+ 14.155592 3 1 ack 576 ------- 5 3.1 1.0 4537 175
- 14.155592 3 1 ack 576 ------- 5 3.1 1.0 4537 175
+ 14.155592 3 1 ack 576 ------- 5 3.1 1.0 5073 176
- 14.1602 3 1 ack 576 ------- 5 3.1 1.0 5073 176
r 14.16052 0 3 tcp 40 ------- 4 0.0 3.0 130 173
r 14.165128 0 3 tcp 40 ------- 4 0.0 3.0 130 174
+ 14.165128 3 0 ack 432 ------- 4 3.0 0.0 5609 177
- 14.165128 3 0 ack 432 ------- 4 3.0 0.0 5609 177
r 14.2102 3 1 ack 576 ------- 5 3.1 1.0 4537 175
+ 14.2102 1 3 tcp 40 ------- 5 1.0 3.1 130 178
- 14.2102 1 3 tcp 40 ------- 5 1.0 3.1 130 178
r 14.214808 3 1 ack 576 ------- 5 3.1 1.0 5073 176
+ 14.214808 1 3 tcp 40 ------- 5 1.0 3.1 130 179
- 14.214808 1 3 tcp 40 ------- 5 1.0 3.1 130 179
r 14.218584 3 0 ack 432 ------- 4 3.0 0.0 5609 177
r 14.26052 1 3 tcp 40 ------- 5 1.0 3.1 130 178
r 14.265128 1 3 tcp 40 ------- 5 1.0 3.1 130 179
+ 14.265128 3 1 ack 432 ------- 5 3.1 1.0 5609 180
- 14.265128 3 1 ack 432 ------- 5 3.1 1.0 5609 180
+ 14.3 0 3 tcp 40 ------- 4 0.0 3.0 130 181
- 14.3 0 3 tcp 40 ------- 4 0.0 3.0 130 181
r 14.318584 3 1 ack 432 ------- 5 3.1 1.0 5609 180
r 14.35032 0 3 tcp 40 ------- 4 0.0 3.0 130 181
+ 14.4 1 3 tcp 40 ------- 5 1.0 3.1 130 182
- 14.4 1 3 tcp 40 ------- 5 1.0 3.1 130 182
r 14.45032 1 3 tcp 40 ------- 5 1.0 3.1 130 182
+ 14.9 1 3 tcp 83 ---A--- 5 1.0 3.1 130 183
- 14.9 1 3 tcp 83 ---A--- 5 1.0 3.1 130 183
r 14.950664 1 3 tcp 83 ---A--- 5 1.0 3.1 130 183
+ 14.950664 3 1 ack 576 ---A--- 5 3.1 1.0 6001 184
- 14.950664 3 1 ack 576 ---A--- 5 3.1 1.0 6001 184
+ 15 2 3 tcp 83 ---A--- 6 2.0 3.2 87 185
- 15 2 3 tcp 83 ---A--- 6 2.0 3.2 87 185
r 15.005272 3 1 ack 576 ---A--- 5 3.1 1.0 6001 184
+ 15.005272 1 3 tcp 40 ------- 5 1.0 3.1 173 186
- 15.005272 1 3 tcp 40 ------- 5 1.0 3.1 173 186
r 15.050664 2 3 tcp 83 ---A--- 6 2.0 3.2 87 185
+ 15.050664 3 2 ack 576 ---A--- 6 3.2 2.0 4001 187
- 15.050664 3 2 ack 576 ---A--- 6 3.2 2.0 4001 187
r 15.055592 1 3 tcp 40 ------- 5 1.0 3.1 173 186
+ 15.055592 3 1 ack 576 ------- 5 3.1 1.0 6537 188
- 15.055592 3 1 ack 576 ------- 5 3.1 1.0 6537 188
+ 15.055592 3 1 ack 576 ------- 5 3.1 1.0 7073 189
- 15.0602 3 1 ack 576 ------- 5 3.1 1.0 7073 189
r 15.105272 3 2 ack 576 ---A--- 6 3.2 2.0 4001 187
+ 15.105272 2 3 tcp 40 ------- 6 2.0 3.2 130 190
- 15.105272 2 3 tcp 40 ------- 6 2.0 3.2 130 190
r 15.1102 3 1 ack 576 ------- 5 3.1 1.0 6537 188
+ 15.1102 1 3 tcp 40 ------- 5 1.0 3.1 173 191
- 15.1102 1 3 tcp 40 ------- 5 1.0 3.1 173 191
r 15.114808 3 1 ack 576 ------- 5 3.1 1.0 7073 189
+ 15.114808 1 3 tcp 40 ------- 5 1.0 3.1 173 192
- 15.114808 1 3 tcp 40 ------- 5 1.0 3.1 173 192
r 15.155592 2 3 tcp 40 ------- 6 2.0 3.2 130 190
+ 15.155592 3 2 ack 576 ------- 6 3.2 2.0 4537 193
- 15.155592 3 2 ack 576 ------- 6 3.2 2.0 4537 193
+ 15.155592 3 2 ack 576 ------- 6 3.2 2.0 5073 194
- 15.1602 3 2 ack 576 ------- 6 3.2 2.0 5073 194
r 15.16052 1 3 tcp 40 ------- 5 1.0 3.1 173 191
r 15.165128 1 3 tcp 40 ------- 5 1.0 3.1 173 192
+ 15.165128 3 1 ack 432 ------- 5 3.1 1.0 7609 195
- 15.165128 3 1 ack 432 ------- 5 3.1 1.0 7609 195
r 15.2102 3 2 ack 576 ------- 6 3.2 2.0 4537 193
+ 15.2102 2 3 tcp 40 ------- 6 2.0 3.2 130 196
- 15.2102 2 3 tcp 40 ------- 6 2.0 3.2 130 196
r 15.214808 3 2 ack 576 ------- 6 3.2 2.0 5073 194
+ 15.214808 2 3 tcp 40 ------- 6 2.0 3.2 130 197
- 15.214808 2 3 tcp 40 ------- 6 2.0 3.2 130 197
r 15.218584 3 1 ack 432 ------- 5 3.1 1.0 7609 195
r 15.26052 2 3 tcp 40 ------- 6 2.0 3.2 130 196
r 15.265128 2 3 tcp 40 ------- 6 2.0 3.2 130 197
+ 15.265128 3 2 ack 432 ------- 6 3.2 2.0 5609 198
- 15.265128 3 2 ack 432 ------- 6 3.2 2.0 5609 198
+ 15.3 1 3 tcp 40 ------- 5 1.0 3.1 173 199
- 15.3 1 3 tcp 40 ------- 5 1.0 3.1 173 199
r 15.318584 3 2 ack 432 ------- 6 3.2 2.0 5609 198
r 15.35032 1 3 tcp 40 ------- 5 1.0 3.1 173 199
+ 15.4 2 3 tcp 40 ------- 6 2.0 3.2 130 200
- 15.4 2 3 tcp 40 ------- 6 2.0 3.2 130 200
r 15.45032 2 3 tcp 40 ------- 6 2.0 3.2 130 200
+ 15.9 2 3 tcp 83 ---A--- 6 2.0 3.2 130 201
- 15.9 2 3 tcp 83 ---A--- 6 2.0 3.2 130 201
r 15.950664 2 3 tcp 83 ---A--- 6 2.0 3.2 130 201
+ 15.950664 3 2 ack 576 ---A--- 6 3.2 2.0 6001 202
- 15.950664 3 2 ack 576 ---A--- 6 3.2 2.0 6001 202
r 16.005272 3 2 ack 576 ---A--- 6 3.2 2.0 6001 202
+ 16.005272 2 3 tcp 40 ------- 6 2.0 3.2 173 203
- 16.005272 2 3 tcp 40 ------- 6 2.0 3.2 173 203
r 16.055592 2 3 tcp 40 ------- 6 2.0 3.2 173 203
+ 16.055592 3 2 ack 576 ------- 6 3.2 2.0 6537 204
- 16.055592 3 2 ack 576 ------- 6 3.2 2.0 6537 204
+ 16.055592 3 2 ack 576 ------- 6 3.2 2.0 7073 205
- 16.0602 3 2 ack 576 ------- 6 3.2 2.0 7073 205
r 16.1102 3 2 ack 576 ------- 6 3.2 2.0 6537 204
+ 16.1102 2 3 tcp 40 ------- 6 2.0 3.2 173 206
- 16.1102 2 3 tcp 40 ------- 6 2.0 3.2 173 206
r 16.114808 3 2 ack 576 ------- 6 3.2 2.0 7073 205
+ 16.114808 2 3 tcp 40 ------- 6 2.0 3.2 173 207
- 16.114808 2 3 tcp 40 ------- 6 2.0 3.2 173 207
r 16.16052 2 3 tcp 40 ------- 6 2.0 3.2 173 206
r 16.165128 2 3 tcp 40 ------- 6 2.0 3.2 173 207
+ 16.165128 3 2 ack 432 ------- 6 3.2 2.0 7609 208
- 16.165128 3 2 ack 432 ------- 6 3.2 2.0 7609 208
r 16.218584 3 2 ack 432 ------- 6 3.2 2.0 7609 208
+ 16.3 2 3 tcp 40 ------- 6 2.0 3.2 173 209
- 16.3 2 3 tcp 40 ------- 6 2.0 3.2 173 209