# TESTNAME: http1f
# TOPOLOGY: 3node
# avg-comp-page-age: 40000
# avg-page-age: 60
# avg-page-size: 1024
# avg-req-interval: 60
# client-req-size: 43
# comp-page-size: 51200
# duration: 500
# enable-log: 0
# hb-interval: 30
# max-page-age: 70
# max-page-size: 50000
# max-req-interval: 70
# min-page-age: 50
# min-page-size: 100
# min-req-interval: 50
# nam-trace-all: 1
# ns-random-seed: 188312339
# num-2nd-cache: 5
# num-comp-pages: 1
# prot: http1f
# scheduler-type: Calendar
# single-page: 1
# ttl: 0.1
# upd-interval: 5
# xtrace-page: webtrace-pglog
# xtrace-req: webtrace-reqlog
+ 1 1 0 tcp 40 ------- 0 1.0 0.0 0 0
- 1 1 0 tcp 40 ------- 0 1.0 0.0 0 0
r 1.050213 1 0 tcp 40 ------- 0 1.0 0.0 0 0
+ 1.050213 0 1 ack 40 ------- 0 0.0 1.0 0 1
- 1.050213 0 1 ack 40 ------- 0 0.0 1.0 0 1
r 1.100427 0 1 ack 40 ------- 0 0.0 1.0 0 1
+ 1.100427 1 0 tcp 40 ------- 0 1.0 0.0 1 2
- 1.100427 1 0 tcp 40 ------- 0 1.0 0.0 1 2
+ 1.100427 1 0 tcp 83 ------- 0 1.0 0.0 1 3
- 1.10064 1 0 tcp 83 ------- 0 1.0 0.0 1 3
r 1.15064 1 0 tcp 40 ------- 0 1.0 0.0 1 2
r 1.151083 1 0 tcp 83 ------- 0 1.0 0.0 1 3
+ 1.151083 0 1 ack 576 ------- 0 0.0 1.0 1 4
- 1.151083 0 1 ack 576 ------- 0 0.0 1.0 1 4
r 1.204155 0 1 ack 576 ------- 0 0.0 1.0 1 4
+ 1.204155 1 0 tcp 40 ------- 0 1.0 0.0 44 5
- 1.204155 1 0 tcp 40 ------- 0 1.0 0.0 44 5
r 1.254368 1 0 tcp 40 ------- 0 1.0 0.0 44 5
+ 1.254368 0 1 ack 576 ------- 0 0.0 1.0 537 6
- 1.254368 0 1 ack 576 ------- 0 0.0 1.0 537 6
+ 1.254368 0 1 ack 576 ------- 0 0.0 1.0 1073 7
- 1.25744 0 1 ack 576 ------- 0 0.0 1.0 1073 7
r 1.30744 0 1 ack 576 ------- 0 0.0 1.0 537 6
+ 1.30744 1 0 tcp 40 ------- 0 1.0 0.0 44 8
- 1.30744 1 0 tcp 40 ------- 0 1.0 0.0 44 8
r 1.310512 0 1 ack 576 ------- 0 0.0 1.0 1073 7
+ 1.310512 1 0 tcp 40 ------- 0 1.0 0.0 44 9
- 1.310512 1 0 tcp 40 ------- 0 1.0 0.0 44 9
r 1.357653 1 0 tcp 40 ------- 0 1.0 0.0 44 8
r 1.360725 1 0 tcp 40 ------- 0 1.0 0.0 44 9
+ 1.360725 0 1 ack 432 ------- 0 0.0 1.0 1609 10
- 1.360725 0 1 ack 432 ------- 0 0.0 1.0 1609 10
r 1.413029 0 1 ack 432 ------- 0 0.0 1.0 1609 10
+ 1.5 1 0 tcp 40 ------- 0 1.0 0.0 44 11
- 1.5 1 0 tcp 40 ------- 0 1.0 0.0 44 11
r 1.550213 1 0 tcp 40 ------- 0 1.0 0.0 44 11
+ 9 0 1 ack 40 ------- 0 0.0 1.0 2001 12
- 9 0 1 ack 40 ------- 0 0.0 1.0 2001 12
+ 9 1 0 tcp 40 ------- 0 1.0 0.0 44 13
- 9 1 0 tcp 40 ------- 0 1.0 0.0 44 13
r 9.050213 0 1 ack 40 ------- 0 0.0 1.0 2001 12
+ 9.050213 1 0 tcp 40 ------- 0 1.0 0.0 44 14
- 9.050213 1 0 tcp 40 ------- 0 1.0 0.0 44 14
r 9.050213 1 0 tcp 40 ------- 0 1.0 0.0 44 13
+ 9.050213 0 1 ack 40 ------- 0 0.0 1.0 2001 15
- 9.050213 0 1 ack 40 ------- 0 0.0 1.0 2001 15
r 9.100427 1 0 tcp 40 ------- 0 1.0 0.0 44 14
r 9.100427 0 1 ack 40 ------- 0 0.0 1.0 2001 15
+ 10 1 2 tcp 40 ------- 1 1.0 2.0 0 16
- 10 1 2 tcp 40 ------- 1 1.0 2.0 0 16
r 10.050213 1 2 tcp 40 ------- 1 1.0 2.0 0 16
+ 10.050213 2 1 ack 40 ------- 1 2.0 1.0 0 17
- 10.050213 2 1 ack 40 ------- 1 2.0 1.0 0 17
r 10.100427 2 1 ack 40 ------- 1 2.0 1.0 0 17
+ 10.100427 1 2 tcp 40 ------- 1 1.0 2.0 1 18
- 10.100427 1 2 tcp 40 ------- 1 1.0 2.0 1 18
+ 10.100427 1 2 tcp 83 ------- 1 1.0 2.0 1 19
- 10.10064 1 2 tcp 83 ------- 1 1.0 2.0 1 19
r 10.15064 1 2 tcp 40 ------- 1 1.0 2.0 1 18
r 10.151083 1 2 tcp 83 ------- 1 1.0 2.0 1 19
+ 10.151083 2 1 ack 576 ------- 1 2.0 1.0 1 20
- 10.151083 2 1 ack 576 ------- 1 2.0 1.0 1 20
r 10.204155 2 1 ack 576 ------- 1 2.0 1.0 1 20
+ 10.204155 1 2 tcp 40 ------- 1 1.0 2.0 44 21
- 10.204155 1 2 tcp 40 ------- 1 1.0 2.0 44 21
r 10.254368 1 2 tcp 40 ------- 1 1.0 2.0 44 21
+ 10.254368 2 1 ack 576 ------- 1 2.0 1.0 537 22
- 10.254368 2 1 ack 576 ------- 1 2.0 1.0 537 22
+ 10.254368 2 1 ack 576 ------- 1 2.0 1.0 1073 23
- 10.25744 2 1 ack 576 ------- 1 2.0 1.0 1073 23
r 10.30744 2 1 ack 576 ------- 1 2.0 1.0 537 22
+ 10.30744 1 2 tcp 40 ------- 1 1.0 2.0 44 24
- 10.30744 1 2 tcp 40 ------- 1 1.0 2.0 44 24
r 10.310512 2 1 ack 576 ------- 1 2.0 1.0 1073 23
+ 10.310512 1 2 tcp 40 ------- 1 1.0 2.0 44 25
- 10.310512 1 2 tcp 40 ------- 1 1.0 2.0 44 25
r 10.357653 1 2 tcp 40 ------- 1 1.0 2.0 44 24
r 10.360725 1 2 tcp 40 ------- 1 1.0 2.0 44 25
+ 10.360725 2 1 ack 432 ------- 1 2.0 1.0 1609 26
- 10.360725 2 1 ack 432 ------- 1 2.0 1.0 1609 26
r 10.413029 2 1 ack 432 ------- 1 2.0 1.0 1609 26
+ 10.5 1 2 tcp 40 ------- 1 1.0 2.0 44 27
- 10.5 1 2 tcp 40 ------- 1 1.0 2.0 44 27
r 10.550213 1 2 tcp 40 ------- 1 1.0 2.0 44 27
+ 19 2 1 ack 40 ------- 1 2.0 1.0 2001 28
- 19 2 1 ack 40 ------- 1 2.0 1.0 2001 28
+ 19 1 2 tcp 40 ------- 1 1.0 2.0 44 29
- 19 1 2 tcp 40 ------- 1 1.0 2.0 44 29
r 19.050213 2 1 ack 40 ------- 1 2.0 1.0 2001 28
+ 19.050213 1 2 tcp 40 ------- 1 1.0 2.0 44 30
- 19.050213 1 2 tcp 40 ------- 1 1.0 2.0 44 30
r 19.050213 1 2 tcp 40 ------- 1 1.0 2.0 44 29
+ 19.050213 2 1 ack 40 ------- 1 2.0 1.0 2001 31
- 19.050213 2 1 ack 40 ------- 1 2.0 1.0 2001 31
r 19.100427 1 2 tcp 40 ------- 1 1.0 2.0 44 30
r 19.100427 2 1 ack 40 ------- 1 2.0 1.0 2001 31
