# TESTNAME: http2f
# TOPOLOGY: 3node
# avg-comp-page-age: 40000
# avg-page-age: 60
# avg-page-size: 1024
# avg-req-interval: 60
# client-req-size: 43
# comp-page-size: 51200
# duration: 500
# enable-log: 0
# hb-interval: 30
# max-page-age: 70
# max-page-size: 50000
# max-req-interval: 70
# min-page-age: 50
# min-page-size: 100
# min-req-interval: 50
# nam-trace-all: 1
# ns-random-seed: 188312339
# num-2nd-cache: 5
# num-comp-pages: 1
# prot: http2f
# scheduler-type: Calendar
# single-page: 1
# ttl: 0.1
# upd-interval: 5
# xtrace-page: webtrace-pglog
# xtrace-req: webtrace-reqlog
+ 1 0 1 tcp 40 ------- 0 0.0 1.0 0 0
- 1 0 1 tcp 40 ------- 0 0.0 1.0 0 0
r 1.050213 0 1 tcp 40 ------- 0 0.0 1.0 0 0
+ 1.050213 1 0 ack 40 ------- 0 1.0 0.0 0 1
- 1.050213 1 0 ack 40 ------- 0 1.0 0.0 0 1
r 1.100427 1 0 ack 40 ------- 0 1.0 0.0 0 1
+ 1.100427 0 1 tcp 40 ------- 0 0.0 1.0 1 2
- 1.100427 0 1 tcp 40 ------- 0 0.0 1.0 1 2
+ 1.100427 0 1 tcp 83 ------- 0 0.0 1.0 1 3
- 1.10064 0 1 tcp 83 ------- 0 0.0 1.0 1 3
r 1.15064 0 1 tcp 40 ------- 0 0.0 1.0 1 2
r 1.151083 0 1 tcp 83 ------- 0 0.0 1.0 1 3
+ 1.151083 1 2 tcp 40 ------- 1 1.1 2.0 0 4
- 1.151083 1 2 tcp 40 ------- 1 1.1 2.0 0 4
+ 1.2 1 0 ack 40 ------- 0 1.0 0.0 1 5
- 1.2 1 0 ack 40 ------- 0 1.0 0.0 1 5
r 1.201296 1 2 tcp 40 ------- 1 1.1 2.0 0 4
+ 1.201296 2 1 ack 40 ------- 1 2.0 1.1 0 6
- 1.201296 2 1 ack 40 ------- 1 2.0 1.1 0 6
r 1.250213 1 0 ack 40 ------- 0 1.0 0.0 1 5
r 1.251509 2 1 ack 40 ------- 1 2.0 1.1 0 6
+ 1.251509 1 2 tcp 40 ------- 1 1.1 2.0 1 7
- 1.251509 1 2 tcp 40 ------- 1 1.1 2.0 1 7
+ 1.251509 1 2 tcp 83 ------- 1 1.1 2.0 1 8
- 1.251723 1 2 tcp 83 ------- 1 1.1 2.0 1 8
r 1.301723 1 2 tcp 40 ------- 1 1.1 2.0 1 7
r 1.302165 1 2 tcp 83 ------- 1 1.1 2.0 1 8
+ 1.302165 2 1 ack 576 ------- 1 2.0 1.1 1 9
- 1.302165 2 1 ack 576 ------- 1 2.0 1.1 1 9
r 1.355237 2 1 ack 576 ------- 1 2.0 1.1 1 9
+ 1.355237 1 2 tcp 40 ------- 1 1.1 2.0 44 10
- 1.355237 1 2 tcp 40 ------- 1 1.1 2.0 44 10
r 1.405451 1 2 tcp 40 ------- 1 1.1 2.0 44 10
+ 1.405451 2 1 ack 576 ------- 1 2.0 1.1 537 11
- 1.405451 2 1 ack 576 ------- 1 2.0 1.1 537 11
+ 1.405451 2 1 ack 576 ------- 1 2.0 1.1 1073 12
- 1.408523 2 1 ack 576 ------- 1 2.0 1.1 1073 12
r 1.458523 2 1 ack 576 ------- 1 2.0 1.1 537 11
+ 1.458523 1 2 tcp 40 ------- 1 1.1 2.0 44 13
- 1.458523 1 2 tcp 40 ------- 1 1.1 2.0 44 13
r 1.461595 2 1 ack 576 ------- 1 2.0 1.1 1073 12
+ 1.461595 1 2 tcp 40 ------- 1 1.1 2.0 44 14
- 1.461595 1 2 tcp 40 ------- 1 1.1 2.0 44 14
r 1.508736 1 2 tcp 40 ------- 1 1.1 2.0 44 13
r 1.511808 1 2 tcp 40 ------- 1 1.1 2.0 44 14
+ 1.511808 2 1 ack 432 ------- 1 2.0 1.1 1609 15
- 1.511808 2 1 ack 432 ------- 1 2.0 1.1 1609 15
r 1.564112 2 1 ack 432 ------- 1 2.0 1.1 1609 15
+ 1.564112 1 0 ack 576 ------- 0 1.0 0.0 1 16
- 1.564112 1 0 ack 576 ------- 0 1.0 0.0 1 16
+ 1.6 1 2 tcp 40 ------- 1 1.1 2.0 44 17
- 1.6 1 2 tcp 40 ------- 1 1.1 2.0 44 17
r 1.617184 1 0 ack 576 ------- 0 1.0 0.0 1 16
+ 1.617184 0 1 tcp 40 ------- 0 0.0 1.0 44 18
- 1.617184 0 1 tcp 40 ------- 0 0.0 1.0 44 18
r 1.650213 1 2 tcp 40 ------- 1 1.1 2.0 44 17
r 1.667397 0 1 tcp 40 ------- 0 0.0 1.0 44 18
+ 1.667397 1 0 ack 576 ------- 0 1.0 0.0 537 19
- 1.667397 1 0 ack 576 ------- 0 1.0 0.0 537 19
+ 1.667397 1 0 ack 576 ------- 0 1.0 0.0 1073 20
- 1.670469 1 0 ack 576 ------- 0 1.0 0.0 1073 20
r 1.720469 1 0 ack 576 ------- 0 1.0 0.0 537 19
+ 1.720469 0 1 tcp 40 ------- 0 0.0 1.0 44 21
- 1.720469 0 1 tcp 40 ------- 0 0.0 1.0 44 21
r 1.723541 1 0 ack 576 ------- 0 1.0 0.0 1073 20
+ 1.723541 0 1 tcp 40 ------- 0 0.0 1.0 44 22
- 1.723541 0 1 tcp 40 ------- 0 0.0 1.0 44 22
r 1.770683 0 1 tcp 40 ------- 0 0.0 1.0 44 21
r 1.773755 0 1 tcp 40 ------- 0 0.0 1.0 44 22
+ 1.773755 1 0 ack 432 ------- 0 1.0 0.0 1609 23
- 1.773755 1 0 ack 432 ------- 0 1.0 0.0 1609 23
r 1.826059 1 0 ack 432 ------- 0 1.0 0.0 1609 23
+ 1.9 0 1 tcp 40 ------- 0 0.0 1.0 44 24
- 1.9 0 1 tcp 40 ------- 0 0.0 1.0 44 24
r 1.950213 0 1 tcp 40 ------- 0 0.0 1.0 44 24
+ 9 1 0 ack 40 ------- 0 1.0 0.0 2001 25
- 9 1 0 ack 40 ------- 0 1.0 0.0 2001 25
+ 9 0 1 tcp 40 ------- 0 0.0 1.0 44 26
- 9 0 1 tcp 40 ------- 0 0.0 1.0 44 26
+ 9 2 1 ack 40 ------- 1 2.0 1.1 2001 27
- 9 2 1 ack 40 ------- 1 2.0 1.1 2001 27
+ 9 1 2 tcp 40 ------- 1 1.1 2.0 44 28
- 9 1 2 tcp 40 ------- 1 1.1 2.0 44 28
r 9.050213 1 0 ack 40 ------- 0 1.0 0.0 2001 25
+ 9.050213 0 1 tcp 40 ------- 0 0.0 1.0 44 29
- 9.050213 0 1 tcp 40 ------- 0 0.0 1.0 44 29
r 9.050213 0 1 tcp 40 ------- 0 0.0 1.0 44 26
+ 9.050213 1 0 ack 40 ------- 0 1.0 0.0 2001 30
- 9.050213 1 0 ack 40 ------- 0 1.0 0.0 2001 30
r 9.050213 2 1 ack 40 ------- 1 2.0 1.1 2001 27
+ 9.050213 1 2 tcp 40 ------- 1 1.1 2.0 44 31
- 9.050213 1 2 tcp 40 ------- 1 1.1 2.0 44 31
r 9.050213 1 2 tcp 40 ------- 1 1.1 2.0 44 28
+ 9.050213 2 1 ack 40 ------- 1 2.0 1.1 2001 32
- 9.050213 2 1 ack 40 ------- 1 2.0 1.1 2001 32
r 9.100427 0 1 tcp 40 ------- 0 0.0 1.0 44 29
r 9.100427 1 0 ack 40 ------- 0 1.0 0.0 2001 30
r 9.100427 1 2 tcp 40 ------- 1 1.1 2.0 44 31
r 9.100427 2 1 ack 40 ------- 1 2.0 1.1 2001 32
+ 21 0 1 tcp 40 ------- 2 0.0 1.0 0 33
- 21 0 1 tcp 40 ------- 2 0.0 1.0 0 33
r 21.050213 0 1 tcp 40 ------- 2 0.0 1.0 0 33
+ 21.050213 1 0 ack 40 ------- 2 1.0 0.0 0 34
- 21.050213 1 0 ack 40 ------- 2 1.0 0.0 0 34
r 21.100427 1 0 ack 40 ------- 2 1.0 0.0 0 34
+ 21.100427 0 1 tcp 40 ------- 2 0.0 1.0 1 35
- 21.100427 0 1 tcp 40 ------- 2 0.0 1.0 1 35
+ 21.100427 0 1 tcp 83 ------- 2 0.0 1.0 1 36
- 21.10064 0 1 tcp 83 ------- 2 0.0 1.0 1 36
r 21.15064 0 1 tcp 40 ------- 2 0.0 1.0 1 35
r 21.151083 0 1 tcp 83 ------- 2 0.0 1.0 1 36
+ 21.151083 1 0 ack 576 ------- 2 1.0 0.0 1 37
- 21.151083 1 0 ack 576 ------- 2 1.0 0.0 1 37
r 21.204155 1 0 ack 576 ------- 2 1.0 0.0 1 37
+ 21.204155 0 1 tcp 40 ------- 2 0.0 1.0 44 38
- 21.204155 0 1 tcp 40 ------- 2 0.0 1.0 44 38
r 21.254368 0 1 tcp 40 ------- 2 0.0 1.0 44 38
+ 21.254368 1 0 ack 576 ------- 2 1.0 0.0 537 39
- 21.254368 1 0 ack 576 ------- 2 1.0 0.0 537 39
+ 21.254368 1 0 ack 576 ------- 2 1.0 0.0 1073 40
- 21.25744 1 0 ack 576 ------- 2 1.0 0.0 1073 40
r 21.30744 1 0 ack 576 ------- 2 1.0 0.0 537 39
+ 21.30744 0 1 tcp 40 ------- 2 0.0 1.0 44 41
- 21.30744 0 1 tcp 40 ------- 2 0.0 1.0 44 41
r 21.310512 1 0 ack 576 ------- 2 1.0 0.0 1073 40
+ 21.310512 0 1 tcp 40 ------- 2 0.0 1.0 44 42
- 21.310512 0 1 tcp 40 ------- 2 0.0 1.0 44 42
r 21.357653 0 1 tcp 40 ------- 2 0.0 1.0 44 41
r 21.360725 0 1 tcp 40 ------- 2 0.0 1.0 44 42
+ 21.360725 1 0 ack 432 ------- 2 1.0 0.0 1609 43
- 21.360725 1 0 ack 432 ------- 2 1.0 0.0 1609 43
r 21.413029 1 0 ack 432 ------- 2 1.0 0.0 1609 43
+ 21.5 0 1 tcp 40 ------- 2 0.0 1.0 44 44
- 21.5 0 1 tcp 40 ------- 2 0.0 1.0 44 44
r 21.550213 0 1 tcp 40 ------- 2 0.0 1.0 44 44
+ 29 1 0 ack 40 ------- 2 1.0 0.0 2001 45
- 29 1 0 ack 40 ------- 2 1.0 0.0 2001 45
+ 29 0 1 tcp 40 ------- 2 0.0 1.0 44 46
- 29 0 1 tcp 40 ------- 2 0.0 1.0 44 46
r 29.050213 1 0 ack 40 ------- 2 1.0 0.0 2001 45
+ 29.050213 0 1 tcp 40 ------- 2 0.0 1.0 44 47
- 29.050213 0 1 tcp 40 ------- 2 0.0 1.0 44 47
r 29.050213 0 1 tcp 40 ------- 2 0.0 1.0 44 46
+ 29.050213 1 0 ack 40 ------- 2 1.0 0.0 2001 48
- 29.050213 1 0 ack 40 ------- 2 1.0 0.0 2001 48
r 29.100427 0 1 tcp 40 ------- 2 0.0 1.0 44 47
r 29.100427 1 0 ack 40 ------- 2 1.0 0.0 2001 48
