# TESTNAME: http2
# TOPOLOGY: 3node
# avg-comp-page-age: 40000
# avg-page-age: 60
# avg-page-size: 1024
# avg-req-interval: 60
# client-req-size: 43
# comp-page-size: 51200
# duration: 500
# enable-log: 0
# hb-interval: 30
# max-page-age: 70
# max-page-size: 50000
# max-req-interval: 70
# min-page-age: 50
# min-page-size: 100
# min-req-interval: 50
# nam-trace-all: 1
# ns-random-seed: 188312339
# num-2nd-cache: 5
# num-comp-pages: 1
# prot: http2
# scheduler-type: Calendar
# single-page: 1
# ttl: 0.1
# upd-interval: 5
# xtrace-page: webtrace-pglog
# xtrace-req: webtrace-reqlog
+ 1 0 1 tcp 83 ------- 0 0.0 1.0 1 0
- 1 0 1 tcp 83 ------- 0 0.0 1.0 1 0
r 1.050443 0 1 tcp 83 ------- 0 0.0 1.0 1 0
+ 1.050443 1 2 tcp 83 ------- 1 1.1 2.0 1 1
- 1.050443 1 2 tcp 83 ------- 1 1.1 2.0 1 1
r 1.100885 1 2 tcp 83 ------- 1 1.1 2.0 1 1
+ 1.100885 2 1 tcp 2040 ------- 1 2.0 1.1 1 2
- 1.100885 2 1 tcp 2040 ------- 1 2.0 1.1 1 2
r 1.161765 2 1 tcp 2040 ------- 1 2.0 1.1 1 2
+ 1.161765 1 0 tcp 2040 ------- 0 1.0 0.0 1 3
- 1.161765 1 0 tcp 2040 ------- 0 1.0 0.0 1 3
r 1.222645 1 0 tcp 2040 ------- 0 1.0 0.0 1 3
+ 21 0 1 tcp 83 ------- 2 0.0 1.0 1 4
- 21 0 1 tcp 83 ------- 2 0.0 1.0 1 4
r 21.050443 0 1 tcp 83 ------- 2 0.0 1.0 1 4
+ 21.050443 1 0 tcp 2040 ------- 2 1.0 0.0 1 5
- 21.050443 1 0 tcp 2040 ------- 2 1.0 0.0 1 5
r 21.111323 1 0 tcp 2040 ------- 2 1.0 0.0 1 5
