# TESTNAME: http4
# TOPOLOGY: 5node
# avg-comp-page-age: 40000
# avg-page-age: 60
# avg-page-size: 1024
# avg-req-interval: 60
# client-req-size: 43
# comp-page-size: 51200
# duration: 500
# enable-log: 0
# hb-interval: 30
# max-page-age: 70
# max-page-size: 50000
# max-req-interval: 70
# min-page-age: 50
# min-page-size: 100
# min-req-interval: 50
# nam-trace-all: 1
# ns-random-seed: 188312339
# num-2nd-cache: 5
# num-comp-pages: 1
# prot: http4
# scheduler-type: Calendar
# single-page: 1
# ttl: 0.1
# upd-interval: 5
# xtrace-page: webtrace-pglog
# xtrace-req: webtrace-reqlog
+ 1 0 3 tcp 83 ------- 0 0.0 3.0 1 0
- 1 0 3 tcp 83 ------- 0 0.0 3.0 1 0
r 1.050664 0 3 tcp 83 ------- 0 0.0 3.0 1 0
+ 1.050664 3 4 tcp 83 ------- 3 3.3 4.0 1 1
- 1.050664 3 4 tcp 83 ------- 3 3.3 4.0 1 1
r 1.101328 3 4 tcp 83 ------- 3 3.3 4.0 1 1
+ 1.101328 4 3 tcp 2040 ------- 3 4.0 3.3 1 2
- 1.101328 4 3 tcp 2040 ------- 3 4.0 3.3 1 2
r 1.167648 4 3 tcp 2040 ------- 3 4.0 3.3 1 2
+ 1.167648 3 0 tcp 2040 ------- 0 3.0 0.0 1 3
- 1.167648 3 0 tcp 2040 ------- 0 3.0 0.0 1 3
r 1.233968 3 0 tcp 2040 ------- 0 3.0 0.0 1 3
+ 2 1 3 tcp 83 ------- 1 1.0 3.1 1 4
- 2 1 3 tcp 83 ------- 1 1.0 3.1 1 4
r 2.050664 1 3 tcp 83 ------- 1 1.0 3.1 1 4
+ 2.050664 3 4 tcp 83 ------- 3 3.3 4.0 2 5
- 2.050664 3 4 tcp 83 ------- 3 3.3 4.0 2 5
r 2.101328 3 4 tcp 83 ------- 3 3.3 4.0 2 5
+ 2.101328 4 3 tcp 2040 ------- 3 4.0 3.3 2 6
- 2.101328 4 3 tcp 2040 ------- 3 4.0 3.3 2 6
r 2.167648 4 3 tcp 2040 ------- 3 4.0 3.3 2 6
+ 2.167648 3 1 tcp 2040 ------- 1 3.1 1.0 1 7
- 2.167648 3 1 tcp 2040 ------- 1 3.1 1.0 1 7
r 2.233968 3 1 tcp 2040 ------- 1 3.1 1.0 1 7
+ 3 2 3 tcp 83 ------- 2 2.0 3.2 1 8
- 3 2 3 tcp 83 ------- 2 2.0 3.2 1 8
r 3.050664 2 3 tcp 83 ------- 2 2.0 3.2 1 8
+ 3.050664 3 4 tcp 90 ------- 3 3.3 4.0 3 9
- 3.050664 3 4 tcp 90 ------- 3 3.3 4.0 3 9
r 3.101384 3 4 tcp 90 ------- 3 3.3 4.0 3 9
+ 3.101384 4 3 tcp 83 ------- 3 4.0 3.3 3 10
- 3.101384 4 3 tcp 83 ------- 3 4.0 3.3 3 10
r 3.152048 4 3 tcp 83 ------- 3 4.0 3.3 3 10
+ 3.152048 3 2 tcp 2040 ------- 2 3.2 2.0 1 11
- 3.152048 3 2 tcp 2040 ------- 2 3.2 2.0 1 11
r 3.218368 3 2 tcp 2040 ------- 2 3.2 2.0 1 11
+ 6 0 3 tcp 83 ------- 0 0.0 3.0 2 12
- 6 0 3 tcp 83 ------- 0 0.0 3.0 2 12
r 6.050664 0 3 tcp 83 ------- 0 0.0 3.0 2 12
+ 6.050664 3 4 tcp 90 ------- 3 3.3 4.0 4 13
- 6.050664 3 4 tcp 90 ------- 3 3.3 4.0 4 13
r 6.101384 3 4 tcp 90 ------- 3 3.3 4.0 4 13
+ 6.101384 4 3 tcp 83 ------- 3 4.0 3.3 4 14
- 6.101384 4 3 tcp 83 ------- 3 4.0 3.3 4 14
r 6.152048 4 3 tcp 83 ------- 3 4.0 3.3 4 14
+ 6.152048 3 0 tcp 2040 ------- 0 3.0 0.0 2 15
- 6.152048 3 0 tcp 2040 ------- 0 3.0 0.0 2 15
r 6.218368 3 0 tcp 2040 ------- 0 3.0 0.0 2 15
+ 7 1 3 tcp 83 ------- 1 1.0 3.1 2 16
- 7 1 3 tcp 83 ------- 1 1.0 3.1 2 16
r 7.050664 1 3 tcp 83 ------- 1 1.0 3.1 2 16
+ 7.050664 3 4 tcp 90 ------- 3 3.3 4.0 5 17
- 7.050664 3 4 tcp 90 ------- 3 3.3 4.0 5 17
r 7.101384 3 4 tcp 90 ------- 3 3.3 4.0 5 17
+ 7.101384 4 3 tcp 83 ------- 3 4.0 3.3 5 18
- 7.101384 4 3 tcp 83 ------- 3 4.0 3.3 5 18
r 7.152048 4 3 tcp 83 ------- 3 4.0 3.3 5 18
+ 7.152048 3 1 tcp 2040 ------- 1 3.1 1.0 2 19
- 7.152048 3 1 tcp 2040 ------- 1 3.1 1.0 2 19
r 7.218368 3 1 tcp 2040 ------- 1 3.1 1.0 2 19
+ 8 2 3 tcp 83 ------- 2 2.0 3.2 2 20
- 8 2 3 tcp 83 ------- 2 2.0 3.2 2 20
r 8.050664 2 3 tcp 83 ------- 2 2.0 3.2 2 20
+ 8.050664 3 4 tcp 90 ------- 3 3.3 4.0 6 21
- 8.050664 3 4 tcp 90 ------- 3 3.3 4.0 6 21
r 8.101384 3 4 tcp 90 ------- 3 3.3 4.0 6 21
+ 8.101384 4 3 tcp 83 ------- 3 4.0 3.3 6 22
- 8.101384 4 3 tcp 83 ------- 3 4.0 3.3 6 22
r 8.152048 4 3 tcp 83 ------- 3 4.0 3.3 6 22
+ 8.152048 3 2 tcp 2040 ------- 2 3.2 2.0 2 23
- 8.152048 3 2 tcp 2040 ------- 2 3.2 2.0 2 23
r 8.218368 3 2 tcp 2040 ------- 2 3.2 2.0 2 23
