# TESTNAME: Liveness
# TOPOLOGY: cache4d
# avg-comp-page-age: 40000
# avg-page-age: 60
# avg-page-size: 1024
# avg-req-interval: 60
# client-req-size: 43
# comp-page-size: 51200
# duration: 1200
# enable-log: 0
# hb-interval: 30
# max-page-age: 70
# max-page-size: 50000
# max-req-interval: 70
# min-page-age: 50
# min-page-size: 100
# min-req-interval: 50
# nam-trace-all: 1
# ns-random-seed: 188312339
# num-2nd-cache: 5
# num-comp-pages: 1
# prot: Liveness
# scheduler-type: Calendar
# single-page: 1
# ttl: 0.1
# upd-interval: 5
# xtrace-page: webtrace-pglog
# xtrace-req: webtrace-reqlog
v 10 eval {set sim_annotation {10 1 join-group 1073741824}}
v 10 eval {set sim_annotation {10 2 join-group 1073741824}}
v 10 eval {set sim_annotation {10 3 join-group 1073741824}}
v 10 eval {set sim_annotation {1073741824 switch tree type}}
v 10 eval {set sim_annotation {10 2 join-group 1073741825}}
v 10 eval {set sim_annotation {10 4 join-group 1073741825}}
v 10 eval {set sim_annotation {10 5 join-group 1073741825}}
v 10 eval {set sim_annotation {1073741825 switch tree type}}
v 10 eval {set sim_annotation {10 3 join-group 1073741826}}
v 10 eval {set sim_annotation {10 6 join-group 1073741826}}
v 10 eval {set sim_annotation {10 7 join-group 1073741826}}
v 10 eval {set sim_annotation {1073741826 switch tree type}}
+ 10 0 4 tcp 40 ------- 11 0.2 4.3 0 0
- 10 0 4 tcp 40 ------- 11 0.2 4.3 0 0
r 10.010032 0 4 tcp 40 ------- 11 0.2 4.3 0 0
+ 10.010032 4 0 ack 40 ------- 11 4.3 0.2 0 1
- 10.010032 4 0 ack 40 ------- 11 4.3 0.2 0 1
r 10.020064 4 0 ack 40 ------- 11 4.3 0.2 0 1
+ 10.020064 0 4 tcp 40 ------- 11 0.2 4.3 1 2
- 10.020064 0 4 tcp 40 ------- 11 0.2 4.3 1 2
+ 10.020064 0 4 tcp 50 ------- 11 0.2 4.3 1 3
- 10.020096 0 4 tcp 50 ------- 11 0.2 4.3 1 3
r 10.030096 0 4 tcp 40 ------- 11 0.2 4.3 1 2
r 10.030136 0 4 tcp 50 ------- 11 0.2 4.3 1 3
+ 10.030136 4 2 tcp 40 ------- 6 4.2 2.2 0 4
- 10.030136 4 2 tcp 40 ------- 6 4.2 2.2 0 4
r 10.040349 4 2 tcp 40 ------- 6 4.2 2.2 0 4
+ 10.040349 2 4 ack 40 ------- 6 2.2 4.2 0 5
- 10.040349 2 4 ack 40 ------- 6 2.2 4.2 0 5
r 10.050563 2 4 ack 40 ------- 6 2.2 4.2 0 5
+ 10.050563 4 2 tcp 40 ------- 6 4.2 2.2 1 6
- 10.050563 4 2 tcp 40 ------- 6 4.2 2.2 1 6
+ 10.050563 4 2 tcp 50 ------- 6 4.2 2.2 1 7
- 10.050776 4 2 tcp 50 ------- 6 4.2 2.2 1 7
r 10.060776 4 2 tcp 40 ------- 6 4.2 2.2 1 6
r 10.061043 4 2 tcp 50 ------- 6 4.2 2.2 1 7
+ 10.061043 2 12 tcp 40 ------- 4 2.1 1.1 0 8
- 10.061043 2 12 tcp 40 ------- 4 2.1 1.1 0 8
+ 10.1 4 0 ack 40 ------- 11 4.3 0.2 1 9
- 10.1 4 0 ack 40 ------- 11 4.3 0.2 1 9
+ 10.1 2 4 ack 40 ------- 6 2.2 4.2 1 10
- 10.1 2 4 ack 40 ------- 6 2.2 4.2 1 10
r 10.110032 4 0 ack 40 ------- 11 4.3 0.2 1 9
r 10.110213 2 4 ack 40 ------- 6 2.2 4.2 1 10
r 10.111256 2 12 tcp 40 ------- 4 2.1 1.1 0 8
+ 10.111256 12 1 tcp 40 ------- 4 2.1 1.1 0 8
- 10.111256 12 1 tcp 40 ------- 4 2.1 1.1 0 8
r 10.112259 12 1 tcp 40 ------- 4 2.1 1.1 0 8
+ 10.112259 1 12 ack 40 ------- 4 1.1 2.1 0 11
- 10.112259 1 12 ack 40 ------- 4 1.1 2.1 0 11
r 10.113262 1 12 ack 40 ------- 4 1.1 2.1 0 11
+ 10.113262 12 2 ack 40 ------- 4 1.1 2.1 0 11
- 10.113262 12 2 ack 40 ------- 4 1.1 2.1 0 11
r 10.163476 12 2 ack 40 ------- 4 1.1 2.1 0 11
+ 10.163476 2 12 tcp 40 ------- 4 2.1 1.1 1 12
- 10.163476 2 12 tcp 40 ------- 4 2.1 1.1 1 12
+ 10.163476 2 12 tcp 50 ------- 4 2.1 1.1 1 13
- 10.163689 2 12 tcp 50 ------- 4 2.1 1.1 1 13
r 10.213689 2 12 tcp 40 ------- 4 2.1 1.1 1 12
+ 10.213689 12 1 tcp 40 ------- 4 2.1 1.1 1 12
- 10.213689 12 1 tcp 40 ------- 4 2.1 1.1 1 12
r 10.213956 2 12 tcp 50 ------- 4 2.1 1.1 1 13
+ 10.213956 12 1 tcp 50 ------- 4 2.1 1.1 1 13
- 10.213956 12 1 tcp 50 ------- 4 2.1 1.1 1 13
r 10.214692 12 1 tcp 40 ------- 4 2.1 1.1 1 12
r 10.21496 12 1 tcp 50 ------- 4 2.1 1.1 1 13
+ 10.3 1 12 ack 40 ------- 4 1.1 2.1 1 14
- 10.3 1 12 ack 40 ------- 4 1.1 2.1 1 14
r 10.301003 1 12 ack 40 ------- 4 1.1 2.1 1 14
+ 10.301003 12 2 ack 40 ------- 4 1.1 2.1 1 14
- 10.301003 12 2 ack 40 ------- 4 1.1 2.1 1 14
r 10.351217 12 2 ack 40 ------- 4 1.1 2.1 1 14
+ 20 8 4 tcp 40 ------- 0 8.1 4.1 0 15
- 20 8 4 tcp 40 ------- 0 8.1 4.1 0 15
+ 20 9 5 tcp 40 ------- 1 9.1 5.1 0 16
- 20 9 5 tcp 40 ------- 1 9.1 5.1 0 16
+ 20 10 6 tcp 40 ------- 2 10.1 6.1 0 17
- 20 10 6 tcp 40 ------- 2 10.1 6.1 0 17
+ 20 11 7 tcp 40 ------- 3 11.1 7.1 0 18
- 20 11 7 tcp 40 ------- 3 11.1 7.1 0 18
r 20.001032 8 4 tcp 40 ------- 0 8.1 4.1 0 15
+ 20.001032 4 8 ack 40 ------- 0 4.1 8.1 0 19
- 20.001032 4 8 ack 40 ------- 0 4.1 8.1 0 19
r 20.001032 9 5 tcp 40 ------- 1 9.1 5.1 0 16
+ 20.001032 5 9 ack 40 ------- 1 5.1 9.1 0 20
- 20.001032 5 9 ack 40 ------- 1 5.1 9.1 0 20
r 20.001032 10 6 tcp 40 ------- 2 10.1 6.1 0 17
+ 20.001032 6 10 ack 40 ------- 2 6.1 10.1 0 21
- 20.001032 6 10 ack 40 ------- 2 6.1 10.1 0 21
r 20.001032 11 7 tcp 40 ------- 3 11.1 7.1 0 18
+ 20.001032 7 11 ack 40 ------- 3 7.1 11.1 0 22
- 20.001032 7 11 ack 40 ------- 3 7.1 11.1 0 22
r 20.002064 4 8 ack 40 ------- 0 4.1 8.1 0 19
+ 20.002064 8 4 tcp 40 ------- 0 8.1 4.1 1 23
- 20.002064 8 4 tcp 40 ------- 0 8.1 4.1 1 23
+ 20.002064 8 4 tcp 83 ------- 0 8.1 4.1 1 24
r 20.002064 5 9 ack 40 ------- 1 5.1 9.1 0 20
+ 20.002064 9 5 tcp 40 ------- 1 9.1 5.1 1 25
- 20.002064 9 5 tcp 40 ------- 1 9.1 5.1 1 25
+ 20.002064 9 5 tcp 83 ------- 1 9.1 5.1 1 26
r 20.002064 6 10 ack 40 ------- 2 6.1 10.1 0 21
+ 20.002064 10 6 tcp 40 ------- 2 10.1 6.1 1 27
- 20.002064 10 6 tcp 40 ------- 2 10.1 6.1 1 27
+ 20.002064 10 6 tcp 83 ------- 2 10.1 6.1 1 28
r 20.002064 7 11 ack 40 ------- 3 7.1 11.1 0 22
+ 20.002064 11 7 tcp 40 ------- 3 11.1 7.1 1 29
- 20.002064 11 7 tcp 40 ------- 3 11.1 7.1 1 29
+ 20.002064 11 7 tcp 83 ------- 3 11.1 7.1 1 30
- 20.002096 8 4 tcp 83 ------- 0 8.1 4.1 1 24
- 20.002096 9 5 tcp 83 ------- 1 9.1 5.1 1 26
- 20.002096 10 6 tcp 83 ------- 2 10.1 6.1 1 28
- 20.002096 11 7 tcp 83 ------- 3 11.1 7.1 1 30
r 20.003096 8 4 tcp 40 ------- 0 8.1 4.1 1 23
r 20.003096 9 5 tcp 40 ------- 1 9.1 5.1 1 25
r 20.003096 10 6 tcp 40 ------- 2 10.1 6.1 1 27
r 20.003096 11 7 tcp 40 ------- 3 11.1 7.1 1 29
r 20.003162 8 4 tcp 83 ------- 0 8.1 4.1 1 24
+ 20.003162 4 0 ack 83 ------- 11 4.3 0.2 1 31
- 20.003162 4 0 ack 83 ------- 11 4.3 0.2 1 31
r 20.003162 9 5 tcp 83 ------- 1 9.1 5.1 1 26
+ 20.003162 5 2 tcp 40 ------- 7 5.2 2.3 0 32
- 20.003162 5 2 tcp 40 ------- 7 5.2 2.3 0 32
r 20.003162 10 6 tcp 83 ------- 2 10.1 6.1 1 28
+ 20.003162 6 3 tcp 40 ------- 8 6.2 3.2 0 33
- 20.003162 6 3 tcp 40 ------- 8 6.2 3.2 0 33
r 20.003162 11 7 tcp 83 ------- 3 11.1 7.1 1 30
+ 20.003162 7 3 tcp 40 ------- 9 7.2 3.3 0 34
- 20.003162 7 3 tcp 40 ------- 9 7.2 3.3 0 34
r 20.013229 4 0 ack 83 ------- 11 4.3 0.2 1 31
+ 20.013229 0 4 tcp 576 ---A--- 11 0.2 4.3 11 35
- 20.013229 0 4 tcp 576 ---A--- 11 0.2 4.3 11 35
r 20.013376 5 2 tcp 40 ------- 7 5.2 2.3 0 32
+ 20.013376 2 5 ack 40 ------- 7 2.3 5.2 0 36
- 20.013376 2 5 ack 40 ------- 7 2.3 5.2 0 36
r 20.013376 6 3 tcp 40 ------- 8 6.2 3.2 0 33
+ 20.013376 3 6 ack 40 ------- 8 3.2 6.2 0 37
- 20.013376 3 6 ack 40 ------- 8 3.2 6.2 0 37
r 20.013376 7 3 tcp 40 ------- 9 7.2 3.3 0 34
+ 20.013376 3 7 ack 40 ------- 9 3.3 7.2 0 38
- 20.013376 3 7 ack 40 ------- 9 3.3 7.2 0 38
r 20.023589 2 5 ack 40 ------- 7 2.3 5.2 0 36
+ 20.023589 5 2 tcp 40 ------- 7 5.2 2.3 1 39
- 20.023589 5 2 tcp 40 ------- 7 5.2 2.3 1 39
+ 20.023589 5 2 tcp 83 ------- 7 5.2 2.3 1 40
r 20.023589 3 6 ack 40 ------- 8 3.2 6.2 0 37
+ 20.023589 6 3 tcp 40 ------- 8 6.2 3.2 1 41
- 20.023589 6 3 tcp 40 ------- 8 6.2 3.2 1 41
+ 20.023589 6 3 tcp 83 ------- 8 6.2 3.2 1 42
r 20.023589 3 7 ack 40 ------- 9 3.3 7.2 0 38
+ 20.023589 7 3 tcp 40 ------- 9 7.2 3.3 1 43
- 20.023589 7 3 tcp 40 ------- 9 7.2 3.3 1 43
+ 20.023589 7 3 tcp 83 ------- 9 7.2 3.3 1 44
r 20.02369 0 4 tcp 576 ---A--- 11 0.2 4.3 11 35
+ 20.02369 4 0 ack 40 ------- 11 4.3 0.2 44 45
- 20.02369 4 0 ack 40 ------- 11 4.3 0.2 44 45
- 20.023802 5 2 tcp 83 ------- 7 5.2 2.3 1 40
- 20.023802 6 3 tcp 83 ------- 8 6.2 3.2 1 42
- 20.023802 7 3 tcp 83 ------- 9 7.2 3.3 1 44
r 20.033722 4 0 ack 40 ------- 11 4.3 0.2 44 45
+ 20.033722 0 4 tcp 528 ------- 11 0.2 4.3 547 46
- 20.033722 0 4 tcp 528 ------- 11 0.2 4.3 547 46
r 20.033802 5 2 tcp 40 ------- 7 5.2 2.3 1 39
r 20.033802 6 3 tcp 40 ------- 8 6.2 3.2 1 41
r 20.033802 7 3 tcp 40 ------- 9 7.2 3.3 1 43
r 20.034245 5 2 tcp 83 ------- 7 5.2 2.3 1 40
+ 20.034245 2 4 ack 83 ------- 6 2.2 4.2 1 47
- 20.034245 2 4 ack 83 ------- 6 2.2 4.2 1 47
r 20.034245 6 3 tcp 83 ------- 8 6.2 3.2 1 42
+ 20.034245 3 12 tcp 40 ------- 5 3.1 1.2 0 48
- 20.034245 3 12 tcp 40 ------- 5 3.1 1.2 0 48
r 20.034245 7 3 tcp 83 ------- 9 7.2 3.3 1 44
r 20.044144 0 4 tcp 528 ------- 11 0.2 4.3 547 46
+ 20.044144 4 8 ack 576 ------- 0 4.1 8.1 1 49
- 20.044144 4 8 ack 576 ------- 0 4.1 8.1 1 49
r 20.044688 2 4 ack 83 ------- 6 2.2 4.2 1 47
+ 20.044688 4 2 tcp 576 ---A--- 6 4.2 2.2 11 50
- 20.044688 4 2 tcp 576 ---A--- 6 4.2 2.2 11 50
r 20.045605 4 8 ack 576 ------- 0 4.1 8.1 1 49
+ 20.045605 8 4 tcp 40 ------- 0 8.1 4.1 44 51
- 20.045605 8 4 tcp 40 ------- 0 8.1 4.1 44 51
r 20.046637 8 4 tcp 40 ------- 0 8.1 4.1 44 51
+ 20.046637 4 8 ack 528 ------- 0 4.1 8.1 537 52
- 20.046637 4 8 ack 528 ------- 0 4.1 8.1 537 52
r 20.048059 4 8 ack 528 ------- 0 4.1 8.1 537 52
r 20.05776 4 2 tcp 576 ---A--- 6 4.2 2.2 11 50
+ 20.05776 2 4 ack 40 ------- 6 2.2 4.2 44 53
- 20.05776 2 4 ack 40 ------- 6 2.2 4.2 44 53
r 20.067973 2 4 ack 40 ------- 6 2.2 4.2 44 53
+ 20.067973 4 2 tcp 528 ------- 6 4.2 2.2 547 54
- 20.067973 4 2 tcp 528 ------- 6 4.2 2.2 547 54
r 20.080789 4 2 tcp 528 ------- 6 4.2 2.2 547 54
+ 20.080789 2 5 ack 576 ------- 7 2.3 5.2 1 55
- 20.080789 2 5 ack 576 ------- 7 2.3 5.2 1 55
r 20.084458 3 12 tcp 40 ------- 5 3.1 1.2 0 48
+ 20.084458 12 1 tcp 40 ------- 5 3.1 1.2 0 48
- 20.084458 12 1 tcp 40 ------- 5 3.1 1.2 0 48
r 20.085462 12 1 tcp 40 ------- 5 3.1 1.2 0 48
+ 20.085462 1 12 ack 40 ------- 5 1.2 3.1 0 56
- 20.085462 1 12 ack 40 ------- 5 1.2 3.1 0 56
r 20.086465 1 12 ack 40 ------- 5 1.2 3.1 0 56
+ 20.086465 12 3 ack 40 ------- 5 1.2 3.1 0 56
- 20.086465 12 3 ack 40 ------- 5 1.2 3.1 0 56
r 20.093861 2 5 ack 576 ------- 7 2.3 5.2 1 55
+ 20.093861 5 2 tcp 40 ------- 7 5.2 2.3 44 57
- 20.093861 5 2 tcp 40 ------- 7 5.2 2.3 44 57
+ 20.1 5 9 ack 40 ------- 1 5.1 9.1 1 58
- 20.1 5 9 ack 40 ------- 1 5.1 9.1 1 58
+ 20.1 6 10 ack 40 ------- 2 6.1 10.1 1 59
- 20.1 6 10 ack 40 ------- 2 6.1 10.1 1 59
+ 20.1 7 11 ack 40 ------- 3 7.1 11.1 1 60
- 20.1 7 11 ack 40 ------- 3 7.1 11.1 1 60
+ 20.1 8 4 tcp 40 ------- 0 8.1 4.1 44 61
- 20.1 8 4 tcp 40 ------- 0 8.1 4.1 44 61
+ 20.1 3 6 ack 40 ------- 8 3.2 6.2 1 62
- 20.1 3 6 ack 40 ------- 8 3.2 6.2 1 62
+ 20.1 3 7 ack 40 ------- 9 3.3 7.2 1 63
- 20.1 3 7 ack 40 ------- 9 3.3 7.2 1 63
+ 20.1 4 0 ack 40 ------- 11 4.3 0.2 44 64
- 20.1 4 0 ack 40 ------- 11 4.3 0.2 44 64
+ 20.1 2 4 ack 40 ------- 6 2.2 4.2 44 65
- 20.1 2 4 ack 40 ------- 6 2.2 4.2 44 65
r 20.101032 5 9 ack 40 ------- 1 5.1 9.1 1 58
r 20.101032 6 10 ack 40 ------- 2 6.1 10.1 1 59
r 20.101032 7 11 ack 40 ------- 3 7.1 11.1 1 60
r 20.101032 8 4 tcp 40 ------- 0 8.1 4.1 44 61
r 20.104074 5 2 tcp 40 ------- 7 5.2 2.3 44 57
+ 20.104074 2 5 ack 528 ------- 7 2.3 5.2 537 66
- 20.104074 2 5 ack 528 ------- 7 2.3 5.2 537 66
r 20.110032 4 0 ack 40 ------- 11 4.3 0.2 44 64
r 20.110213 3 6 ack 40 ------- 8 3.2 6.2 1 62
r 20.110213 3 7 ack 40 ------- 9 3.3 7.2 1 63
r 20.110213 2 4 ack 40 ------- 6 2.2 4.2 44 65
r 20.11689 2 5 ack 528 ------- 7 2.3 5.2 537 66
+ 20.11689 5 9 ack 576 ------- 1 5.1 9.1 1 67
- 20.11689 5 9 ack 576 ------- 1 5.1 9.1 1 67
r 20.118351 5 9 ack 576 ------- 1 5.1 9.1 1 67
+ 20.118351 9 5 tcp 40 ------- 1 9.1 5.1 44 68
- 20.118351 9 5 tcp 40 ------- 1 9.1 5.1 44 68
r 20.119383 9 5 tcp 40 ------- 1 9.1 5.1 44 68
+ 20.119383 5 9 ack 528 ------- 1 5.1 9.1 537 69
- 20.119383 5 9 ack 528 ------- 1 5.1 9.1 537 69
r 20.120806 5 9 ack 528 ------- 1 5.1 9.1 537 69
r 20.136678 12 3 ack 40 ------- 5 1.2 3.1 0 56
+ 20.136678 3 12 tcp 40 ------- 5 3.1 1.2 1 70
- 20.136678 3 12 tcp 40 ------- 5 3.1 1.2 1 70
+ 20.136678 3 12 tcp 83 ------- 5 3.1 1.2 1 71
- 20.136891 3 12 tcp 83 ------- 5 3.1 1.2 1 71
r 20.186891 3 12 tcp 40 ------- 5 3.1 1.2 1 70
+ 20.186891 12 1 tcp 40 ------- 5 3.1 1.2 1 70
- 20.186891 12 1 tcp 40 ------- 5 3.1 1.2 1 70
r 20.187334 3 12 tcp 83 ------- 5 3.1 1.2 1 71
+ 20.187334 12 1 tcp 83 ------- 5 3.1 1.2 1 71
- 20.187334 12 1 tcp 83 ------- 5 3.1 1.2 1 71
r 20.187895 12 1 tcp 40 ------- 5 3.1 1.2 1 70
r 20.188341 12 1 tcp 83 ------- 5 3.1 1.2 1 71
+ 20.188341 1 12 ack 83 ------- 4 1.1 2.1 1 72
- 20.188341 1 12 ack 83 ------- 4 1.1 2.1 1 72
r 20.189347 1 12 ack 83 ------- 4 1.1 2.1 1 72
+ 20.189347 12 2 ack 83 ------- 4 1.1 2.1 1 72
- 20.189347 12 2 ack 83 ------- 4 1.1 2.1 1 72
+ 20.2 9 5 tcp 40 ------- 1 9.1 5.1 44 73
- 20.2 9 5 tcp 40 ------- 1 9.1 5.1 44 73
+ 20.2 5 2 tcp 40 ------- 7 5.2 2.3 44 74
- 20.2 5 2 tcp 40 ------- 7 5.2 2.3 44 74
+ 20.2 1 12 ack 40 ------- 5 1.2 3.1 1 75
- 20.2 1 12 ack 40 ------- 5 1.2 3.1 1 75
r 20.201003 1 12 ack 40 ------- 5 1.2 3.1 1 75
+ 20.201003 12 3 ack 40 ------- 5 1.2 3.1 1 75
- 20.201003 12 3 ack 40 ------- 5 1.2 3.1 1 75
r 20.201032 9 5 tcp 40 ------- 1 9.1 5.1 44 73
r 20.210213 5 2 tcp 40 ------- 7 5.2 2.3 44 74
r 20.23979 12 2 ack 83 ------- 4 1.1 2.1 1 72
+ 20.23979 2 12 tcp 576 ---A--- 4 2.1 1.1 11 76
- 20.23979 2 12 tcp 576 ---A--- 4 2.1 1.1 11 76
r 20.251217 12 3 ack 40 ------- 5 1.2 3.1 1 75
r 20.292862 2 12 tcp 576 ---A--- 4 2.1 1.1 11 76
+ 20.292862 12 1 tcp 576 ---A--- 4 2.1 1.1 11 76
- 20.292862 12 1 tcp 576 ---A--- 4 2.1 1.1 11 76
r 20.293908 12 1 tcp 576 ---A--- 4 2.1 1.1 11 76
+ 20.293908 1 12 ack 40 ------- 4 1.1 2.1 44 77
- 20.293908 1 12 ack 40 ------- 4 1.1 2.1 44 77
r 20.294911 1 12 ack 40 ------- 4 1.1 2.1 44 77
+ 20.294911 12 2 ack 40 ------- 4 1.1 2.1 44 77
- 20.294911 12 2 ack 40 ------- 4 1.1 2.1 44 77
r 20.345125 12 2 ack 40 ------- 4 1.1 2.1 44 77
+ 20.345125 2 12 tcp 528 ------- 4 2.1 1.1 547 78
- 20.345125 2 12 tcp 528 ------- 4 2.1 1.1 547 78
r 20.397941 2 12 tcp 528 ------- 4 2.1 1.1 547 78
+ 20.397941 12 1 tcp 528 ------- 4 2.1 1.1 547 78
- 20.397941 12 1 tcp 528 ------- 4 2.1 1.1 547 78
r 20.398983 12 1 tcp 528 ------- 4 2.1 1.1 547 78
+ 20.398983 1 12 ack 576 ------- 5 1.2 3.1 1 79
- 20.398983 1 12 ack 576 ------- 5 1.2 3.1 1 79
+ 20.4 1 12 ack 40 ------- 4 1.1 2.1 44 80
- 20.4 1 12 ack 40 ------- 4 1.1 2.1 44 80
r 20.400029 1 12 ack 576 ------- 5 1.2 3.1 1 79
+ 20.400029 12 3 ack 576 ------- 5 1.2 3.1 1 79
- 20.400029 12 3 ack 576 ------- 5 1.2 3.1 1 79
r 20.401003 1 12 ack 40 ------- 4 1.1 2.1 44 80
+ 20.401003 12 2 ack 40 ------- 4 1.1 2.1 44 80
- 20.401003 12 2 ack 40 ------- 4 1.1 2.1 44 80
r 20.451217 12 2 ack 40 ------- 4 1.1 2.1 44 80
r 20.453101 12 3 ack 576 ------- 5 1.2 3.1 1 79
+ 20.453101 3 12 tcp 40 ------- 5 3.1 1.2 44 81
- 20.453101 3 12 tcp 40 ------- 5 3.1 1.2 44 81
r 20.503314 3 12 tcp 40 ------- 5 3.1 1.2 44 81
+ 20.503314 12 1 tcp 40 ------- 5 3.1 1.2 44 81
- 20.503314 12 1 tcp 40 ------- 5 3.1 1.2 44 81
r 20.504318 12 1 tcp 40 ------- 5 3.1 1.2 44 81
+ 20.504318 1 12 ack 528 ------- 5 1.2 3.1 537 82
- 20.504318 1 12 ack 528 ------- 5 1.2 3.1 537 82
r 20.50536 1 12 ack 528 ------- 5 1.2 3.1 537 82
+ 20.50536 12 3 ack 528 ------- 5 1.2 3.1 537 82
- 20.50536 12 3 ack 528 ------- 5 1.2 3.1 537 82
r 20.558176 12 3 ack 528 ------- 5 1.2 3.1 537 82
+ 20.558176 3 6 ack 576 ------- 8 3.2 6.2 1 83
- 20.558176 3 6 ack 576 ------- 8 3.2 6.2 1 83
+ 20.558176 3 7 ack 576 ------- 9 3.3 7.2 1 84
- 20.558176 3 7 ack 576 ------- 9 3.3 7.2 1 84
r 20.571248 3 6 ack 576 ------- 8 3.2 6.2 1 83
+ 20.571248 6 3 tcp 40 ------- 8 6.2 3.2 44 85
- 20.571248 6 3 tcp 40 ------- 8 6.2 3.2 44 85
r 20.571248 3 7 ack 576 ------- 9 3.3 7.2 1 84
+ 20.571248 7 3 tcp 40 ------- 9 7.2 3.3 44 86
- 20.571248 7 3 tcp 40 ------- 9 7.2 3.3 44 86
r 20.581461 6 3 tcp 40 ------- 8 6.2 3.2 44 85
+ 20.581461 3 6 ack 528 ------- 8 3.2 6.2 537 87
- 20.581461 3 6 ack 528 ------- 8 3.2 6.2 537 87
r 20.581461 7 3 tcp 40 ------- 9 7.2 3.3 44 86
+ 20.581461 3 7 ack 528 ------- 9 3.3 7.2 537 88
- 20.581461 3 7 ack 528 ------- 9 3.3 7.2 537 88
r 20.594277 3 6 ack 528 ------- 8 3.2 6.2 537 87
+ 20.594277 6 10 ack 576 ------- 2 6.1 10.1 1 89
- 20.594277 6 10 ack 576 ------- 2 6.1 10.1 1 89
r 20.594277 3 7 ack 528 ------- 9 3.3 7.2 537 88
+ 20.594277 7 11 ack 576 ------- 3 7.1 11.1 1 90
- 20.594277 7 11 ack 576 ------- 3 7.1 11.1 1 90
r 20.595738 6 10 ack 576 ------- 2 6.1 10.1 1 89
+ 20.595738 10 6 tcp 40 ------- 2 10.1 6.1 44 91
- 20.595738 10 6 tcp 40 ------- 2 10.1 6.1 44 91
r 20.595738 7 11 ack 576 ------- 3 7.1 11.1 1 90
+ 20.595738 11 7 tcp 40 ------- 3 11.1 7.1 44 92
- 20.595738 11 7 tcp 40 ------- 3 11.1 7.1 44 92
r 20.59677 10 6 tcp 40 ------- 2 10.1 6.1 44 91
+ 20.59677 6 10 ack 528 ------- 2 6.1 10.1 537 93
- 20.59677 6 10 ack 528 ------- 2 6.1 10.1 537 93
r 20.59677 11 7 tcp 40 ------- 3 11.1 7.1 44 92
+ 20.59677 7 11 ack 528 ------- 3 7.1 11.1 537 94
- 20.59677 7 11 ack 528 ------- 3 7.1 11.1 537 94
r 20.598192 6 10 ack 528 ------- 2 6.1 10.1 537 93
r 20.598192 7 11 ack 528 ------- 3 7.1 11.1 537 94
+ 20.6 10 6 tcp 40 ------- 2 10.1 6.1 44 95
- 20.6 10 6 tcp 40 ------- 2 10.1 6.1 44 95
+ 20.6 11 7 tcp 40 ------- 3 11.1 7.1 44 96
- 20.6 11 7 tcp 40 ------- 3 11.1 7.1 44 96
+ 20.6 6 3 tcp 40 ------- 8 6.2 3.2 44 97
- 20.6 6 3 tcp 40 ------- 8 6.2 3.2 44 97
+ 20.6 7 3 tcp 40 ------- 9 7.2 3.3 44 98
- 20.6 7 3 tcp 40 ------- 9 7.2 3.3 44 98
+ 20.6 3 12 tcp 40 ------- 5 3.1 1.2 44 99
- 20.6 3 12 tcp 40 ------- 5 3.1 1.2 44 99
r 20.601032 10 6 tcp 40 ------- 2 10.1 6.1 44 95
r 20.601032 11 7 tcp 40 ------- 3 11.1 7.1 44 96
r 20.610213 6 3 tcp 40 ------- 8 6.2 3.2 44 97
r 20.610213 7 3 tcp 40 ------- 9 7.2 3.3 44 98
r 20.650213 3 12 tcp 40 ------- 5 3.1 1.2 44 99
+ 20.650213 12 1 tcp 40 ------- 5 3.1 1.2 44 99
- 20.650213 12 1 tcp 40 ------- 5 3.1 1.2 44 99
r 20.651217 12 1 tcp 40 ------- 5 3.1 1.2 44 99
v 22.9279349 eval {set sim_annotation {S 0 INV _o445:0}}
+ 33.914706 8 4 tcp 83 ---A--- 0 8.1 4.1 44 100
- 33.914706 8 4 tcp 83 ---A--- 0 8.1 4.1 44 100
r 33.915772 8 4 tcp 83 ---A--- 0 8.1 4.1 44 100
+ 33.915772 4 8 ack 576 ---A--- 0 4.1 8.1 1025 101
- 33.915772 4 8 ack 576 ---A--- 0 4.1 8.1 1025 101
r 33.917233 4 8 ack 576 ---A--- 0 4.1 8.1 1025 101
+ 33.917233 8 4 tcp 40 ------- 0 8.1 4.1 87 102
- 33.917233 8 4 tcp 40 ------- 0 8.1 4.1 87 102
r 33.918265 8 4 tcp 40 ------- 0 8.1 4.1 87 102
+ 33.918265 4 8 ack 528 ------- 0 4.1 8.1 1561 103
- 33.918265 4 8 ack 528 ------- 0 4.1 8.1 1561 103
r 33.919688 4 8 ack 528 ------- 0 4.1 8.1 1561 103
+ 34 8 4 tcp 40 ------- 0 8.1 4.1 87 104
- 34 8 4 tcp 40 ------- 0 8.1 4.1 87 104
r 34.001032 8 4 tcp 40 ------- 0 8.1 4.1 87 104
v 37.480876539999997 eval {set sim_annotation {S 0 INV _o445:0}}
+ 40 1 12 httpInval 41 ------- 0 1.4 1073741824.0 -1 105
- 40 1 12 httpInval 41 ------- 0 1.4 1073741824.0 -1 105
+ 40 2 12 httpInval 40 ------- 40 2.7 1.5 -1 106
- 40 2 12 httpInval 40 ------- 40 2.7 1.5 -1 106
+ 40 2 4 httpInval 41 ------- 0 2.5 1073741825.0 -1 107
- 40 2 4 httpInval 41 ------- 0 2.5 1073741825.0 -1 107
+ 40 2 5 httpInval 41 ------- 0 2.5 1073741825.0 -1 107
- 40 2 5 httpInval 41 ------- 0 2.5 1073741825.0 -1 107
+ 40 3 6 httpInval 41 ------- 0 3.5 1073741826.0 -1 108
- 40 3 6 httpInval 41 ------- 0 3.5 1073741826.0 -1 108
+ 40 3 7 httpInval 41 ------- 0 3.5 1073741826.0 -1 108
- 40 3 7 httpInval 41 ------- 0 3.5 1073741826.0 -1 108
r 40.001003 1 12 httpInval 41 ------- 0 1.4 1073741824.0 -1 105
+ 40.001003 12 2 httpInval 41 ------- 0 1.4 1073741824.0 -1 105
- 40.001003 12 2 httpInval 41 ------- 0 1.4 1073741824.0 -1 105
+ 40.001003 12 3 httpInval 41 ------- 0 1.4 1073741824.0 -1 105
- 40.001003 12 3 httpInval 41 ------- 0 1.4 1073741824.0 -1 105
r 40.010219 2 4 httpInval 41 ------- 0 2.5 1073741825.0 -1 107
r 40.010219 2 5 httpInval 41 ------- 0 2.5 1073741825.0 -1 107
r 40.010219 3 6 httpInval 41 ------- 0 3.5 1073741826.0 -1 108
r 40.010219 3 7 httpInval 41 ------- 0 3.5 1073741826.0 -1 108
+ 40.030136 4 2 httpInval 40 ------- 40 4.6 2.6 -1 109
- 40.030136 4 2 httpInval 40 ------- 40 4.6 2.6 -1 109
r 40.040349 4 2 httpInval 40 ------- 40 4.6 2.6 -1 109
+ 40.040349 2 4 httpInval 40 ------- 40 2.6 4.6 -1 110
- 40.040349 2 4 httpInval 40 ------- 40 2.6 4.6 -1 110
r 40.050213 2 12 httpInval 40 ------- 40 2.7 1.5 -1 106
+ 40.050213 12 1 httpInval 40 ------- 40 2.7 1.5 -1 106
- 40.050213 12 1 httpInval 40 ------- 40 2.7 1.5 -1 106
r 40.050563 2 4 httpInval 40 ------- 40 2.6 4.6 -1 110
+ 40.050563 4 2 httpInval 40 ------- 40 4.6 2.6 -1 111
- 40.050563 4 2 httpInval 40 ------- 40 4.6 2.6 -1 111
+ 40.050563 4 2 httpInval 41 ------- 40 4.6 2.6 -1 112
- 40.050776 4 2 httpInval 41 ------- 40 4.6 2.6 -1 112
r 40.051217 12 1 httpInval 40 ------- 40 2.7 1.5 -1 106
+ 40.051217 1 12 httpInval 40 ------- 40 1.5 2.7 -1 113
- 40.051217 1 12 httpInval 40 ------- 40 1.5 2.7 -1 113
r 40.051222 12 2 httpInval 41 ------- 0 1.4 1073741824.0 -1 105
r 40.051222 12 3 httpInval 41 ------- 0 1.4 1073741824.0 -1 105
r 40.05222 1 12 httpInval 40 ------- 40 1.5 2.7 -1 113
+ 40.05222 12 2 httpInval 40 ------- 40 1.5 2.7 -1 113
- 40.05222 12 2 httpInval 40 ------- 40 1.5 2.7 -1 113
r 40.060776 4 2 httpInval 40 ------- 40 4.6 2.6 -1 111
r 40.060995 4 2 httpInval 41 ------- 40 4.6 2.6 -1 112
+ 40.1 2 4 httpInval 40 ------- 40 2.6 4.6 -1 114
- 40.1 2 4 httpInval 40 ------- 40 2.6 4.6 -1 114
r 40.102433 12 2 httpInval 40 ------- 40 1.5 2.7 -1 113
+ 40.102433 2 12 httpInval 40 ------- 40 2.7 1.5 -1 115
- 40.102433 2 12 httpInval 40 ------- 40 2.7 1.5 -1 115
+ 40.102433 2 12 httpInval 41 ------- 40 2.7 1.5 -1 116
- 40.102646 2 12 httpInval 41 ------- 40 2.7 1.5 -1 116
r 40.110213 2 4 httpInval 40 ------- 40 2.6 4.6 -1 114
r 40.152646 2 12 httpInval 40 ------- 40 2.7 1.5 -1 115
+ 40.152646 12 1 httpInval 40 ------- 40 2.7 1.5 -1 115
- 40.152646 12 1 httpInval 40 ------- 40 2.7 1.5 -1 115
r 40.152865 2 12 httpInval 41 ------- 40 2.7 1.5 -1 116
+ 40.152865 12 1 httpInval 41 ------- 40 2.7 1.5 -1 116
- 40.152865 12 1 httpInval 41 ------- 40 2.7 1.5 -1 116
r 40.15365 12 1 httpInval 40 ------- 40 2.7 1.5 -1 115
r 40.153868 12 1 httpInval 41 ------- 40 2.7 1.5 -1 116
+ 40.17818 0 4 httpInval 40 ------- 40 0.3 4.5 -1 117
- 40.17818 0 4 httpInval 40 ------- 40 0.3 4.5 -1 117
r 40.188212 0 4 httpInval 40 ------- 40 0.3 4.5 -1 117
+ 40.188212 4 0 httpInval 40 ------- 40 4.5 0.3 -1 118
- 40.188212 4 0 httpInval 40 ------- 40 4.5 0.3 -1 118
r 40.198244 4 0 httpInval 40 ------- 40 4.5 0.3 -1 118
+ 40.198244 0 4 httpInval 40 ------- 40 0.3 4.5 -1 119
- 40.198244 0 4 httpInval 40 ------- 40 0.3 4.5 -1 119
+ 40.198244 0 4 httpInval 72 ------- 40 0.3 4.5 -1 120
- 40.198276 0 4 httpInval 72 ------- 40 0.3 4.5 -1 120
+ 40.2 1 12 httpInval 40 ------- 40 1.5 2.7 -1 121
- 40.2 1 12 httpInval 40 ------- 40 1.5 2.7 -1 121
r 40.201003 1 12 httpInval 40 ------- 40 1.5 2.7 -1 121
+ 40.201003 12 2 httpInval 40 ------- 40 1.5 2.7 -1 121
- 40.201003 12 2 httpInval 40 ------- 40 1.5 2.7 -1 121
r 40.208276 0 4 httpInval 40 ------- 40 0.3 4.5 -1 119
r 40.208334 0 4 httpInval 72 ------- 40 0.3 4.5 -1 120
r 40.251217 12 2 httpInval 40 ------- 40 1.5 2.7 -1 121
+ 40.3 4 0 httpInval 40 ------- 40 4.5 0.3 -1 122
- 40.3 4 0 httpInval 40 ------- 40 4.5 0.3 -1 122
r 40.310032 4 0 httpInval 40 ------- 40 4.5 0.3 -1 122
+ 45.55294 9 5 tcp 83 ---A--- 1 9.1 5.1 44 123
- 45.55294 9 5 tcp 83 ---A--- 1 9.1 5.1 44 123
r 45.554006 9 5 tcp 83 ---A--- 1 9.1 5.1 44 123
+ 45.554006 5 9 ack 576 ---A--- 1 5.1 9.1 1025 124
- 45.554006 5 9 ack 576 ---A--- 1 5.1 9.1 1025 124
r 45.555467 5 9 ack 576 ---A--- 1 5.1 9.1 1025 124
+ 45.555467 9 5 tcp 40 ------- 1 9.1 5.1 87 125
- 45.555467 9 5 tcp 40 ------- 1 9.1 5.1 87 125
r 45.556499 9 5 tcp 40 ------- 1 9.1 5.1 87 125
+ 45.556499 5 9 ack 528 ------- 1 5.1 9.1 1561 126
- 45.556499 5 9 ack 528 ------- 1 5.1 9.1 1561 126
r 45.557922 5 9 ack 528 ------- 1 5.1 9.1 1561 126
+ 45.6 9 5 tcp 40 ------- 1 9.1 5.1 87 127
- 45.6 9 5 tcp 40 ------- 1 9.1 5.1 87 127
r 45.601032 9 5 tcp 40 ------- 1 9.1 5.1 87 127
+ 58.647966 8 4 tcp 83 ---A--- 0 8.1 4.1 87 128
- 58.647966 8 4 tcp 83 ---A--- 0 8.1 4.1 87 128
r 58.649032 8 4 tcp 83 ---A--- 0 8.1 4.1 87 128
+ 58.649032 4 0 ack 90 ---A--- 11 4.3 0.2 44 129
- 58.649032 4 0 ack 90 ---A--- 11 4.3 0.2 44 129
r 58.659104 4 0 ack 90 ---A--- 11 4.3 0.2 44 129
+ 58.659104 0 4 tcp 576 ---A--- 11 0.2 4.3 1035 130
- 58.659104 0 4 tcp 576 ---A--- 11 0.2 4.3 1035 130
r 58.669565 0 4 tcp 576 ---A--- 11 0.2 4.3 1035 130
+ 58.669565 4 0 ack 40 ------- 11 4.3 0.2 94 131
- 58.669565 4 0 ack 40 ------- 11 4.3 0.2 94 131
r 58.679597 4 0 ack 40 ------- 11 4.3 0.2 94 131
+ 58.679597 0 4 tcp 528 ------- 11 0.2 4.3 1571 132
- 58.679597 0 4 tcp 528 ------- 11 0.2 4.3 1571 132
r 58.69002 0 4 tcp 528 ------- 11 0.2 4.3 1571 132
+ 58.69002 4 8 ack 576 ---A--- 0 4.1 8.1 2049 133
- 58.69002 4 8 ack 576 ---A--- 0 4.1 8.1 2049 133
r 58.69148 4 8 ack 576 ---A--- 0 4.1 8.1 2049 133
+ 58.69148 8 4 tcp 40 ------- 0 8.1 4.1 130 134
- 58.69148 8 4 tcp 40 ------- 0 8.1 4.1 130 134
r 58.692512 8 4 tcp 40 ------- 0 8.1 4.1 130 134
+ 58.692512 4 8 ack 528 ------- 0 4.1 8.1 2585 135
- 58.692512 4 8 ack 528 ------- 0 4.1 8.1 2585 135
r 58.693935 4 8 ack 528 ------- 0 4.1 8.1 2585 135
+ 58.7 8 4 tcp 40 ------- 0 8.1 4.1 130 136
- 58.7 8 4 tcp 40 ------- 0 8.1 4.1 130 136
+ 58.7 4 0 ack 40 ------- 11 4.3 0.2 94 137
- 58.7 4 0 ack 40 ------- 11 4.3 0.2 94 137
r 58.701032 8 4 tcp 40 ------- 0 8.1 4.1 130 136
r 58.710032 4 0 ack 40 ------- 11 4.3 0.2 94 137
+ 66.41698 10 6 tcp 83 ---A--- 2 10.1 6.1 44 138
- 66.41698 10 6 tcp 83 ---A--- 2 10.1 6.1 44 138
r 66.418046 10 6 tcp 83 ---A--- 2 10.1 6.1 44 138
+ 66.418046 6 10 ack 576 ---A--- 2 6.1 10.1 1025 139
- 66.418046 6 10 ack 576 ---A--- 2 6.1 10.1 1025 139
r 66.419507 6 10 ack 576 ---A--- 2 6.1 10.1 1025 139
+ 66.419507 10 6 tcp 40 ------- 2 10.1 6.1 87 140
- 66.419507 10 6 tcp 40 ------- 2 10.1 6.1 87 140
r 66.420539 10 6 tcp 40 ------- 2 10.1 6.1 87 140
+ 66.420539 6 10 ack 528 ------- 2 6.1 10.1 1561 141
- 66.420539 6 10 ack 528 ------- 2 6.1 10.1 1561 141
r 66.421962 6 10 ack 528 ------- 2 6.1 10.1 1561 141
+ 66.5 10 6 tcp 40 ------- 2 10.1 6.1 87 142
- 66.5 10 6 tcp 40 ------- 2 10.1 6.1 87 142
r 66.501032 10 6 tcp 40 ------- 2 10.1 6.1 87 142
+ 67.4256 3 6 httpInval 41 ------- 0 3.5 1073741826.0 -1 143
- 67.4256 3 6 httpInval 41 ------- 0 3.5 1073741826.0 -1 143
+ 67.4256 3 7 httpInval 41 ------- 0 3.5 1073741826.0 -1 143
- 67.4256 3 7 httpInval 41 ------- 0 3.5 1073741826.0 -1 143
r 67.435819 3 6 httpInval 41 ------- 0 3.5 1073741826.0 -1 143
r 67.435819 3 7 httpInval 41 ------- 0 3.5 1073741826.0 -1 143
+ 70.306436 2 4 httpInval 41 ------- 0 2.5 1073741825.0 -1 144
- 70.306436 2 4 httpInval 41 ------- 0 2.5 1073741825.0 -1 144
+ 70.306436 2 5 httpInval 41 ------- 0 2.5 1073741825.0 -1 144
- 70.306436 2 5 httpInval 41 ------- 0 2.5 1073741825.0 -1 144
r 70.316655 2 4 httpInval 41 ------- 0 2.5 1073741825.0 -1 144
r 70.316655 2 5 httpInval 41 ------- 0 2.5 1073741825.0 -1 144
+ 70.774295 4 2 httpInval 72 ---A--- 40 4.6 2.6 -1 145
- 70.774295 4 2 httpInval 72 ---A--- 40 4.6 2.6 -1 145
r 70.784679 4 2 httpInval 72 ---A--- 40 4.6 2.6 -1 145
+ 70.8 2 4 httpInval 40 ------- 40 2.6 4.6 -1 146
- 70.8 2 4 httpInval 40 ------- 40 2.6 4.6 -1 146
r 70.810213 2 4 httpInval 40 ------- 40 2.6 4.6 -1 146
+ 71.518879 1 12 httpInval 41 ------- 0 1.4 1073741824.0 -1 147
- 71.518879 1 12 httpInval 41 ------- 0 1.4 1073741824.0 -1 147
r 71.519883 1 12 httpInval 41 ------- 0 1.4 1073741824.0 -1 147
+ 71.519883 12 2 httpInval 41 ------- 0 1.4 1073741824.0 -1 147
- 71.519883 12 2 httpInval 41 ------- 0 1.4 1073741824.0 -1 147
+ 71.519883 12 3 httpInval 41 ------- 0 1.4 1073741824.0 -1 147
- 71.519883 12 3 httpInval 41 ------- 0 1.4 1073741824.0 -1 147
r 71.570101 12 2 httpInval 41 ------- 0 1.4 1073741824.0 -1 147
r 71.570101 12 3 httpInval 41 ------- 0 1.4 1073741824.0 -1 147
+ 72.595831 0 4 httpInval 72 ---A--- 40 0.3 4.5 -1 148
- 72.595831 0 4 httpInval 72 ---A--- 40 0.3 4.5 -1 148
r 72.605889 0 4 httpInval 72 ---A--- 40 0.3 4.5 -1 148
+ 72.7 4 0 httpInval 40 ------- 40 4.5 0.3 -1 149
- 72.7 4 0 httpInval 40 ------- 40 4.5 0.3 -1 149
r 72.710032 4 0 httpInval 40 ------- 40 4.5 0.3 -1 149
v 72.897859159999996 eval {set sim_annotation {S 0 INV _o445:0}}
+ 92.283596 8 4 tcp 83 ---A--- 0 8.1 4.1 130 150
- 92.283596 8 4 tcp 83 ---A--- 0 8.1 4.1 130 150
r 92.284662 8 4 tcp 83 ---A--- 0 8.1 4.1 130 150
+ 92.284662 4 8 ack 576 ---A--- 0 4.1 8.1 3073 151
- 92.284662 4 8 ack 576 ---A--- 0 4.1 8.1 3073 151
r 92.286123 4 8 ack 576 ---A--- 0 4.1 8.1 3073 151
+ 92.286123 8 4 tcp 40 ------- 0 8.1 4.1 173 152
- 92.286123 8 4 tcp 40 ------- 0 8.1 4.1 173 152
r 92.287155 8 4 tcp 40 ------- 0 8.1 4.1 173 152
+ 92.287155 4 8 ack 528 ------- 0 4.1 8.1 3609 153
- 92.287155 4 8 ack 528 ------- 0 4.1 8.1 3609 153
r 92.288578 4 8 ack 528 ------- 0 4.1 8.1 3609 153
+ 92.3 8 4 tcp 40 ------- 0 8.1 4.1 173 154
- 92.3 8 4 tcp 40 ------- 0 8.1 4.1 173 154
r 92.301032 8 4 tcp 40 ------- 0 8.1 4.1 173 154
+ 99.851808 3 6 httpInval 41 ------- 0 3.5 1073741826.0 -1 155
- 99.851808 3 6 httpInval 41 ------- 0 3.5 1073741826.0 -1 155
+ 99.851808 3 7 httpInval 41 ------- 0 3.5 1073741826.0 -1 155
- 99.851808 3 7 httpInval 41 ------- 0 3.5 1073741826.0 -1 155
r 99.862027 3 6 httpInval 41 ------- 0 3.5 1073741826.0 -1 155
r 99.862027 3 7 httpInval 41 ------- 0 3.5 1073741826.0 -1 155
+ 101.272024 2 12 httpInval 73 ---A--- 40 2.7 1.5 -1 156
- 101.272024 2 12 httpInval 73 ---A--- 40 2.7 1.5 -1 156
+ 101.272024 2 4 httpInval 72 ------- 0 2.5 1073741825.0 -1 157
- 101.272024 2 4 httpInval 72 ------- 0 2.5 1073741825.0 -1 157
+ 101.272024 2 5 httpInval 72 ------- 0 2.5 1073741825.0 -1 157
- 101.272024 2 5 httpInval 72 ------- 0 2.5 1073741825.0 -1 157
r 101.282408 2 4 httpInval 72 ------- 0 2.5 1073741825.0 -1 157
r 101.282408 2 5 httpInval 72 ------- 0 2.5 1073741825.0 -1 157
r 101.322413 2 12 httpInval 73 ---A--- 40 2.7 1.5 -1 156