# TESTNAME: Mcast-PBP
# TOPOLOGY: BottleNeck
# avg-comp-page-age: 40000
# avg-page-age: 10
# avg-page-size: 1024
# avg-req-interval: 6
# client-req-size: 43
# comp-page-size: 51200
# duration: 200
# enable-log: 0
# hb-interval: 6
# max-page-age: 70
# max-page-size: 50000
# max-req-interval: 70
# min-page-age: 50
# min-page-size: 100
# min-req-interval: 50
# nam-trace-all: 1
# ns-random-seed: 188312339
# num-2nd-cache: 5
# num-comp-pages: 1
# prot: Mcast-PBP
# scheduler-type: Calendar
# single-page: 1
# ttl: 0.1
# upd-interval: 5
# xtrace-page: webtrace-pglog
# xtrace-req: webtrace-reqlog
v 10 eval {set sim_annotation {10 6 join-group 1073741824}}
v 10 eval {set sim_annotation {10 6 join-group 1073741825}}
v 10 eval {set sim_annotation {10 1 join-group 1073741824}}
v 10 eval {set sim_annotation {10 1 join-group 1073741825}}
v 10 eval {set sim_annotation {10 2 join-group 1073741824}}
v 10 eval {set sim_annotation {10 2 join-group 1073741825}}
v 10 eval {set sim_annotation {10 3 join-group 1073741824}}
v 10 eval {set sim_annotation {10 3 join-group 1073741825}}
v 10 eval {set sim_annotation {10 4 join-group 1073741824}}
v 10 eval {set sim_annotation {10 4 join-group 1073741825}}
v 10 eval {set sim_annotation {10 5 join-group 1073741824}}
v 10 eval {set sim_annotation {10 5 join-group 1073741825}}
v 10 eval {set sim_annotation {1073741824 switch tree type}}
v 10 eval {set sim_annotation {1073741825 switch tree type}}
+ 10 0 1 tcp 50 ------- 11 0.2 1.3 1 0
- 10 0 1 tcp 50 ------- 11 0.2 1.3 1 0
r 10.100267 0 1 tcp 50 ------- 11 0.2 1.3 1 0
+ 10.100267 1 12 tcp 50 ------- 1 1.2 6.1 1 1
- 10.100267 1 12 tcp 50 ------- 1 1.2 6.1 1 1
r 10.150533 1 12 tcp 50 ------- 1 1.2 6.1 1 1
+ 10.150533 12 6 tcp 50 ------- 1 1.2 6.1 1 1
- 10.150533 12 6 tcp 50 ------- 1 1.2 6.1 1 1
r 10.2008 12 6 tcp 50 ------- 1 1.2 6.1 1 1
+ 15.567982 0 1 httpInval 41 ------- 40 0.3 1.6 -1 2
- 15.567982 0 1 httpInval 41 ------- 40 0.3 1.6 -1 2
r 15.668201 0 1 httpInval 41 ------- 40 0.3 1.6 -1 2
+ 16 6 12 httpInval 41 ------- 0 6.7 1073741824.0 -1 3
- 16 6 12 httpInval 41 ------- 0 6.7 1073741824.0 -1 3
r 16.050219 6 12 httpInval 41 ------- 0 6.7 1073741824.0 -1 3
+ 16.050219 12 1 httpInval 41 ------- 0 6.7 1073741824.0 -1 3
- 16.050219 12 1 httpInval 41 ------- 0 6.7 1073741824.0 -1 3
+ 16.050219 12 2 httpInval 41 ------- 0 6.7 1073741824.0 -1 3
- 16.050219 12 2 httpInval 41 ------- 0 6.7 1073741824.0 -1 3
+ 16.050219 12 3 httpInval 41 ------- 0 6.7 1073741824.0 -1 3
- 16.050219 12 3 httpInval 41 ------- 0 6.7 1073741824.0 -1 3
+ 16.050219 12 4 httpInval 41 ------- 0 6.7 1073741824.0 -1 3
- 16.050219 12 4 httpInval 41 ------- 0 6.7 1073741824.0 -1 3
+ 16.050219 12 5 httpInval 41 ------- 0 6.7 1073741824.0 -1 3
- 16.050219 12 5 httpInval 41 ------- 0 6.7 1073741824.0 -1 3
+ 16.100267 1 12 httpInval 41 ------- 40 1.7 6.9 -1 4
- 16.100267 1 12 httpInval 41 ------- 40 1.7 6.9 -1 4
r 16.100437 12 1 httpInval 41 ------- 0 6.7 1073741824.0 -1 3
r 16.100437 12 2 httpInval 41 ------- 0 6.7 1073741824.0 -1 3
r 16.100437 12 3 httpInval 41 ------- 0 6.7 1073741824.0 -1 3
r 16.100437 12 4 httpInval 41 ------- 0 6.7 1073741824.0 -1 3
r 16.100437 12 5 httpInval 41 ------- 0 6.7 1073741824.0 -1 3
r 16.150485 1 12 httpInval 41 ------- 40 1.7 6.9 -1 4
+ 16.150485 12 6 httpInval 41 ------- 40 1.7 6.9 -1 4
- 16.150485 12 6 httpInval 41 ------- 40 1.7 6.9 -1 4
r 16.200704 12 6 httpInval 41 ------- 40 1.7 6.9 -1 4
+ 20 7 1 tcp 83 ------- 0 7.1 1.1 1 5
- 20 7 1 tcp 83 ------- 0 7.1 1.1 1 5
+ 20 8 2 tcp 83 ------- 2 8.1 2.1 1 6
- 20 8 2 tcp 83 ------- 2 8.1 2.1 1 6
+ 20 9 3 tcp 83 ------- 4 9.1 3.1 1 7
- 20 9 3 tcp 83 ------- 4 9.1 3.1 1 7
+ 20 10 4 tcp 83 ------- 6 10.1 4.1 1 8
- 20 10 4 tcp 83 ------- 6 10.1 4.1 1 8
+ 20 11 5 tcp 83 ------- 8 11.1 5.1 1 9
- 20 11 5 tcp 83 ------- 8 11.1 5.1 1 9
r 20.002066 7 1 tcp 83 ------- 0 7.1 1.1 1 5
+ 20.002066 1 0 tcp 83 ------- 11 1.3 0.2 1 10
- 20.002066 1 0 tcp 83 ------- 11 1.3 0.2 1 10
r 20.002066 8 2 tcp 83 ------- 2 8.1 2.1 1 6
+ 20.002066 2 12 tcp 83 ------- 3 2.2 6.2 1 11
- 20.002066 2 12 tcp 83 ------- 3 2.2 6.2 1 11
r 20.002066 9 3 tcp 83 ------- 4 9.1 3.1 1 7
+ 20.002066 3 12 tcp 83 ------- 5 3.2 6.3 1 12
- 20.002066 3 12 tcp 83 ------- 5 3.2 6.3 1 12
r 20.002066 10 4 tcp 83 ------- 6 10.1 4.1 1 8
+ 20.002066 4 12 tcp 83 ------- 7 4.2 6.4 1 13
- 20.002066 4 12 tcp 83 ------- 7 4.2 6.4 1 13
r 20.002066 11 5 tcp 83 ------- 8 11.1 5.1 1 9
+ 20.002066 5 12 tcp 83 ------- 9 5.2 6.5 1 14
- 20.002066 5 12 tcp 83 ------- 9 5.2 6.5 1 14
r 20.052509 2 12 tcp 83 ------- 3 2.2 6.2 1 11
+ 20.052509 12 6 tcp 83 ------- 3 2.2 6.2 1 11
- 20.052509 12 6 tcp 83 ------- 3 2.2 6.2 1 11
r 20.052509 3 12 tcp 83 ------- 5 3.2 6.3 1 12
+ 20.052509 12 6 tcp 83 ------- 5 3.2 6.3 1 12
r 20.052509 4 12 tcp 83 ------- 7 4.2 6.4 1 13
+ 20.052509 12 6 tcp 83 ------- 7 4.2 6.4 1 13
r 20.052509 5 12 tcp 83 ------- 9 5.2 6.5 1 14
+ 20.052509 12 6 tcp 83 ------- 9 5.2 6.5 1 14
- 20.052952 12 6 tcp 83 ------- 5 3.2 6.3 1 12
- 20.053394 12 6 tcp 83 ------- 7 4.2 6.4 1 13
- 20.053837 12 6 tcp 83 ------- 9 5.2 6.5 1 14
r 20.102509 1 0 tcp 83 ------- 11 1.3 0.2 1 10
+ 20.102509 0 1 tcp 1064 ------- 11 0.2 1.3 2 15
- 20.102509 0 1 tcp 1064 ------- 11 0.2 1.3 2 15
r 20.102952 12 6 tcp 83 ------- 3 2.2 6.2 1 11
+ 20.102952 6 12 tcp 83 ------- 1 6.1 1.2 1 16
- 20.102952 6 12 tcp 83 ------- 1 6.1 1.2 1 16
r 20.103394 12 6 tcp 83 ------- 5 3.2 6.3 1 12
r 20.103837 12 6 tcp 83 ------- 7 4.2 6.4 1 13
r 20.10428 12 6 tcp 83 ------- 9 5.2 6.5 1 14
r 20.153394 6 12 tcp 83 ------- 1 6.1 1.2 1 16
+ 20.153394 12 1 tcp 83 ------- 1 6.1 1.2 1 16
- 20.153394 12 1 tcp 83 ------- 1 6.1 1.2 1 16
r 20.203837 12 1 tcp 83 ------- 1 6.1 1.2 1 16
r 20.208184 0 1 tcp 1064 ------- 11 0.2 1.3 2 15
+ 20.208184 1 7 tcp 1064 ------- 0 1.1 7.1 1 17
- 20.208184 1 7 tcp 1064 ------- 0 1.1 7.1 1 17
+ 20.208184 1 12 tcp 1064 ------- 1 1.2 6.1 2 18
- 20.208184 1 12 tcp 1064 ------- 1 1.2 6.1 2 18
r 20.211035 1 7 tcp 1064 ------- 0 1.1 7.1 1 17
r 20.263858 1 12 tcp 1064 ------- 1 1.2 6.1 2 18
+ 20.263858 12 6 tcp 1064 ------- 1 1.2 6.1 2 18
- 20.263858 12 6 tcp 1064 ------- 1 1.2 6.1 2 18
r 20.319533 12 6 tcp 1064 ------- 1 1.2 6.1 2 18
+ 20.319533 6 12 tcp 1064 ------- 3 6.2 2.2 1 19
- 20.319533 6 12 tcp 1064 ------- 3 6.2 2.2 1 19
+ 20.319533 6 12 tcp 1064 ------- 5 6.3 3.2 1 20
+ 20.319533 6 12 tcp 1064 ------- 7 6.4 4.2 1 21
+ 20.319533 6 12 tcp 1064 ------- 9 6.5 5.2 1 22
- 20.325208 6 12 tcp 1064 ------- 5 6.3 3.2 1 20
- 20.330882 6 12 tcp 1064 ------- 7 6.4 4.2 1 21
- 20.336557 6 12 tcp 1064 ------- 9 6.5 5.2 1 22
r 20.375208 6 12 tcp 1064 ------- 3 6.2 2.2 1 19
+ 20.375208 12 2 tcp 1064 ------- 3 6.2 2.2 1 19
- 20.375208 12 2 tcp 1064 ------- 3 6.2 2.2 1 19
r 20.380882 6 12 tcp 1064 ------- 5 6.3 3.2 1 20
+ 20.380882 12 3 tcp 1064 ------- 5 6.3 3.2 1 20
- 20.380882 12 3 tcp 1064 ------- 5 6.3 3.2 1 20
r 20.386557 6 12 tcp 1064 ------- 7 6.4 4.2 1 21
+ 20.386557 12 4 tcp 1064 ------- 7 6.4 4.2 1 21
- 20.386557 12 4 tcp 1064 ------- 7 6.4 4.2 1 21
r 20.392232 6 12 tcp 1064 ------- 9 6.5 5.2 1 22
+ 20.392232 12 5 tcp 1064 ------- 9 6.5 5.2 1 22
- 20.392232 12 5 tcp 1064 ------- 9 6.5 5.2 1 22
r 20.430882 12 2 tcp 1064 ------- 3 6.2 2.2 1 19
+ 20.430882 2 8 tcp 1064 ------- 2 2.1 8.1 1 23
- 20.430882 2 8 tcp 1064 ------- 2 2.1 8.1 1 23
r 20.433734 2 8 tcp 1064 ------- 2 2.1 8.1 1 23
r 20.436557 12 3 tcp 1064 ------- 5 6.3 3.2 1 20
+ 20.436557 3 9 tcp 1064 ------- 4 3.1 9.1 1 24
- 20.436557 3 9 tcp 1064 ------- 4 3.1 9.1 1 24
r 20.439408 3 9 tcp 1064 ------- 4 3.1 9.1 1 24
r 20.442232 12 4 tcp 1064 ------- 7 6.4 4.2 1 21
+ 20.442232 4 10 tcp 1064 ------- 6 4.1 10.1 1 25
- 20.442232 4 10 tcp 1064 ------- 6 4.1 10.1 1 25
r 20.445083 4 10 tcp 1064 ------- 6 4.1 10.1 1 25
r 20.447906 12 5 tcp 1064 ------- 9 6.5 5.2 1 22
+ 20.447906 5 11 tcp 1064 ------- 8 5.1 11.1 1 26
- 20.447906 5 11 tcp 1064 ------- 8 5.1 11.1 1 26
r 20.450758 5 11 tcp 1064 ------- 8 5.1 11.1 1 26
v 20.588293419999999 eval {set sim_annotation {S 0 INV _o434:0}}
+ 21.894801 6 12 httpInval 41 ------- 0 6.7 1073741824.0 -1 27
- 21.894801 6 12 httpInval 41 ------- 0 6.7 1073741824.0 -1 27
r 21.945019 6 12 httpInval 41 ------- 0 6.7 1073741824.0 -1 27
+ 21.945019 12 1 httpInval 41 ------- 0 6.7 1073741824.0 -1 27
- 21.945019 12 1 httpInval 41 ------- 0 6.7 1073741824.0 -1 27
+ 21.945019 12 2 httpInval 41 ------- 0 6.7 1073741824.0 -1 27
- 21.945019 12 2 httpInval 41 ------- 0 6.7 1073741824.0 -1 27
+ 21.945019 12 3 httpInval 41 ------- 0 6.7 1073741824.0 -1 27
- 21.945019 12 3 httpInval 41 ------- 0 6.7 1073741824.0 -1 27
+ 21.945019 12 4 httpInval 41 ------- 0 6.7 1073741824.0 -1 27
- 21.945019 12 4 httpInval 41 ------- 0 6.7 1073741824.0 -1 27
+ 21.945019 12 5 httpInval 41 ------- 0 6.7 1073741824.0 -1 27
- 21.945019 12 5 httpInval 41 ------- 0 6.7 1073741824.0 -1 27
+ 21.978358 1 12 httpInval 41 ------- 40 1.7 6.9 -1 28
- 21.978358 1 12 httpInval 41 ------- 40 1.7 6.9 -1 28
r 21.995238 12 1 httpInval 41 ------- 0 6.7 1073741824.0 -1 27
r 21.995238 12 2 httpInval 41 ------- 0 6.7 1073741824.0 -1 27
r 21.995238 12 3 httpInval 41 ------- 0 6.7 1073741824.0 -1 27
r 21.995238 12 4 httpInval 41 ------- 0 6.7 1073741824.0 -1 27
r 21.995238 12 5 httpInval 41 ------- 0 6.7 1073741824.0 -1 27
r 22.028577 1 12 httpInval 41 ------- 40 1.7 6.9 -1 28
+ 22.028577 12 6 httpInval 41 ------- 40 1.7 6.9 -1 28
- 22.028577 12 6 httpInval 41 ------- 40 1.7 6.9 -1 28
+ 22.056866 0 1 httpInval 72 ------- 40 0.3 1.6 -1 29
- 22.056866 0 1 httpInval 72 ------- 40 0.3 1.6 -1 29
r 22.078795 12 6 httpInval 41 ------- 40 1.7 6.9 -1 28
r 22.15725 0 1 httpInval 72 ------- 40 0.3 1.6 -1 29
v 23.01378369 eval {set sim_annotation {S 0 INV _o434:0}}
+ 27.591815 1 12 httpInval 72 ------- 40 1.7 6.9 -1 30
- 27.591815 1 12 httpInval 72 ------- 40 1.7 6.9 -1 30
r 27.642199 1 12 httpInval 72 ------- 40 1.7 6.9 -1 30
+ 27.642199 12 6 httpInval 72 ------- 40 1.7 6.9 -1 30
- 27.642199 12 6 httpInval 72 ------- 40 1.7 6.9 -1 30
r 27.692583 12 6 httpInval 72 ------- 40 1.7 6.9 -1 30
+ 27.800653 6 12 httpInval 72 ------- 0 6.7 1073741824.0 -1 31
- 27.800653 6 12 httpInval 72 ------- 0 6.7 1073741824.0 -1 31
r 27.851037 6 12 httpInval 72 ------- 0 6.7 1073741824.0 -1 31
+ 27.851037 12 1 httpInval 72 ------- 0 6.7 1073741824.0 -1 31
- 27.851037 12 1 httpInval 72 ------- 0 6.7 1073741824.0 -1 31
+ 27.851037 12 2 httpInval 72 ------- 0 6.7 1073741824.0 -1 31
- 27.851037 12 2 httpInval 72 ------- 0 6.7 1073741824.0 -1 31
+ 27.851037 12 3 httpInval 72 ------- 0 6.7 1073741824.0 -1 31
- 27.851037 12 3 httpInval 72 ------- 0 6.7 1073741824.0 -1 31
+ 27.851037 12 4 httpInval 72 ------- 0 6.7 1073741824.0 -1 31
- 27.851037 12 4 httpInval 72 ------- 0 6.7 1073741824.0 -1 31
+ 27.851037 12 5 httpInval 72 ------- 0 6.7 1073741824.0 -1 31
- 27.851037 12 5 httpInval 72 ------- 0 6.7 1073741824.0 -1 31
r 27.901421 12 1 httpInval 72 ------- 0 6.7 1073741824.0 -1 31
r 27.901421 12 2 httpInval 72 ------- 0 6.7 1073741824.0 -1 31
r 27.901421 12 3 httpInval 72 ------- 0 6.7 1073741824.0 -1 31
r 27.901421 12 4 httpInval 72 ------- 0 6.7 1073741824.0 -1 31
r 27.901421 12 5 httpInval 72 ------- 0 6.7 1073741824.0 -1 31
+ 28.238184 0 1 httpInval 72 ------- 40 0.3 1.6 -1 32
- 28.238184 0 1 httpInval 72 ------- 40 0.3 1.6 -1 32
r 28.338568 0 1 httpInval 72 ------- 40 0.3 1.6 -1 32
v 28.916614129999999 eval {set sim_annotation {S 0 INV _o434:0}}
+ 31.291471 7 1 tcp 83 ------- 0 7.1 1.1 2 33
- 31.291471 7 1 tcp 83 ------- 0 7.1 1.1 2 33
r 31.293537 7 1 tcp 83 ------- 0 7.1 1.1 2 33
+ 31.293537 1 0 tcp 90 ------- 11 1.3 0.2 2 34
- 31.293537 1 0 tcp 90 ------- 11 1.3 0.2 2 34
r 31.394017 1 0 tcp 90 ------- 11 1.3 0.2 2 34
+ 31.394017 0 1 tcp 1064 ------- 11 0.2 1.3 3 35
- 31.394017 0 1 tcp 1064 ------- 11 0.2 1.3 3 35
r 31.499692 0 1 tcp 1064 ------- 11 0.2 1.3 3 35
+ 31.499692 1 7 tcp 1064 ------- 0 1.1 7.1 2 36
- 31.499692 1 7 tcp 1064 ------- 0 1.1 7.1 2 36
r 31.502543 1 7 tcp 1064 ------- 0 1.1 7.1 2 36
+ 32.455294 8 2 tcp 83 ------- 2 8.1 2.1 2 37
- 32.455294 8 2 tcp 83 ------- 2 8.1 2.1 2 37
r 32.45736 8 2 tcp 83 ------- 2 8.1 2.1 2 37
+ 32.45736 2 12 tcp 90 ------- 3 2.2 6.2 2 38
- 32.45736 2 12 tcp 90 ------- 3 2.2 6.2 2 38
r 32.50784 2 12 tcp 90 ------- 3 2.2 6.2 2 38
+ 32.50784 12 6 tcp 90 ------- 3 2.2 6.2 2 38
- 32.50784 12 6 tcp 90 ------- 3 2.2 6.2 2 38
r 32.55832 12 6 tcp 90 ------- 3 2.2 6.2 2 38
+ 32.55832 6 12 tcp 90 ------- 1 6.1 1.2 2 39
- 32.55832 6 12 tcp 90 ------- 1 6.1 1.2 2 39
r 32.6088 6 12 tcp 90 ------- 1 6.1 1.2 2 39
+ 32.6088 12 1 tcp 90 ------- 1 6.1 1.2 2 39
- 32.6088 12 1 tcp 90 ------- 1 6.1 1.2 2 39
r 32.65928 12 1 tcp 90 ------- 1 6.1 1.2 2 39
+ 32.65928 1 12 tcp 1064 ------- 1 1.2 6.1 3 40
- 32.65928 1 12 tcp 1064 ------- 1 1.2 6.1 3 40
r 32.714955 1 12 tcp 1064 ------- 1 1.2 6.1 3 40
+ 32.714955 12 6 tcp 1064 ------- 1 1.2 6.1 3 40
- 32.714955 12 6 tcp 1064 ------- 1 1.2 6.1 3 40
r 32.77063 12 6 tcp 1064 ------- 1 1.2 6.1 3 40
+ 32.77063 6 12 tcp 1064 ------- 3 6.2 2.2 2 41
- 32.77063 6 12 tcp 1064 ------- 3 6.2 2.2 2 41
r 32.826304 6 12 tcp 1064 ------- 3 6.2 2.2 2 41
+ 32.826304 12 2 tcp 1064 ------- 3 6.2 2.2 2 41
- 32.826304 12 2 tcp 1064 ------- 3 6.2 2.2 2 41
r 32.881979 12 2 tcp 1064 ------- 3 6.2 2.2 2 41
+ 32.881979 2 8 tcp 1064 ------- 2 2.1 8.1 2 42
- 32.881979 2 8 tcp 1064 ------- 2 2.1 8.1 2 42
r 32.88483 2 8 tcp 1064 ------- 2 2.1 8.1 2 42
+ 33.466927 1 12 httpInval 72 ------- 40 1.7 6.9 -1 43
- 33.466927 1 12 httpInval 72 ------- 40 1.7 6.9 -1 43
+ 33.473326 11 5 tcp 83 ------- 8 11.1 5.1 2 44
- 33.473326 11 5 tcp 83 ------- 8 11.1 5.1 2 44
r 33.475392 11 5 tcp 83 ------- 8 11.1 5.1 2 44
+ 33.475392 5 12 tcp 90 ------- 9 5.2 6.5 2 45
- 33.475392 5 12 tcp 90 ------- 9 5.2 6.5 2 45
+ 33.5122 6 12 httpInval 72 ------- 0 6.7 1073741824.0 -1 46
- 33.5122 6 12 httpInval 72 ------- 0 6.7 1073741824.0 -1 46
r 33.517311 1 12 httpInval 72 ------- 40 1.7 6.9 -1 43
+ 33.517311 12 6 httpInval 72 ------- 40 1.7 6.9 -1 43
- 33.517311 12 6 httpInval 72 ------- 40 1.7 6.9 -1 43
r 33.525872 5 12 tcp 90 ------- 9 5.2 6.5 2 45
+ 33.525872 12 6 tcp 90 ------- 9 5.2 6.5 2 45
- 33.525872 12 6 tcp 90 ------- 9 5.2 6.5 2 45
r 33.562584 6 12 httpInval 72 ------- 0 6.7 1073741824.0 -1 46
+ 33.562584 12 1 httpInval 72 ------- 0 6.7 1073741824.0 -1 46
- 33.562584 12 1 httpInval 72 ------- 0 6.7 1073741824.0 -1 46
+ 33.562584 12 2 httpInval 72 ------- 0 6.7 1073741824.0 -1 46
- 33.562584 12 2 httpInval 72 ------- 0 6.7 1073741824.0 -1 46
+ 33.562584 12 3 httpInval 72 ------- 0 6.7 1073741824.0 -1 46
- 33.562584 12 3 httpInval 72 ------- 0 6.7 1073741824.0 -1 46
+ 33.562584 12 4 httpInval 72 ------- 0 6.7 1073741824.0 -1 46
- 33.562584 12 4 httpInval 72 ------- 0 6.7 1073741824.0 -1 46
+ 33.562584 12 5 httpInval 72 ------- 0 6.7 1073741824.0 -1 46
- 33.562584 12 5 httpInval 72 ------- 0 6.7 1073741824.0 -1 46
r 33.567695 12 6 httpInval 72 ------- 40 1.7 6.9 -1 43
r 33.576352 12 6 tcp 90 ------- 9 5.2 6.5 2 45
+ 33.576352 6 12 tcp 1064 ------- 9 6.5 5.2 2 47
- 33.576352 6 12 tcp 1064 ------- 9 6.5 5.2 2 47
r 33.612968 12 1 httpInval 72 ------- 0 6.7 1073741824.0 -1 46
r 33.612968 12 2 httpInval 72 ------- 0 6.7 1073741824.0 -1 46
r 33.612968 12 3 httpInval 72 ------- 0 6.7 1073741824.0 -1 46
r 33.612968 12 4 httpInval 72 ------- 0 6.7 1073741824.0 -1 46
r 33.612968 12 5 httpInval 72 ------- 0 6.7 1073741824.0 -1 46
r 33.632027 6 12 tcp 1064 ------- 9 6.5 5.2 2 47
+ 33.632027 12 5 tcp 1064 ------- 9 6.5 5.2 2 47
- 33.632027 12 5 tcp 1064 ------- 9 6.5 5.2 2 47
r 33.687702 12 5 tcp 1064 ------- 9 6.5 5.2 2 47
+ 33.687702 5 11 tcp 1064 ------- 8 5.1 11.1 2 48
- 33.687702 5 11 tcp 1064 ------- 8 5.1 11.1 2 48
r 33.690553 5 11 tcp 1064 ------- 8 5.1 11.1 2 48
+ 34.49967 0 1 httpInval 72 ------- 40 0.3 1.6 -1 49
- 34.49967 0 1 httpInval 72 ------- 40 0.3 1.6 -1 49
+ 34.541698 9 3 tcp 83 ------- 4 9.1 3.1 2 50
- 34.541698 9 3 tcp 83 ------- 4 9.1 3.1 2 50
r 34.543764 9 3 tcp 83 ------- 4 9.1 3.1 2 50
+ 34.543764 3 12 tcp 90 ------- 5 3.2 6.3 2 51
- 34.543764 3 12 tcp 90 ------- 5 3.2 6.3 2 51
r 34.594244 3 12 tcp 90 ------- 5 3.2 6.3 2 51
+ 34.594244 12 6 tcp 90 ------- 5 3.2 6.3 2 51
- 34.594244 12 6 tcp 90 ------- 5 3.2 6.3 2 51
r 34.600054 0 1 httpInval 72 ------- 40 0.3 1.6 -1 49
r 34.644724 12 6 tcp 90 ------- 5 3.2 6.3 2 51
+ 34.644724 6 12 tcp 1064 ------- 5 6.3 3.2 2 52
- 34.644724 6 12 tcp 1064 ------- 5 6.3 3.2 2 52
r 34.700399 6 12 tcp 1064 ------- 5 6.3 3.2 2 52
+ 34.700399 12 3 tcp 1064 ------- 5 6.3 3.2 2 52
- 34.700399 12 3 tcp 1064 ------- 5 6.3 3.2 2 52
r 34.756074 12 3 tcp 1064 ------- 5 6.3 3.2 2 52
+ 34.756074 3 9 tcp 1064 ------- 4 3.1 9.1 2 53
- 34.756074 3 9 tcp 1064 ------- 4 3.1 9.1 2 53
r 34.758925 3 9 tcp 1064 ------- 4 3.1 9.1 2 53
+ 35.818857 8 2 tcp 83 ------- 2 8.1 2.1 3 54
- 35.818857 8 2 tcp 83 ------- 2 8.1 2.1 3 54
r 35.820923 8 2 tcp 83 ------- 2 8.1 2.1 3 54
+ 35.820923 2 8 tcp 1064 ------- 2 2.1 8.1 3 55
- 35.820923 2 8 tcp 1064 ------- 2 2.1 8.1 3 55
r 35.823775 2 8 tcp 1064 ------- 2 2.1 8.1 3 55
+ 38.944458 6 12 httpInval 72 ------- 0 6.7 1073741824.0 -1 56
- 38.944458 6 12 httpInval 72 ------- 0 6.7 1073741824.0 -1 56
r 38.994842 6 12 httpInval 72 ------- 0 6.7 1073741824.0 -1 56
+ 38.994842 12 1 httpInval 72 ------- 0 6.7 1073741824.0 -1 56
- 38.994842 12 1 httpInval 72 ------- 0 6.7 1073741824.0 -1 56
+ 38.994842 12 2 httpInval 72 ------- 0 6.7 1073741824.0 -1 56
- 38.994842 12 2 httpInval 72 ------- 0 6.7 1073741824.0 -1 56
+ 38.994842 12 3 httpInval 72 ------- 0 6.7 1073741824.0 -1 56
- 38.994842 12 3 httpInval 72 ------- 0 6.7 1073741824.0 -1 56
+ 38.994842 12 4 httpInval 72 ------- 0 6.7 1073741824.0 -1 56
- 38.994842 12 4 httpInval 72 ------- 0 6.7 1073741824.0 -1 56
+ 38.994842 12 5 httpInval 72 ------- 0 6.7 1073741824.0 -1 56
- 38.994842 12 5 httpInval 72 ------- 0 6.7 1073741824.0 -1 56
r 39.045226 12 1 httpInval 72 ------- 0 6.7 1073741824.0 -1 56
r 39.045226 12 2 httpInval 72 ------- 0 6.7 1073741824.0 -1 56
r 39.045226 12 3 httpInval 72 ------- 0 6.7 1073741824.0 -1 56
r 39.045226 12 4 httpInval 72 ------- 0 6.7 1073741824.0 -1 56
r 39.045226 12 5 httpInval 72 ------- 0 6.7 1073741824.0 -1 56
+ 39.594716 8 2 tcp 83 ------- 2 8.1 2.1 4 57
- 39.594716 8 2 tcp 83 ------- 2 8.1 2.1 4 57
r 39.596782 8 2 tcp 83 ------- 2 8.1 2.1 4 57
+ 39.596782 2 8 tcp 1064 ------- 2 2.1 8.1 4 58
- 39.596782 2 8 tcp 1064 ------- 2 2.1 8.1 4 58
r 39.599634 2 8 tcp 1064 ------- 2 2.1 8.1 4 58
+ 39.878945 1 12 httpInval 72 ------- 40 1.7 6.9 -1 59
- 39.878945 1 12 httpInval 72 ------- 40 1.7 6.9 -1 59
r 39.929329 1 12 httpInval 72 ------- 40 1.7 6.9 -1 59
+ 39.929329 12 6 httpInval 72 ------- 40 1.7 6.9 -1 59
- 39.929329 12 6 httpInval 72 ------- 40 1.7 6.9 -1 59
r 39.979713 12 6 httpInval 72 ------- 40 1.7 6.9 -1 59
+ 40.021472 0 1 httpInval 72 ------- 40 0.3 1.6 -1 60
- 40.021472 0 1 httpInval 72 ------- 40 0.3 1.6 -1 60
r 40.121856 0 1 httpInval 72 ------- 40 0.3 1.6 -1 60
+ 42.039988 8 2 tcp 83 ------- 2 8.1 2.1 5 61
- 42.039988 8 2 tcp 83 ------- 2 8.1 2.1 5 61
r 42.042054 8 2 tcp 83 ------- 2 8.1 2.1 5 61
+ 42.042054 2 8 tcp 1064 ------- 2 2.1 8.1 5 62
- 42.042054 2 8 tcp 1064 ------- 2 2.1 8.1 5 62
r 42.044906 2 8 tcp 1064 ------- 2 2.1 8.1 5 62
+ 42.246471 7 1 tcp 83 ------- 0 7.1 1.1 3 63
- 42.246471 7 1 tcp 83 ------- 0 7.1 1.1 3 63
r 42.248537 7 1 tcp 83 ------- 0 7.1 1.1 3 63
+ 42.248537 1 7 tcp 1064 ------- 0 1.1 7.1 3 64
- 42.248537 1 7 tcp 1064 ------- 0 1.1 7.1 3 64
r 42.251388 1 7 tcp 1064 ------- 0 1.1 7.1 3 64
+ 42.952626 9 3 tcp 83 ------- 4 9.1 3.1 3 65
- 42.952626 9 3 tcp 83 ------- 4 9.1 3.1 3 65
r 42.954692 9 3 tcp 83 ------- 4 9.1 3.1 3 65
+ 42.954692 3 9 tcp 1064 ------- 4 3.1 9.1 3 66
- 42.954692 3 9 tcp 1064 ------- 4 3.1 9.1 3 66
r 42.957544 3 9 tcp 1064 ------- 4 3.1 9.1 3 66
+ 44.425318 9 3 tcp 83 ------- 4 9.1 3.1 4 67
- 44.425318 9 3 tcp 83 ------- 4 9.1 3.1 4 67
r 44.427384 9 3 tcp 83 ------- 4 9.1 3.1 4 67
+ 44.427384 3 9 tcp 1064 ------- 4 3.1 9.1 4 68
- 44.427384 3 9 tcp 1064 ------- 4 3.1 9.1 4 68
r 44.430236 3 9 tcp 1064 ------- 4 3.1 9.1 4 68
+ 45.382796 6 12 httpInval 72 ------- 0 6.7 1073741824.0 -1 69
- 45.382796 6 12 httpInval 72 ------- 0 6.7 1073741824.0 -1 69
r 45.43318 6 12 httpInval 72 ------- 0 6.7 1073741824.0 -1 69
+ 45.43318 12 1 httpInval 72 ------- 0 6.7 1073741824.0 -1 69
- 45.43318 12 1 httpInval 72 ------- 0 6.7 1073741824.0 -1 69
+ 45.43318 12 2 httpInval 72 ------- 0 6.7 1073741824.0 -1 69
- 45.43318 12 2 httpInval 72 ------- 0 6.7 1073741824.0 -1 69
+ 45.43318 12 3 httpInval 72 ------- 0 6.7 1073741824.0 -1 69
- 45.43318 12 3 httpInval 72 ------- 0 6.7 1073741824.0 -1 69
+ 45.43318 12 4 httpInval 72 ------- 0 6.7 1073741824.0 -1 69
- 45.43318 12 4 httpInval 72 ------- 0 6.7 1073741824.0 -1 69
+ 45.43318 12 5 httpInval 72 ------- 0 6.7 1073741824.0 -1 69
- 45.43318 12 5 httpInval 72 ------- 0 6.7 1073741824.0 -1 69
r 45.483564 12 1 httpInval 72 ------- 0 6.7 1073741824.0 -1 69
r 45.483564 12 2 httpInval 72 ------- 0 6.7 1073741824.0 -1 69
r 45.483564 12 3 httpInval 72 ------- 0 6.7 1073741824.0 -1 69
r 45.483564 12 4 httpInval 72 ------- 0 6.7 1073741824.0 -1 69
r 45.483564 12 5 httpInval 72 ------- 0 6.7 1073741824.0 -1 69
+ 45.499258 1 12 httpInval 72 ------- 40 1.7 6.9 -1 70
- 45.499258 1 12 httpInval 72 ------- 40 1.7 6.9 -1 70
r 45.549642 1 12 httpInval 72 ------- 40 1.7 6.9 -1 70
+ 45.549642 12 6 httpInval 72 ------- 40 1.7 6.9 -1 70
- 45.549642 12 6 httpInval 72 ------- 40 1.7 6.9 -1 70
r 45.600026 12 6 httpInval 72 ------- 40 1.7 6.9 -1 70
+ 45.682104 0 1 httpInval 72 ------- 40 0.3 1.6 -1 71
- 45.682104 0 1 httpInval 72 ------- 40 0.3 1.6 -1 71
r 45.782488 0 1 httpInval 72 ------- 40 0.3 1.6 -1 71
+ 46.318036 9 3 tcp 83 ------- 4 9.1 3.1 5 72
- 46.318036 9 3 tcp 83 ------- 4 9.1 3.1 5 72
r 46.320102 9 3 tcp 83 ------- 4 9.1 3.1 5 72
+ 46.320102 3 9 tcp 1064 ------- 4 3.1 9.1 5 73
- 46.320102 3 9 tcp 1064 ------- 4 3.1 9.1 5 73
r 46.322954 3 9 tcp 1064 ------- 4 3.1 9.1 5 73
+ 47.470562 9 3 tcp 83 ------- 4 9.1 3.1 6 74
- 47.470562 9 3 tcp 83 ------- 4 9.1 3.1 6 74
r 47.472628 9 3 tcp 83 ------- 4 9.1 3.1 6 74
+ 47.472628 3 9 tcp 1064 ------- 4 3.1 9.1 6 75
- 47.472628 3 9 tcp 1064 ------- 4 3.1 9.1 6 75
r 47.47548 3 9 tcp 1064 ------- 4 3.1 9.1 6 75
+ 47.684901 8 2 tcp 83 ------- 2 8.1 2.1 6 76
- 47.684901 8 2 tcp 83 ------- 2 8.1 2.1 6 76
r 47.686967 8 2 tcp 83 ------- 2 8.1 2.1 6 76
+ 47.686967 2 8 tcp 1064 ------- 2 2.1 8.1 6 77
- 47.686967 2 8 tcp 1064 ------- 2 2.1 8.1 6 77
r 47.689819 2 8 tcp 1064 ------- 2 2.1 8.1 6 77
+ 48.837533 9 3 tcp 83 ------- 4 9.1 3.1 7 78
- 48.837533 9 3 tcp 83 ------- 4 9.1 3.1 7 78
r 48.839599 9 3 tcp 83 ------- 4 9.1 3.1 7 78
+ 48.839599 3 9 tcp 1064 ------- 4 3.1 9.1 7 79
- 48.839599 3 9 tcp 1064 ------- 4 3.1 9.1 7 79
r 48.842451 3 9 tcp 1064 ------- 4 3.1 9.1 7 79
+ 50.091307 7 1 tcp 83 ------- 0 7.1 1.1 4 80
- 50.091307 7 1 tcp 83 ------- 0 7.1 1.1 4 80
r 50.093373 7 1 tcp 83 ------- 0 7.1 1.1 4 80
+ 50.093373 1 7 tcp 1064 ------- 0 1.1 7.1 4 81
- 50.093373 1 7 tcp 1064 ------- 0 1.1 7.1 4 81
r 50.096224 1 7 tcp 1064 ------- 0 1.1 7.1 4 81
+ 51.23422 0 1 httpInval 72 ------- 40 0.3 1.6 -1 82
- 51.23422 0 1 httpInval 72 ------- 40 0.3 1.6 -1 82
r 51.334604 0 1 httpInval 72 ------- 40 0.3 1.6 -1 82
+ 51.751089 6 12 httpInval 72 ------- 0 6.7 1073741824.0 -1 83
- 51.751089 6 12 httpInval 72 ------- 0 6.7 1073741824.0 -1 83
r 51.801473 6 12 httpInval 72 ------- 0 6.7 1073741824.0 -1 83
+ 51.801473 12 1 httpInval 72 ------- 0 6.7 1073741824.0 -1 83
- 51.801473 12 1 httpInval 72 ------- 0 6.7 1073741824.0 -1 83
+ 51.801473 12 2 httpInval 72 ------- 0 6.7 1073741824.0 -1 83
- 51.801473 12 2 httpInval 72 ------- 0 6.7 1073741824.0 -1 83
+ 51.801473 12 3 httpInval 72 ------- 0 6.7 1073741824.0 -1 83
- 51.801473 12 3 httpInval 72 ------- 0 6.7 1073741824.0 -1 83
+ 51.801473 12 4 httpInval 72 ------- 0 6.7 1073741824.0 -1 83
- 51.801473 12 4 httpInval 72 ------- 0 6.7 1073741824.0 -1 83
+ 51.801473 12 5 httpInval 72 ------- 0 6.7 1073741824.0 -1 83
- 51.801473 12 5 httpInval 72 ------- 0 6.7 1073741824.0 -1 83
r 51.851857 12 1 httpInval 72 ------- 0 6.7 1073741824.0 -1 83
r 51.851857 12 2 httpInval 72 ------- 0 6.7 1073741824.0 -1 83
r 51.851857 12 3 httpInval 72 ------- 0 6.7 1073741824.0 -1 83
r 51.851857 12 4 httpInval 72 ------- 0 6.7 1073741824.0 -1 83
r 51.851857 12 5 httpInval 72 ------- 0 6.7 1073741824.0 -1 83
+ 52.095394 1 12 httpInval 72 ------- 40 1.7 6.9 -1 84
- 52.095394 1 12 httpInval 72 ------- 40 1.7 6.9 -1 84
r 52.145778 1 12 httpInval 72 ------- 40 1.7 6.9 -1 84
+ 52.145778 12 6 httpInval 72 ------- 40 1.7 6.9 -1 84
- 52.145778 12 6 httpInval 72 ------- 40 1.7 6.9 -1 84
r 52.196162 12 6 httpInval 72 ------- 40 1.7 6.9 -1 84
+ 52.210855 9 3 tcp 83 ------- 4 9.1 3.1 8 85
- 52.210855 9 3 tcp 83 ------- 4 9.1 3.1 8 85
r 52.212921 9 3 tcp 83 ------- 4 9.1 3.1 8 85
+ 52.212921 3 9 tcp 1064 ------- 4 3.1 9.1 8 86
- 52.212921 3 9 tcp 1064 ------- 4 3.1 9.1 8 86
r 52.215773 3 9 tcp 1064 ------- 4 3.1 9.1 8 86
+ 52.327628 7 1 tcp 83 ------- 0 7.1 1.1 5 87
- 52.327628 7 1 tcp 83 ------- 0 7.1 1.1 5 87
r 52.329694 7 1 tcp 83 ------- 0 7.1 1.1 5 87
+ 52.329694 1 7 tcp 1064 ------- 0 1.1 7.1 5 88
- 52.329694 1 7 tcp 1064 ------- 0 1.1 7.1 5 88
r 52.332545 1 7 tcp 1064 ------- 0 1.1 7.1 5 88
+ 53.32416 10 4 tcp 83 ------- 6 10.1 4.1 2 89
- 53.32416 10 4 tcp 83 ------- 6 10.1 4.1 2 89
r 53.326226 10 4 tcp 83 ------- 6 10.1 4.1 2 89
+ 53.326226 4 12 tcp 90 ------- 7 4.2 6.4 2 90
- 53.326226 4 12 tcp 90 ------- 7 4.2 6.4 2 90
r 53.376706 4 12 tcp 90 ------- 7 4.2 6.4 2 90
+ 53.376706 12 6 tcp 90 ------- 7 4.2 6.4 2 90
- 53.376706 12 6 tcp 90 ------- 7 4.2 6.4 2 90
r 53.427186 12 6 tcp 90 ------- 7 4.2 6.4 2 90
+ 53.427186 6 12 tcp 1064 ------- 7 6.4 4.2 2 91
- 53.427186 6 12 tcp 1064 ------- 7 6.4 4.2 2 91
r 53.482861 6 12 tcp 1064 ------- 7 6.4 4.2 2 91
+ 53.482861 12 4 tcp 1064 ------- 7 6.4 4.2 2 91
- 53.482861 12 4 tcp 1064 ------- 7 6.4 4.2 2 91
r 53.538536 12 4 tcp 1064 ------- 7 6.4 4.2 2 91
+ 53.538536 4 10 tcp 1064 ------- 6 4.1 10.1 2 92
- 53.538536 4 10 tcp 1064 ------- 6 4.1 10.1 2 92
r 53.541387 4 10 tcp 1064 ------- 6 4.1 10.1 2 92
+ 53.608256 11 5 tcp 83 ------- 8 11.1 5.1 3 93
- 53.608256 11 5 tcp 83 ------- 8 11.1 5.1 3 93
r 53.610322 11 5 tcp 83 ------- 8 11.1 5.1 3 93
+ 53.610322 5 11 tcp 1064 ------- 8 5.1 11.1 3 94
- 53.610322 5 11 tcp 1064 ------- 8 5.1 11.1 3 94
r 53.613174 5 11 tcp 1064 ------- 8 5.1 11.1 3 94
+ 54.449476 10 4 tcp 83 ------- 6 10.1 4.1 3 95
- 54.449476 10 4 tcp 83 ------- 6 10.1 4.1 3 95
r 54.451542 10 4 tcp 83 ------- 6 10.1 4.1 3 95
+ 54.451542 4 10 tcp 1064 ------- 6 4.1 10.1 3 96
- 54.451542 4 10 tcp 1064 ------- 6 4.1 10.1 3 96
r 54.454394 4 10 tcp 1064 ------- 6 4.1 10.1 3 96
+ 54.618395 9 3 tcp 83 ------- 4 9.1 3.1 9 97
- 54.618395 9 3 tcp 83 ------- 4 9.1 3.1 9 97
r 54.620461 9 3 tcp 83 ------- 4 9.1 3.1 9 97
+ 54.620461 3 9 tcp 1064 ------- 4 3.1 9.1 9 98
- 54.620461 3 9 tcp 1064 ------- 4 3.1 9.1 9 98
r 54.623313 3 9 tcp 1064 ------- 4 3.1 9.1 9 98
+ 56.591787 9 3 tcp 83 ------- 4 9.1 3.1 10 99
- 56.591787 9 3 tcp 83 ------- 4 9.1 3.1 10 99
r 56.593853 9 3 tcp 83 ------- 4 9.1 3.1 10 99
+ 56.593853 3 9 tcp 1064 ------- 4 3.1 9.1 10 100
- 56.593853 3 9 tcp 1064 ------- 4 3.1 9.1 10 100
r 56.596705 3 9 tcp 1064 ------- 4 3.1 9.1 10 100
+ 57.164412 0 1 httpInval 72 ------- 40 0.3 1.6 -1 101
- 57.164412 0 1 httpInval 72 ------- 40 0.3 1.6 -1 101
r 57.264796 0 1 httpInval 72 ------- 40 0.3 1.6 -1 101
+ 57.368325 11 5 tcp 83 ------- 8 11.1 5.1 4 102
- 57.368325 11 5 tcp 83 ------- 8 11.1 5.1 4 102
r 57.370391 11 5 tcp 83 ------- 8 11.1 5.1 4 102
+ 57.370391 5 11 tcp 1064 ------- 8 5.1 11.1 4 103
- 57.370391 5 11 tcp 1064 ------- 8 5.1 11.1 4 103
r 57.373243 5 11 tcp 1064 ------- 8 5.1 11.1 4 103
+ 57.810796 6 12 httpInval 41 ------- 0 6.7 1073741824.0 -1 104
- 57.810796 6 12 httpInval 41 ------- 0 6.7 1073741824.0 -1 104
r 57.861014 6 12 httpInval 41 ------- 0 6.7 1073741824.0 -1 104
+ 57.861014 12 1 httpInval 41 ------- 0 6.7 1073741824.0 -1 104
- 57.861014 12 1 httpInval 41 ------- 0 6.7 1073741824.0 -1 104
+ 57.861014 12 2 httpInval 41 ------- 0 6.7 1073741824.0 -1 104
- 57.861014 12 2 httpInval 41 ------- 0 6.7 1073741824.0 -1 104
+ 57.861014 12 3 httpInval 41 ------- 0 6.7 1073741824.0 -1 104
- 57.861014 12 3 httpInval 41 ------- 0 6.7 1073741824.0 -1 104
+ 57.861014 12 4 httpInval 41 ------- 0 6.7 1073741824.0 -1 104
- 57.861014 12 4 httpInval 41 ------- 0 6.7 1073741824.0 -1 104
+ 57.861014 12 5 httpInval 41 ------- 0 6.7 1073741824.0 -1 104
- 57.861014 12 5 httpInval 41 ------- 0 6.7 1073741824.0 -1 104
r 57.911233 12 1 httpInval 41 ------- 0 6.7 1073741824.0 -1 104
r 57.911233 12 2 httpInval 41 ------- 0 6.7 1073741824.0 -1 104
r 57.911233 12 3 httpInval 41 ------- 0 6.7 1073741824.0 -1 104
r 57.911233 12 4 httpInval 41 ------- 0 6.7 1073741824.0 -1 104
r 57.911233 12 5 httpInval 41 ------- 0 6.7 1073741824.0 -1 104
+ 58.672973 1 12 httpInval 41 ------- 40 1.7 6.9 -1 105
- 58.672973 1 12 httpInval 41 ------- 40 1.7 6.9 -1 105
r 58.723192 1 12 httpInval 41 ------- 40 1.7 6.9 -1 105
+ 58.723192 12 6 httpInval 41 ------- 40 1.7 6.9 -1 105
- 58.723192 12 6 httpInval 41 ------- 40 1.7 6.9 -1 105
r 58.77341 12 6 httpInval 41 ------- 40 1.7 6.9 -1 105
+ 61.985405 10 4 tcp 83 ------- 6 10.1 4.1 4 106
- 61.985405 10 4 tcp 83 ------- 6 10.1 4.1 4 106
r 61.987471 10 4 tcp 83 ------- 6 10.1 4.1 4 106
+ 61.987471 4 10 tcp 1064 ------- 6 4.1 10.1 4 107
- 61.987471 4 10 tcp 1064 ------- 6 4.1 10.1 4 107
r 61.990323 4 10 tcp 1064 ------- 6 4.1 10.1 4 107
+ 62.776299 0 1 httpInval 41 ------- 40 0.3 1.6 -1 108
- 62.776299 0 1 httpInval 41 ------- 40 0.3 1.6 -1 108
r 62.876517 0 1 httpInval 41 ------- 40 0.3 1.6 -1 108
+ 63.351881 6 12 httpInval 41 ------- 0 6.7 1073741824.0 -1 109
- 63.351881 6 12 httpInval 41 ------- 0 6.7 1073741824.0 -1 109
r 63.4021 6 12 httpInval 41 ------- 0 6.7 1073741824.0 -1 109
+ 63.4021 12 1 httpInval 41 ------- 0 6.7 1073741824.0 -1 109
- 63.4021 12 1 httpInval 41 ------- 0 6.7 1073741824.0 -1 109