# TESTNAME: mmcast-PBU
# TOPOLOGY: BottleNeck
# avg-comp-page-age: 40000
# avg-page-age: 10
# avg-page-size: 1024
# avg-req-interval: 6
# client-req-size: 43
# comp-page-size: 51200
# duration: 200
# enable-log: 0
# hb-interval: 6
# max-page-age: 70
# max-page-size: 50000
# max-req-interval: 70
# min-page-age: 50
# min-page-size: 100
# min-req-interval: 50
# nam-trace-all: 1
# ns-random-seed: 188312339
# num-2nd-cache: 5
# num-comp-pages: 1
# prot: mmcast-PBU
# scheduler-type: Calendar
# single-page: 1
# ttl: 0.1
# upd-interval: 5
# xtrace-page: webtrace-pglog
# xtrace-req: webtrace-reqlog
v 10 eval {set sim_annotation {10 6 join-group 1073741824}}
v 10 eval {set sim_annotation {10 6 join-group 1073741825}}
v 10 eval {set sim_annotation {10 1 join-group 1073741824}}
v 10 eval {set sim_annotation {10 1 join-group 1073741825}}
v 10 eval {set sim_annotation {10 2 join-group 1073741824}}
v 10 eval {set sim_annotation {10 2 join-group 1073741825}}
v 10 eval {set sim_annotation {10 3 join-group 1073741824}}
v 10 eval {set sim_annotation {10 3 join-group 1073741825}}
v 10 eval {set sim_annotation {10 4 join-group 1073741824}}
v 10 eval {set sim_annotation {10 4 join-group 1073741825}}
v 10 eval {set sim_annotation {10 5 join-group 1073741824}}
v 10 eval {set sim_annotation {10 5 join-group 1073741825}}
v 10 eval {set sim_annotation {1073741824 switch tree type}}
v 10 eval {set sim_annotation {1073741825 switch tree type}}
+ 10 0 1 tcp 50 ------- 11 0.2 1.3 1 0
- 10 0 1 tcp 50 ------- 11 0.2 1.3 1 0
r 10.100267 0 1 tcp 50 ------- 11 0.2 1.3 1 0
+ 10.100267 1 12 tcp 50 ------- 1 1.2 6.1 1 1
- 10.100267 1 12 tcp 50 ------- 1 1.2 6.1 1 1
r 10.150533 1 12 tcp 50 ------- 1 1.2 6.1 1 1
+ 10.150533 12 6 tcp 50 ------- 1 1.2 6.1 1 1
- 10.150533 12 6 tcp 50 ------- 1 1.2 6.1 1 1
r 10.2008 12 6 tcp 50 ------- 1 1.2 6.1 1 1
+ 15.567982 0 1 httpInval 41 ------- 40 0.3 1.6 -1 2
- 15.567982 0 1 httpInval 41 ------- 40 0.3 1.6 -1 2
r 15.668201 0 1 httpInval 41 ------- 40 0.3 1.6 -1 2
+ 16 6 12 httpInval 41 ------- 0 6.7 1073741824.0 -1 3
- 16 6 12 httpInval 41 ------- 0 6.7 1073741824.0 -1 3
r 16.050219 6 12 httpInval 41 ------- 0 6.7 1073741824.0 -1 3
+ 16.050219 12 1 httpInval 41 ------- 0 6.7 1073741824.0 -1 3
- 16.050219 12 1 httpInval 41 ------- 0 6.7 1073741824.0 -1 3
+ 16.050219 12 2 httpInval 41 ------- 0 6.7 1073741824.0 -1 3
- 16.050219 12 2 httpInval 41 ------- 0 6.7 1073741824.0 -1 3
+ 16.050219 12 3 httpInval 41 ------- 0 6.7 1073741824.0 -1 3
- 16.050219 12 3 httpInval 41 ------- 0 6.7 1073741824.0 -1 3
+ 16.050219 12 4 httpInval 41 ------- 0 6.7 1073741824.0 -1 3
- 16.050219 12 4 httpInval 41 ------- 0 6.7 1073741824.0 -1 3
+ 16.050219 12 5 httpInval 41 ------- 0 6.7 1073741824.0 -1 3
- 16.050219 12 5 httpInval 41 ------- 0 6.7 1073741824.0 -1 3
+ 16.100267 1 12 httpInval 41 ------- 40 1.7 6.9 -1 4
- 16.100267 1 12 httpInval 41 ------- 40 1.7 6.9 -1 4
r 16.100437 12 1 httpInval 41 ------- 0 6.7 1073741824.0 -1 3
r 16.100437 12 2 httpInval 41 ------- 0 6.7 1073741824.0 -1 3
r 16.100437 12 3 httpInval 41 ------- 0 6.7 1073741824.0 -1 3
r 16.100437 12 4 httpInval 41 ------- 0 6.7 1073741824.0 -1 3
r 16.100437 12 5 httpInval 41 ------- 0 6.7 1073741824.0 -1 3
r 16.150485 1 12 httpInval 41 ------- 40 1.7 6.9 -1 4
+ 16.150485 12 6 httpInval 41 ------- 40 1.7 6.9 -1 4
- 16.150485 12 6 httpInval 41 ------- 40 1.7 6.9 -1 4
r 16.200704 12 6 httpInval 41 ------- 40 1.7 6.9 -1 4
+ 20 7 1 tcp 83 ------- 0 7.1 1.1 1 5
- 20 7 1 tcp 83 ------- 0 7.1 1.1 1 5
+ 20 8 2 tcp 83 ------- 2 8.1 2.1 1 6
- 20 8 2 tcp 83 ------- 2 8.1 2.1 1 6
+ 20 9 3 tcp 83 ------- 4 9.1 3.1 1 7
- 20 9 3 tcp 83 ------- 4 9.1 3.1 1 7
+ 20 10 4 tcp 83 ------- 6 10.1 4.1 1 8
- 20 10 4 tcp 83 ------- 6 10.1 4.1 1 8
+ 20 11 5 tcp 83 ------- 8 11.1 5.1 1 9
- 20 11 5 tcp 83 ------- 8 11.1 5.1 1 9
r 20.002066 7 1 tcp 83 ------- 0 7.1 1.1 1 5
+ 20.002066 1 0 tcp 83 ------- 11 1.3 0.2 1 10
- 20.002066 1 0 tcp 83 ------- 11 1.3 0.2 1 10
r 20.002066 8 2 tcp 83 ------- 2 8.1 2.1 1 6
+ 20.002066 2 12 tcp 83 ------- 3 2.2 6.2 1 11
- 20.002066 2 12 tcp 83 ------- 3 2.2 6.2 1 11
r 20.002066 9 3 tcp 83 ------- 4 9.1 3.1 1 7
+ 20.002066 3 12 tcp 83 ------- 5 3.2 6.3 1 12
- 20.002066 3 12 tcp 83 ------- 5 3.2 6.3 1 12
r 20.002066 10 4 tcp 83 ------- 6 10.1 4.1 1 8
+ 20.002066 4 12 tcp 83 ------- 7 4.2 6.4 1 13
- 20.002066 4 12 tcp 83 ------- 7 4.2 6.4 1 13
r 20.002066 11 5 tcp 83 ------- 8 11.1 5.1 1 9
+ 20.002066 5 12 tcp 83 ------- 9 5.2 6.5 1 14
- 20.002066 5 12 tcp 83 ------- 9 5.2 6.5 1 14
r 20.052509 2 12 tcp 83 ------- 3 2.2 6.2 1 11
+ 20.052509 12 6 tcp 83 ------- 3 2.2 6.2 1 11
- 20.052509 12 6 tcp 83 ------- 3 2.2 6.2 1 11
r 20.052509 3 12 tcp 83 ------- 5 3.2 6.3 1 12
+ 20.052509 12 6 tcp 83 ------- 5 3.2 6.3 1 12
r 20.052509 4 12 tcp 83 ------- 7 4.2 6.4 1 13
+ 20.052509 12 6 tcp 83 ------- 7 4.2 6.4 1 13
r 20.052509 5 12 tcp 83 ------- 9 5.2 6.5 1 14
+ 20.052509 12 6 tcp 83 ------- 9 5.2 6.5 1 14
- 20.052952 12 6 tcp 83 ------- 5 3.2 6.3 1 12
- 20.053394 12 6 tcp 83 ------- 7 4.2 6.4 1 13
- 20.053837 12 6 tcp 83 ------- 9 5.2 6.5 1 14
r 20.102509 1 0 tcp 83 ------- 11 1.3 0.2 1 10
+ 20.102509 0 1 tcp 1064 ------- 11 0.2 1.3 2 15
- 20.102509 0 1 tcp 1064 ------- 11 0.2 1.3 2 15
r 20.102952 12 6 tcp 83 ------- 3 2.2 6.2 1 11
+ 20.102952 6 12 tcp 83 ------- 1 6.1 1.2 1 16
- 20.102952 6 12 tcp 83 ------- 1 6.1 1.2 1 16
r 20.103394 12 6 tcp 83 ------- 5 3.2 6.3 1 12
r 20.103837 12 6 tcp 83 ------- 7 4.2 6.4 1 13
r 20.10428 12 6 tcp 83 ------- 9 5.2 6.5 1 14
r 20.153394 6 12 tcp 83 ------- 1 6.1 1.2 1 16
+ 20.153394 12 1 tcp 83 ------- 1 6.1 1.2 1 16
- 20.153394 12 1 tcp 83 ------- 1 6.1 1.2 1 16
r 20.203837 12 1 tcp 83 ------- 1 6.1 1.2 1 16
r 20.208184 0 1 tcp 1064 ------- 11 0.2 1.3 2 15
+ 20.208184 1 7 tcp 1064 ------- 0 1.1 7.1 1 17
- 20.208184 1 7 tcp 1064 ------- 0 1.1 7.1 1 17
+ 20.208184 1 12 tcp 1064 ------- 1 1.2 6.1 2 18
- 20.208184 1 12 tcp 1064 ------- 1 1.2 6.1 2 18
r 20.211035 1 7 tcp 1064 ------- 0 1.1 7.1 1 17
+ 20.211035 7 1 tcp 83 ------- 0 7.1 1.1 2 19
- 20.211035 7 1 tcp 83 ------- 0 7.1 1.1 2 19
r 20.213101 7 1 tcp 83 ------- 0 7.1 1.1 2 19
+ 20.213101 1 0 tcp 83 ------- 11 1.3 0.2 2 20
- 20.213101 1 0 tcp 83 ------- 11 1.3 0.2 2 20
r 20.263858 1 12 tcp 1064 ------- 1 1.2 6.1 2 18
+ 20.263858 12 6 tcp 1064 ------- 1 1.2 6.1 2 18
- 20.263858 12 6 tcp 1064 ------- 1 1.2 6.1 2 18
r 20.313544 1 0 tcp 83 ------- 11 1.3 0.2 2 20
+ 20.313544 0 1 tcp 51240 ------- 11 0.2 1.3 3 21
- 20.313544 0 1 tcp 51240 ------- 11 0.2 1.3 3 21
r 20.319533 12 6 tcp 1064 ------- 1 1.2 6.1 2 18
+ 20.319533 6 12 tcp 1064 ------- 3 6.2 2.2 1 22
- 20.319533 6 12 tcp 1064 ------- 3 6.2 2.2 1 22
+ 20.319533 6 12 tcp 1064 ------- 5 6.3 3.2 1 23
+ 20.319533 6 12 tcp 1064 ------- 7 6.4 4.2 1 24
+ 20.319533 6 12 tcp 1064 ------- 9 6.5 5.2 1 25
- 20.325208 6 12 tcp 1064 ------- 5 6.3 3.2 1 23
- 20.330882 6 12 tcp 1064 ------- 7 6.4 4.2 1 24
- 20.336557 6 12 tcp 1064 ------- 9 6.5 5.2 1 25
r 20.375208 6 12 tcp 1064 ------- 3 6.2 2.2 1 22
+ 20.375208 12 2 tcp 1064 ------- 3 6.2 2.2 1 22
- 20.375208 12 2 tcp 1064 ------- 3 6.2 2.2 1 22
r 20.380882 6 12 tcp 1064 ------- 5 6.3 3.2 1 23
+ 20.380882 12 3 tcp 1064 ------- 5 6.3 3.2 1 23
- 20.380882 12 3 tcp 1064 ------- 5 6.3 3.2 1 23
r 20.386557 6 12 tcp 1064 ------- 7 6.4 4.2 1 24
+ 20.386557 12 4 tcp 1064 ------- 7 6.4 4.2 1 24
- 20.386557 12 4 tcp 1064 ------- 7 6.4 4.2 1 24
r 20.392232 6 12 tcp 1064 ------- 9 6.5 5.2 1 25
+ 20.392232 12 5 tcp 1064 ------- 9 6.5 5.2 1 25
- 20.392232 12 5 tcp 1064 ------- 9 6.5 5.2 1 25
r 20.430882 12 2 tcp 1064 ------- 3 6.2 2.2 1 22
+ 20.430882 2 8 tcp 1064 ------- 2 2.1 8.1 1 26
- 20.430882 2 8 tcp 1064 ------- 2 2.1 8.1 1 26
r 20.433734 2 8 tcp 1064 ------- 2 2.1 8.1 1 26
+ 20.433734 8 2 tcp 83 ------- 2 8.1 2.1 2 27
- 20.433734 8 2 tcp 83 ------- 2 8.1 2.1 2 27
r 20.4358 8 2 tcp 83 ------- 2 8.1 2.1 2 27
+ 20.4358 2 12 tcp 83 ------- 3 2.2 6.2 2 28
- 20.4358 2 12 tcp 83 ------- 3 2.2 6.2 2 28
r 20.436557 12 3 tcp 1064 ------- 5 6.3 3.2 1 23
+ 20.436557 3 9 tcp 1064 ------- 4 3.1 9.1 1 29
- 20.436557 3 9 tcp 1064 ------- 4 3.1 9.1 1 29
r 20.439408 3 9 tcp 1064 ------- 4 3.1 9.1 1 29
+ 20.439408 9 3 tcp 83 ------- 4 9.1 3.1 2 30
- 20.439408 9 3 tcp 83 ------- 4 9.1 3.1 2 30
r 20.441475 9 3 tcp 83 ------- 4 9.1 3.1 2 30
+ 20.441475 3 12 tcp 83 ------- 5 3.2 6.3 2 31
- 20.441475 3 12 tcp 83 ------- 5 3.2 6.3 2 31
r 20.442232 12 4 tcp 1064 ------- 7 6.4 4.2 1 24
+ 20.442232 4 10 tcp 1064 ------- 6 4.1 10.1 1 32
- 20.442232 4 10 tcp 1064 ------- 6 4.1 10.1 1 32
r 20.445083 4 10 tcp 1064 ------- 6 4.1 10.1 1 32
+ 20.445083 10 4 tcp 83 ------- 6 10.1 4.1 2 33
- 20.445083 10 4 tcp 83 ------- 6 10.1 4.1 2 33
r 20.447149 10 4 tcp 83 ------- 6 10.1 4.1 2 33
+ 20.447149 4 12 tcp 83 ------- 7 4.2 6.4 2 34
- 20.447149 4 12 tcp 83 ------- 7 4.2 6.4 2 34
r 20.447906 12 5 tcp 1064 ------- 9 6.5 5.2 1 25
+ 20.447906 5 11 tcp 1064 ------- 8 5.1 11.1 1 35
- 20.447906 5 11 tcp 1064 ------- 8 5.1 11.1 1 35
r 20.450758 5 11 tcp 1064 ------- 8 5.1 11.1 1 35
+ 20.450758 11 5 tcp 83 ------- 8 11.1 5.1 2 36
- 20.450758 11 5 tcp 83 ------- 8 11.1 5.1 2 36
r 20.452824 11 5 tcp 83 ------- 8 11.1 5.1 2 36
+ 20.452824 5 12 tcp 83 ------- 9 5.2 6.5 2 37
- 20.452824 5 12 tcp 83 ------- 9 5.2 6.5 2 37
r 20.486243 2 12 tcp 83 ------- 3 2.2 6.2 2 28
+ 20.486243 12 6 tcp 83 ------- 3 2.2 6.2 2 28
- 20.486243 12 6 tcp 83 ------- 3 2.2 6.2 2 28
r 20.491917 3 12 tcp 83 ------- 5 3.2 6.3 2 31
+ 20.491917 12 6 tcp 83 ------- 5 3.2 6.3 2 31
- 20.491917 12 6 tcp 83 ------- 5 3.2 6.3 2 31
r 20.497592 4 12 tcp 83 ------- 7 4.2 6.4 2 34
+ 20.497592 12 6 tcp 83 ------- 7 4.2 6.4 2 34
- 20.497592 12 6 tcp 83 ------- 7 4.2 6.4 2 34
r 20.503267 5 12 tcp 83 ------- 9 5.2 6.5 2 37
+ 20.503267 12 6 tcp 83 ------- 9 5.2 6.5 2 37
- 20.503267 12 6 tcp 83 ------- 9 5.2 6.5 2 37
r 20.536685 12 6 tcp 83 ------- 3 2.2 6.2 2 28
+ 20.536685 6 12 tcp 83 ------- 1 6.1 1.2 2 38
- 20.536685 6 12 tcp 83 ------- 1 6.1 1.2 2 38
r 20.54236 12 6 tcp 83 ------- 5 3.2 6.3 2 31
r 20.548035 12 6 tcp 83 ------- 7 4.2 6.4 2 34
r 20.553709 12 6 tcp 83 ------- 9 5.2 6.5 2 37
r 20.587128 6 12 tcp 83 ------- 1 6.1 1.2 2 38
+ 20.587128 12 1 tcp 83 ------- 1 6.1 1.2 2 38
- 20.587128 12 1 tcp 83 ------- 1 6.1 1.2 2 38
v 20.588293419999999 eval {set sim_annotation {S 0 INV _o435:0}}
r 20.637571 12 1 tcp 83 ------- 1 6.1 1.2 2 38
r 20.686824 0 1 tcp 51240 ------- 11 0.2 1.3 3 21
+ 20.686824 1 7 tcp 51240 ------- 0 1.1 7.1 2 39
- 20.686824 1 7 tcp 51240 ------- 0 1.1 7.1 2 39
+ 20.686824 1 12 tcp 51240 ------- 1 1.2 6.1 3 40
- 20.686824 1 12 tcp 51240 ------- 1 1.2 6.1 3 40
r 20.729816 1 7 tcp 51240 ------- 0 1.1 7.1 2 39
r 21.010104 1 12 tcp 51240 ------- 1 1.2 6.1 3 40
+ 21.010104 12 6 tcp 51240 ------- 1 1.2 6.1 3 40
- 21.010104 12 6 tcp 51240 ------- 1 1.2 6.1 3 40
r 21.333384 12 6 tcp 51240 ------- 1 1.2 6.1 3 40
+ 21.333384 6 12 tcp 51240 ------- 3 6.2 2.2 2 41
- 21.333384 6 12 tcp 51240 ------- 3 6.2 2.2 2 41
+ 21.333384 6 12 tcp 51240 ------- 5 6.3 3.2 2 42
+ 21.333384 6 12 tcp 51240 ------- 7 6.4 4.2 2 43
+ 21.333384 6 12 tcp 51240 ------- 9 6.5 5.2 2 44
- 21.606664 6 12 tcp 51240 ------- 5 6.3 3.2 2 42
r 21.656664 6 12 tcp 51240 ------- 3 6.2 2.2 2 41
+ 21.656664 12 2 tcp 51240 ------- 3 6.2 2.2 2 41
- 21.656664 12 2 tcp 51240 ------- 3 6.2 2.2 2 41
- 21.879944 6 12 tcp 51240 ------- 7 6.4 4.2 2 43
+ 21.894801 6 12 httpInval 41 ------- 0 6.7 1073741824.0 -1 45
r 21.929944 6 12 tcp 51240 ------- 5 6.3 3.2 2 42
+ 21.929944 12 3 tcp 51240 ------- 5 6.3 3.2 2 42
- 21.929944 12 3 tcp 51240 ------- 5 6.3 3.2 2 42
+ 21.978358 1 12 httpInval 41 ------- 40 1.7 6.9 -1 46
- 21.978358 1 12 httpInval 41 ------- 40 1.7 6.9 -1 46
r 21.979944 12 2 tcp 51240 ------- 3 6.2 2.2 2 41
+ 21.979944 2 8 tcp 51240 ------- 2 2.1 8.1 2 47
- 21.979944 2 8 tcp 51240 ------- 2 2.1 8.1 2 47
r 22.022936 2 8 tcp 51240 ------- 2 2.1 8.1 2 47
r 22.028577 1 12 httpInval 41 ------- 40 1.7 6.9 -1 46
+ 22.028577 12 6 httpInval 41 ------- 40 1.7 6.9 -1 46
- 22.028577 12 6 httpInval 41 ------- 40 1.7 6.9 -1 46
+ 22.056866 0 1 httpInval 72 ------- 40 0.3 1.6 -1 48
- 22.056866 0 1 httpInval 72 ------- 40 0.3 1.6 -1 48
r 22.078795 12 6 httpInval 41 ------- 40 1.7 6.9 -1 46
- 22.153224 6 12 tcp 51240 ------- 9 6.5 5.2 2 44
r 22.15725 0 1 httpInval 72 ------- 40 0.3 1.6 -1 48
r 22.203224 6 12 tcp 51240 ------- 7 6.4 4.2 2 43
+ 22.203224 12 4 tcp 51240 ------- 7 6.4 4.2 2 43
- 22.203224 12 4 tcp 51240 ------- 7 6.4 4.2 2 43
r 22.253224 12 3 tcp 51240 ------- 5 6.3 3.2 2 42
+ 22.253224 3 9 tcp 51240 ------- 4 3.1 9.1 2 49
- 22.253224 3 9 tcp 51240 ------- 4 3.1 9.1 2 49
r 22.296216 3 9 tcp 51240 ------- 4 3.1 9.1 2 49
- 22.426504 6 12 httpInval 41 ------- 0 6.7 1073741824.0 -1 45
r 22.476504 6 12 tcp 51240 ------- 9 6.5 5.2 2 44
+ 22.476504 12 5 tcp 51240 ------- 9 6.5 5.2 2 44
- 22.476504 12 5 tcp 51240 ------- 9 6.5 5.2 2 44
r 22.476723 6 12 httpInval 41 ------- 0 6.7 1073741824.0 -1 45
+ 22.476723 12 1 httpInval 41 ------- 0 6.7 1073741824.0 -1 45
- 22.476723 12 1 httpInval 41 ------- 0 6.7 1073741824.0 -1 45
+ 22.476723 12 2 httpInval 41 ------- 0 6.7 1073741824.0 -1 45
- 22.476723 12 2 httpInval 41 ------- 0 6.7 1073741824.0 -1 45
+ 22.476723 12 3 httpInval 41 ------- 0 6.7 1073741824.0 -1 45
- 22.476723 12 3 httpInval 41 ------- 0 6.7 1073741824.0 -1 45
+ 22.476723 12 4 httpInval 41 ------- 0 6.7 1073741824.0 -1 45
- 22.476723 12 4 httpInval 41 ------- 0 6.7 1073741824.0 -1 45
+ 22.476723 12 5 httpInval 41 ------- 0 6.7 1073741824.0 -1 45
r 22.526504 12 4 tcp 51240 ------- 7 6.4 4.2 2 43
+ 22.526504 4 10 tcp 51240 ------- 6 4.1 10.1 2 50
- 22.526504 4 10 tcp 51240 ------- 6 4.1 10.1 2 50
r 22.526941 12 1 httpInval 41 ------- 0 6.7 1073741824.0 -1 45
r 22.526941 12 2 httpInval 41 ------- 0 6.7 1073741824.0 -1 45
r 22.526941 12 3 httpInval 41 ------- 0 6.7 1073741824.0 -1 45
r 22.526941 12 4 httpInval 41 ------- 0 6.7 1073741824.0 -1 45
r 22.569496 4 10 tcp 51240 ------- 6 4.1 10.1 2 50
- 22.749784 12 5 httpInval 41 ------- 0 6.7 1073741824.0 -1 45
r 22.799784 12 5 tcp 51240 ------- 9 6.5 5.2 2 44
+ 22.799784 5 11 tcp 51240 ------- 8 5.1 11.1 2 51
- 22.799784 5 11 tcp 51240 ------- 8 5.1 11.1 2 51
r 22.800003 12 5 httpInval 41 ------- 0 6.7 1073741824.0 -1 45
r 22.842776 5 11 tcp 51240 ------- 8 5.1 11.1 2 51
v 23.01378369 eval {set sim_annotation {S 0 INV _o435:0}}
+ 27.591815 1 12 httpInval 72 ------- 40 1.7 6.9 -1 52
- 27.591815 1 12 httpInval 72 ------- 40 1.7 6.9 -1 52
r 27.642199 1 12 httpInval 72 ------- 40 1.7 6.9 -1 52
+ 27.642199 12 6 httpInval 72 ------- 40 1.7 6.9 -1 52
- 27.642199 12 6 httpInval 72 ------- 40 1.7 6.9 -1 52
r 27.692583 12 6 httpInval 72 ------- 40 1.7 6.9 -1 52
+ 27.800653 6 12 httpInval 72 ------- 0 6.7 1073741824.0 -1 53
- 27.800653 6 12 httpInval 72 ------- 0 6.7 1073741824.0 -1 53
r 27.851037 6 12 httpInval 72 ------- 0 6.7 1073741824.0 -1 53
+ 27.851037 12 1 httpInval 72 ------- 0 6.7 1073741824.0 -1 53
- 27.851037 12 1 httpInval 72 ------- 0 6.7 1073741824.0 -1 53
+ 27.851037 12 2 httpInval 72 ------- 0 6.7 1073741824.0 -1 53
- 27.851037 12 2 httpInval 72 ------- 0 6.7 1073741824.0 -1 53
+ 27.851037 12 3 httpInval 72 ------- 0 6.7 1073741824.0 -1 53
- 27.851037 12 3 httpInval 72 ------- 0 6.7 1073741824.0 -1 53
+ 27.851037 12 4 httpInval 72 ------- 0 6.7 1073741824.0 -1 53
- 27.851037 12 4 httpInval 72 ------- 0 6.7 1073741824.0 -1 53
+ 27.851037 12 5 httpInval 72 ------- 0 6.7 1073741824.0 -1 53
- 27.851037 12 5 httpInval 72 ------- 0 6.7 1073741824.0 -1 53
r 27.901421 12 1 httpInval 72 ------- 0 6.7 1073741824.0 -1 53
r 27.901421 12 2 httpInval 72 ------- 0 6.7 1073741824.0 -1 53
r 27.901421 12 3 httpInval 72 ------- 0 6.7 1073741824.0 -1 53
r 27.901421 12 4 httpInval 72 ------- 0 6.7 1073741824.0 -1 53
r 27.901421 12 5 httpInval 72 ------- 0 6.7 1073741824.0 -1 53
+ 28.238184 0 1 httpInval 72 ------- 40 0.3 1.6 -1 54
- 28.238184 0 1 httpInval 72 ------- 40 0.3 1.6 -1 54
r 28.338568 0 1 httpInval 72 ------- 40 0.3 1.6 -1 54
v 28.916614129999999 eval {set sim_annotation {S 0 INV _o435:0}}
+ 31.291471 7 1 tcp 83 ------- 0 7.1 1.1 3 55
- 31.291471 7 1 tcp 83 ------- 0 7.1 1.1 3 55
r 31.293537 7 1 tcp 83 ------- 0 7.1 1.1 3 55
+ 31.293537 1 0 tcp 90 ------- 11 1.3 0.2 3 56
- 31.293537 1 0 tcp 90 ------- 11 1.3 0.2 3 56
r 31.394017 1 0 tcp 90 ------- 11 1.3 0.2 3 56
+ 31.394017 0 1 tcp 1064 ------- 11 0.2 1.3 4 57
- 31.394017 0 1 tcp 1064 ------- 11 0.2 1.3 4 57
r 31.499692 0 1 tcp 1064 ------- 11 0.2 1.3 4 57
+ 31.499692 1 7 tcp 1064 ------- 0 1.1 7.1 3 58
- 31.499692 1 7 tcp 1064 ------- 0 1.1 7.1 3 58
r 31.502543 1 7 tcp 1064 ------- 0 1.1 7.1 3 58
+ 31.502543 7 1 tcp 83 ------- 0 7.1 1.1 4 59
- 31.502543 7 1 tcp 83 ------- 0 7.1 1.1 4 59
r 31.504609 7 1 tcp 83 ------- 0 7.1 1.1 4 59
+ 31.504609 1 7 tcp 51240 ------- 0 1.1 7.1 4 60
- 31.504609 1 7 tcp 51240 ------- 0 1.1 7.1 4 60
r 31.547601 1 7 tcp 51240 ------- 0 1.1 7.1 4 60
+ 32.455294 8 2 tcp 83 ------- 2 8.1 2.1 3 61
- 32.455294 8 2 tcp 83 ------- 2 8.1 2.1 3 61
r 32.45736 8 2 tcp 83 ------- 2 8.1 2.1 3 61
+ 32.45736 2 12 tcp 90 ------- 3 2.2 6.2 3 62
- 32.45736 2 12 tcp 90 ------- 3 2.2 6.2 3 62
r 32.50784 2 12 tcp 90 ------- 3 2.2 6.2 3 62
+ 32.50784 12 6 tcp 90 ------- 3 2.2 6.2 3 62
- 32.50784 12 6 tcp 90 ------- 3 2.2 6.2 3 62
r 32.55832 12 6 tcp 90 ------- 3 2.2 6.2 3 62
+ 32.55832 6 12 tcp 90 ------- 1 6.1 1.2 3 63
- 32.55832 6 12 tcp 90 ------- 1 6.1 1.2 3 63
r 32.6088 6 12 tcp 90 ------- 1 6.1 1.2 3 63
+ 32.6088 12 1 tcp 90 ------- 1 6.1 1.2 3 63
- 32.6088 12 1 tcp 90 ------- 1 6.1 1.2 3 63
r 32.65928 12 1 tcp 90 ------- 1 6.1 1.2 3 63
+ 32.65928 1 12 tcp 1064 ------- 1 1.2 6.1 4 64
- 32.65928 1 12 tcp 1064 ------- 1 1.2 6.1 4 64
r 32.714955 1 12 tcp 1064 ------- 1 1.2 6.1 4 64
+ 32.714955 12 6 tcp 1064 ------- 1 1.2 6.1 4 64
- 32.714955 12 6 tcp 1064 ------- 1 1.2 6.1 4 64
r 32.77063 12 6 tcp 1064 ------- 1 1.2 6.1 4 64
+ 32.77063 6 12 tcp 1064 ------- 3 6.2 2.2 3 65
- 32.77063 6 12 tcp 1064 ------- 3 6.2 2.2 3 65
r 32.826304 6 12 tcp 1064 ------- 3 6.2 2.2 3 65
+ 32.826304 12 2 tcp 1064 ------- 3 6.2 2.2 3 65
- 32.826304 12 2 tcp 1064 ------- 3 6.2 2.2 3 65
r 32.881979 12 2 tcp 1064 ------- 3 6.2 2.2 3 65
+ 32.881979 2 8 tcp 1064 ------- 2 2.1 8.1 3 66
- 32.881979 2 8 tcp 1064 ------- 2 2.1 8.1 3 66
r 32.88483 2 8 tcp 1064 ------- 2 2.1 8.1 3 66
+ 32.88483 8 2 tcp 83 ------- 2 8.1 2.1 4 67
- 32.88483 8 2 tcp 83 ------- 2 8.1 2.1 4 67
r 32.886897 8 2 tcp 83 ------- 2 8.1 2.1 4 67
+ 32.886897 2 8 tcp 51240 ------- 2 2.1 8.1 4 68
- 32.886897 2 8 tcp 51240 ------- 2 2.1 8.1 4 68
r 32.929889 2 8 tcp 51240 ------- 2 2.1 8.1 4 68
+ 33.466927 1 12 httpInval 72 ------- 40 1.7 6.9 -1 69
- 33.466927 1 12 httpInval 72 ------- 40 1.7 6.9 -1 69
+ 33.473326 11 5 tcp 83 ------- 8 11.1 5.1 3 70
- 33.473326 11 5 tcp 83 ------- 8 11.1 5.1 3 70
r 33.475392 11 5 tcp 83 ------- 8 11.1 5.1 3 70
+ 33.475392 5 12 tcp 90 ------- 9 5.2 6.5 3 71
- 33.475392 5 12 tcp 90 ------- 9 5.2 6.5 3 71
+ 33.5122 6 12 httpInval 72 ------- 0 6.7 1073741824.0 -1 72
- 33.5122 6 12 httpInval 72 ------- 0 6.7 1073741824.0 -1 72
r 33.517311 1 12 httpInval 72 ------- 40 1.7 6.9 -1 69
+ 33.517311 12 6 httpInval 72 ------- 40 1.7 6.9 -1 69
- 33.517311 12 6 httpInval 72 ------- 40 1.7 6.9 -1 69
r 33.525872 5 12 tcp 90 ------- 9 5.2 6.5 3 71
+ 33.525872 12 6 tcp 90 ------- 9 5.2 6.5 3 71
- 33.525872 12 6 tcp 90 ------- 9 5.2 6.5 3 71
r 33.562584 6 12 httpInval 72 ------- 0 6.7 1073741824.0 -1 72
+ 33.562584 12 1 httpInval 72 ------- 0 6.7 1073741824.0 -1 72
- 33.562584 12 1 httpInval 72 ------- 0 6.7 1073741824.0 -1 72
+ 33.562584 12 2 httpInval 72 ------- 0 6.7 1073741824.0 -1 72
- 33.562584 12 2 httpInval 72 ------- 0 6.7 1073741824.0 -1 72
+ 33.562584 12 3 httpInval 72 ------- 0 6.7 1073741824.0 -1 72
- 33.562584 12 3 httpInval 72 ------- 0 6.7 1073741824.0 -1 72
+ 33.562584 12 4 httpInval 72 ------- 0 6.7 1073741824.0 -1 72
- 33.562584 12 4 httpInval 72 ------- 0 6.7 1073741824.0 -1 72
+ 33.562584 12 5 httpInval 72 ------- 0 6.7 1073741824.0 -1 72
- 33.562584 12 5 httpInval 72 ------- 0 6.7 1073741824.0 -1 72
r 33.567695 12 6 httpInval 72 ------- 40 1.7 6.9 -1 69
r 33.576352 12 6 tcp 90 ------- 9 5.2 6.5 3 71
+ 33.576352 6 12 tcp 1064 ------- 9 6.5 5.2 3 73
- 33.576352 6 12 tcp 1064 ------- 9 6.5 5.2 3 73
r 33.612968 12 1 httpInval 72 ------- 0 6.7 1073741824.0 -1 72
r 33.612968 12 2 httpInval 72 ------- 0 6.7 1073741824.0 -1 72
r 33.612968 12 3 httpInval 72 ------- 0 6.7 1073741824.0 -1 72
r 33.612968 12 4 httpInval 72 ------- 0 6.7 1073741824.0 -1 72
r 33.612968 12 5 httpInval 72 ------- 0 6.7 1073741824.0 -1 72
r 33.632027 6 12 tcp 1064 ------- 9 6.5 5.2 3 73
+ 33.632027 12 5 tcp 1064 ------- 9 6.5 5.2 3 73
- 33.632027 12 5 tcp 1064 ------- 9 6.5 5.2 3 73
r 33.687702 12 5 tcp 1064 ------- 9 6.5 5.2 3 73
+ 33.687702 5 11 tcp 1064 ------- 8 5.1 11.1 3 74
- 33.687702 5 11 tcp 1064 ------- 8 5.1 11.1 3 74
r 33.690553 5 11 tcp 1064 ------- 8 5.1 11.1 3 74
+ 33.690553 11 5 tcp 83 ------- 8 11.1 5.1 4 75
- 33.690553 11 5 tcp 83 ------- 8 11.1 5.1 4 75
r 33.692619 11 5 tcp 83 ------- 8 11.1 5.1 4 75
+ 33.692619 5 11 tcp 51240 ------- 8 5.1 11.1 4 76
- 33.692619 5 11 tcp 51240 ------- 8 5.1 11.1 4 76
r 33.735611 5 11 tcp 51240 ------- 8 5.1 11.1 4 76
+ 34.49967 0 1 httpInval 72 ------- 40 0.3 1.6 -1 77
- 34.49967 0 1 httpInval 72 ------- 40 0.3 1.6 -1 77
+ 34.541698 9 3 tcp 83 ------- 4 9.1 3.1 3 78
- 34.541698 9 3 tcp 83 ------- 4 9.1 3.1 3 78
r 34.543764 9 3 tcp 83 ------- 4 9.1 3.1 3 78
+ 34.543764 3 12 tcp 90 ------- 5 3.2 6.3 3 79
- 34.543764 3 12 tcp 90 ------- 5 3.2 6.3 3 79
r 34.594244 3 12 tcp 90 ------- 5 3.2 6.3 3 79
+ 34.594244 12 6 tcp 90 ------- 5 3.2 6.3 3 79
- 34.594244 12 6 tcp 90 ------- 5 3.2 6.3 3 79
r 34.600054 0 1 httpInval 72 ------- 40 0.3 1.6 -1 77
r 34.644724 12 6 tcp 90 ------- 5 3.2 6.3 3 79
+ 34.644724 6 12 tcp 1064 ------- 5 6.3 3.2 3 80
- 34.644724 6 12 tcp 1064 ------- 5 6.3 3.2 3 80
r 34.700399 6 12 tcp 1064 ------- 5 6.3 3.2 3 80
+ 34.700399 12 3 tcp 1064 ------- 5 6.3 3.2 3 80
- 34.700399 12 3 tcp 1064 ------- 5 6.3 3.2 3 80
r 34.756074 12 3 tcp 1064 ------- 5 6.3 3.2 3 80
+ 34.756074 3 9 tcp 1064 ------- 4 3.1 9.1 3 81
- 34.756074 3 9 tcp 1064 ------- 4 3.1 9.1 3 81
r 34.758925 3 9 tcp 1064 ------- 4 3.1 9.1 3 81
+ 34.758925 9 3 tcp 83 ------- 4 9.1 3.1 4 82
- 34.758925 9 3 tcp 83 ------- 4 9.1 3.1 4 82
r 34.760991 9 3 tcp 83 ------- 4 9.1 3.1 4 82
+ 34.760991 3 9 tcp 51240 ------- 4 3.1 9.1 4 83
- 34.760991 3 9 tcp 51240 ------- 4 3.1 9.1 4 83
r 34.803983 3 9 tcp 51240 ------- 4 3.1 9.1 4 83
+ 35.818857 8 2 tcp 83 ------- 2 8.1 2.1 5 84
- 35.818857 8 2 tcp 83 ------- 2 8.1 2.1 5 84
r 35.820923 8 2 tcp 83 ------- 2 8.1 2.1 5 84
+ 35.820923 2 8 tcp 1064 ------- 2 2.1 8.1 5 85
- 35.820923 2 8 tcp 1064 ------- 2 2.1 8.1 5 85
r 35.823775 2 8 tcp 1064 ------- 2 2.1 8.1 5 85
+ 35.823775 8 2 tcp 83 ------- 2 8.1 2.1 6 86
- 35.823775 8 2 tcp 83 ------- 2 8.1 2.1 6 86
r 35.825841 8 2 tcp 83 ------- 2 8.1 2.1 6 86
+ 35.825841 2 8 tcp 51240 ------- 2 2.1 8.1 6 87
- 35.825841 2 8 tcp 51240 ------- 2 2.1 8.1 6 87
r 35.868833 2 8 tcp 51240 ------- 2 2.1 8.1 6 87
+ 38.944458 6 12 httpInval 72 ------- 0 6.7 1073741824.0 -1 88
- 38.944458 6 12 httpInval 72 ------- 0 6.7 1073741824.0 -1 88
r 38.994842 6 12 httpInval 72 ------- 0 6.7 1073741824.0 -1 88
+ 38.994842 12 1 httpInval 72 ------- 0 6.7 1073741824.0 -1 88
- 38.994842 12 1 httpInval 72 ------- 0 6.7 1073741824.0 -1 88
+ 38.994842 12 2 httpInval 72 ------- 0 6.7 1073741824.0 -1 88
- 38.994842 12 2 httpInval 72 ------- 0 6.7 1073741824.0 -1 88
+ 38.994842 12 3 httpInval 72 ------- 0 6.7 1073741824.0 -1 88
- 38.994842 12 3 httpInval 72 ------- 0 6.7 1073741824.0 -1 88
+ 38.994842 12 4 httpInval 72 ------- 0 6.7 1073741824.0 -1 88
- 38.994842 12 4 httpInval 72 ------- 0 6.7 1073741824.0 -1 88
+ 38.994842 12 5 httpInval 72 ------- 0 6.7 1073741824.0 -1 88
- 38.994842 12 5 httpInval 72 ------- 0 6.7 1073741824.0 -1 88
r 39.045226 12 1 httpInval 72 ------- 0 6.7 1073741824.0 -1 88
r 39.045226 12 2 httpInval 72 ------- 0 6.7 1073741824.0 -1 88
r 39.045226 12 3 httpInval 72 ------- 0 6.7 1073741824.0 -1 88
r 39.045226 12 4 httpInval 72 ------- 0 6.7 1073741824.0 -1 88
r 39.045226 12 5 httpInval 72 ------- 0 6.7 1073741824.0 -1 88
+ 39.594716 8 2 tcp 83 ------- 2 8.1 2.1 7 89
- 39.594716 8 2 tcp 83 ------- 2 8.1 2.1 7 89
r 39.596782 8 2 tcp 83 ------- 2 8.1 2.1 7 89
+ 39.596782 2 8 tcp 1064 ------- 2 2.1 8.1 7 90
- 39.596782 2 8 tcp 1064 ------- 2 2.1 8.1 7 90
r 39.599634 2 8 tcp 1064 ------- 2 2.1 8.1 7 90
+ 39.599634 8 2 tcp 83 ------- 2 8.1 2.1 8 91
- 39.599634 8 2 tcp 83 ------- 2 8.1 2.1 8 91
r 39.6017 8 2 tcp 83 ------- 2 8.1 2.1 8 91
+ 39.6017 2 8 tcp 51240 ------- 2 2.1 8.1 8 92
- 39.6017 2 8 tcp 51240 ------- 2 2.1 8.1 8 92
r 39.644692 2 8 tcp 51240 ------- 2 2.1 8.1 8 92
+ 39.878945 1 12 httpInval 72 ------- 40 1.7 6.9 -1 93
- 39.878945 1 12 httpInval 72 ------- 40 1.7 6.9 -1 93
r 39.929329 1 12 httpInval 72 ------- 40 1.7 6.9 -1 93
+ 39.929329 12 6 httpInval 72 ------- 40 1.7 6.9 -1 93
- 39.929329 12 6 httpInval 72 ------- 40 1.7 6.9 -1 93
r 39.979713 12 6 httpInval 72 ------- 40 1.7 6.9 -1 93
+ 40.021472 0 1 httpInval 72 ------- 40 0.3 1.6 -1 94
- 40.021472 0 1 httpInval 72 ------- 40 0.3 1.6 -1 94
r 40.121856 0 1 httpInval 72 ------- 40 0.3 1.6 -1 94
+ 42.039988 8 2 tcp 83 ------- 2 8.1 2.1 9 95
- 42.039988 8 2 tcp 83 ------- 2 8.1 2.1 9 95
r 42.042054 8 2 tcp 83 ------- 2 8.1 2.1 9 95
+ 42.042054 2 8 tcp 1064 ------- 2 2.1 8.1 9 96
- 42.042054 2 8 tcp 1064 ------- 2 2.1 8.1 9 96
r 42.044906 2 8 tcp 1064 ------- 2 2.1 8.1 9 96
+ 42.044906 8 2 tcp 83 ------- 2 8.1 2.1 10 97
- 42.044906 8 2 tcp 83 ------- 2 8.1 2.1 10 97
r 42.046972 8 2 tcp 83 ------- 2 8.1 2.1 10 97
+ 42.046972 2 8 tcp 51240 ------- 2 2.1 8.1 10 98
- 42.046972 2 8 tcp 51240 ------- 2 2.1 8.1 10 98
r 42.089964 2 8 tcp 51240 ------- 2 2.1 8.1 10 98
+ 42.246471 7 1 tcp 83 ------- 0 7.1 1.1 5 99
- 42.246471 7 1 tcp 83 ------- 0 7.1 1.1 5 99
r 42.248537 7 1 tcp 83 ------- 0 7.1 1.1 5 99
+ 42.248537 1 7 tcp 1064 ------- 0 1.1 7.1 5 100
- 42.248537 1 7 tcp 1064 ------- 0 1.1 7.1 5 100
r 42.251388 1 7 tcp 1064 ------- 0 1.1 7.1 5 100
+ 42.251388 7 1 tcp 83 ------- 0 7.1 1.1 6 101
- 42.251388 7 1 tcp 83 ------- 0 7.1 1.1 6 101
r 42.253455 7 1 tcp 83 ------- 0 7.1 1.1 6 101
+ 42.253455 1 7 tcp 51240 ------- 0 1.1 7.1 6 102
- 42.253455 1 7 tcp 51240 ------- 0 1.1 7.1 6 102
r 42.296447 1 7 tcp 51240 ------- 0 1.1 7.1 6 102
+ 42.952626 9 3 tcp 83 ------- 4 9.1 3.1 5 103
- 42.952626 9 3 tcp 83 ------- 4 9.1 3.1 5 103
r 42.954692 9 3 tcp 83 ------- 4 9.1 3.1 5 103
+ 42.954692 3 9 tcp 1064 ------- 4 3.1 9.1 5 104
- 42.954692 3 9 tcp 1064 ------- 4 3.1 9.1 5 104
r 42.957544 3 9 tcp 1064 ------- 4 3.1 9.1 5 104
+ 42.957544 9 3 tcp 83 ------- 4 9.1 3.1 6 105
- 42.957544 9 3 tcp 83 ------- 4 9.1 3.1 6 105
r 42.95961 9 3 tcp 83 ------- 4 9.1 3.1 6 105
+ 42.95961 3 9 tcp 51240 ------- 4 3.1 9.1 6 106
- 42.95961 3 9 tcp 51240 ------- 4 3.1 9.1 6 106
r 43.002602 3 9 tcp 51240 ------- 4 3.1 9.1 6 106
+ 44.425318 9 3 tcp 83 ------- 4 9.1 3.1 7 107
- 44.425318 9 3 tcp 83 ------- 4 9.1 3.1 7 107
r 44.427384 9 3 tcp 83 ------- 4 9.1 3.1 7 107
+ 44.427384 3 9 tcp 1064 ------- 4 3.1 9.1 7 108
- 44.427384 3 9 tcp 1064 ------- 4 3.1 9.1 7 108
r 44.430236 3 9 tcp 1064 ------- 4 3.1 9.1 7 108
+ 44.430236 9 3 tcp 83 ------- 4 9.1 3.1 8 109
- 44.430236 9 3 tcp 83 ------- 4 9.1 3.1 8 109
r 44.432302 9 3 tcp 83 ------- 4 9.1 3.1 8 109
+ 44.432302 3 9 tcp 51240 ------- 4 3.1 9.1 8 110
- 44.432302 3 9 tcp 51240 ------- 4 3.1 9.1 8 110
r 44.475294 3 9 tcp 51240 ------- 4 3.1 9.1 8 110
+ 45.382796 6 12 httpInval 72 ------- 0 6.7 1073741824.0 -1 111
- 45.382796 6 12 httpInval 72 ------- 0 6.7 1073741824.0 -1 111
r 45.43318 6 12 httpInval 72 ------- 0 6.7 1073741824.0 -1 111
+ 45.43318 12 1 httpInval 72 ------- 0 6.7 1073741824.0 -1 111
- 45.43318 12 1 httpInval 72 ------- 0 6.7 1073741824.0 -1 111
+ 45.43318 12 2 httpInval 72 ------- 0 6.7 1073741824.0 -1 111
- 45.43318 12 2 httpInval 72 ------- 0 6.7 1073741824.0 -1 111
+ 45.43318 12 3 httpInval 72 ------- 0 6.7 1073741824.0 -1 111
- 45.43318 12 3 httpInval 72 ------- 0 6.7 1073741824.0 -1 111
+ 45.43318 12 4 httpInval 72 ------- 0 6.7 1073741824.0 -1 111
- 45.43318 12 4 httpInval 72 ------- 0 6.7 1073741824.0 -1 111
+ 45.43318 12 5 httpInval 72 ------- 0 6.7 1073741824.0 -1 111
- 45.43318 12 5 httpInval 72 ------- 0 6.7 1073741824.0 -1 111
r 45.483564 12 1 httpInval 72 ------- 0 6.7 1073741824.0 -1 111
r 45.483564 12 2 httpInval 72 ------- 0 6.7 1073741824.0 -1 111
r 45.483564 12 3 httpInval 72 ------- 0 6.7 1073741824.0 -1 111
r 45.483564 12 4 httpInval 72 ------- 0 6.7 1073741824.0 -1 111
r 45.483564 12 5 httpInval 72 ------- 0 6.7 1073741824.0 -1 111
+ 45.499258 1 12 httpInval 72 ------- 40 1.7 6.9 -1 112
- 45.499258 1 12 httpInval 72 ------- 40 1.7 6.9 -1 112
r 45.549642 1 12 httpInval 72 ------- 40 1.7 6.9 -1 112
+ 45.549642 12 6 httpInval 72 ------- 40 1.7 6.9 -1 112
- 45.549642 12 6 httpInval 72 ------- 40 1.7 6.9 -1 112
r 45.600026 12 6 httpInval 72 ------- 40 1.7 6.9 -1 112
+ 45.682104 0 1 httpInval 72 ------- 40 0.3 1.6 -1 113
- 45.682104 0 1 httpInval 72 ------- 40 0.3 1.6 -1 113
r 45.782488 0 1 httpInval 72 ------- 40 0.3 1.6 -1 113
+ 46.318036 9 3 tcp 83 ------- 4 9.1 3.1 9 114
- 46.318036 9 3 tcp 83 ------- 4 9.1 3.1 9 114
r 46.320102 9 3 tcp 83 ------- 4 9.1 3.1 9 114
+ 46.320102 3 9 tcp 1064 ------- 4 3.1 9.1 9 115
- 46.320102 3 9 tcp 1064 ------- 4 3.1 9.1 9 115
r 46.322954 3 9 tcp 1064 ------- 4 3.1 9.1 9 115
+ 46.322954 9 3 tcp 83 ------- 4 9.1 3.1 10 116
- 46.322954 9 3 tcp 83 ------- 4 9.1 3.1 10 116
r 46.32502 9 3 tcp 83 ------- 4 9.1 3.1 10 116
+ 46.32502 3 9 tcp 51240 ------- 4 3.1 9.1 10 117
- 46.32502 3 9 tcp 51240 ------- 4 3.1 9.1 10 117
r 46.368012 3 9 tcp 51240 ------- 4 3.1 9.1 10 117
+ 47.470562 9 3 tcp 83 ------- 4 9.1 3.1 11 118
- 47.470562 9 3 tcp 83 ------- 4 9.1 3.1 11 118
r 47.472628 9 3 tcp 83 ------- 4 9.1 3.1 11 118
+ 47.472628 3 9 tcp 1064 ------- 4 3.1 9.1 11 119