# TESTNAME: mottl-PB
# TOPOLOGY: BottleNeck
# avg-comp-page-age: 40000
# avg-page-age: 10
# avg-page-size: 1024
# avg-req-interval: 6
# client-req-size: 43
# comp-page-size: 51200
# duration: 200
# enable-log: 0
# hb-interval: 6
# max-page-age: 70
# max-page-size: 50000
# max-req-interval: 70
# min-page-age: 50
# min-page-size: 100
# min-req-interval: 50
# nam-trace-all: 1
# ns-random-seed: 188312339
# num-2nd-cache: 5
# num-comp-pages: 1
# prot: mottl-PB
# scheduler-type: Calendar
# single-page: 1
# ttl: 0.1
# upd-interval: 5
# xtrace-page: webtrace-pglog
# xtrace-req: webtrace-reqlog
+ 20 7 1 tcp 83 ------- 0 7.1 1.1 1 0
- 20 7 1 tcp 83 ------- 0 7.1 1.1 1 0
+ 20 8 2 tcp 83 ------- 2 8.1 2.1 1 1
- 20 8 2 tcp 83 ------- 2 8.1 2.1 1 1
+ 20 9 3 tcp 83 ------- 4 9.1 3.1 1 2
- 20 9 3 tcp 83 ------- 4 9.1 3.1 1 2
+ 20 10 4 tcp 83 ------- 6 10.1 4.1 1 3
- 20 10 4 tcp 83 ------- 6 10.1 4.1 1 3
+ 20 11 5 tcp 83 ------- 8 11.1 5.1 1 4
- 20 11 5 tcp 83 ------- 8 11.1 5.1 1 4
r 20.002066 7 1 tcp 83 ------- 0 7.1 1.1 1 0
+ 20.002066 1 12 tcp 83 ------- 1 1.2 6.1 1 5
- 20.002066 1 12 tcp 83 ------- 1 1.2 6.1 1 5
r 20.002066 8 2 tcp 83 ------- 2 8.1 2.1 1 1
+ 20.002066 2 12 tcp 83 ------- 3 2.2 6.2 1 6
- 20.002066 2 12 tcp 83 ------- 3 2.2 6.2 1 6
r 20.002066 9 3 tcp 83 ------- 4 9.1 3.1 1 2
+ 20.002066 3 12 tcp 83 ------- 5 3.2 6.3 1 7
- 20.002066 3 12 tcp 83 ------- 5 3.2 6.3 1 7
r 20.002066 10 4 tcp 83 ------- 6 10.1 4.1 1 3
+ 20.002066 4 12 tcp 83 ------- 7 4.2 6.4 1 8
- 20.002066 4 12 tcp 83 ------- 7 4.2 6.4 1 8
r 20.002066 11 5 tcp 83 ------- 8 11.1 5.1 1 4
+ 20.002066 5 12 tcp 83 ------- 9 5.2 6.5 1 9
- 20.002066 5 12 tcp 83 ------- 9 5.2 6.5 1 9
r 20.052509 1 12 tcp 83 ------- 1 1.2 6.1 1 5
+ 20.052509 12 6 tcp 83 ------- 1 1.2 6.1 1 5
- 20.052509 12 6 tcp 83 ------- 1 1.2 6.1 1 5
r 20.052509 2 12 tcp 83 ------- 3 2.2 6.2 1 6
+ 20.052509 12 6 tcp 83 ------- 3 2.2 6.2 1 6
r 20.052509 3 12 tcp 83 ------- 5 3.2 6.3 1 7
+ 20.052509 12 6 tcp 83 ------- 5 3.2 6.3 1 7
r 20.052509 4 12 tcp 83 ------- 7 4.2 6.4 1 8
+ 20.052509 12 6 tcp 83 ------- 7 4.2 6.4 1 8
r 20.052509 5 12 tcp 83 ------- 9 5.2 6.5 1 9
+ 20.052509 12 6 tcp 83 ------- 9 5.2 6.5 1 9
- 20.052952 12 6 tcp 83 ------- 3 2.2 6.2 1 6
- 20.053394 12 6 tcp 83 ------- 5 3.2 6.3 1 7
- 20.053837 12 6 tcp 83 ------- 7 4.2 6.4 1 8
- 20.05428 12 6 tcp 83 ------- 9 5.2 6.5 1 9
r 20.102952 12 6 tcp 83 ------- 1 1.2 6.1 1 5
+ 20.102952 6 12 tcp 83 ------- 10 6.6 0.1 1 10
- 20.102952 6 12 tcp 83 ------- 10 6.6 0.1 1 10
r 20.103394 12 6 tcp 83 ------- 3 2.2 6.2 1 6
r 20.103837 12 6 tcp 83 ------- 5 3.2 6.3 1 7
r 20.10428 12 6 tcp 83 ------- 7 4.2 6.4 1 8
r 20.104722 12 6 tcp 83 ------- 9 5.2 6.5 1 9
r 20.153394 6 12 tcp 83 ------- 10 6.6 0.1 1 10
+ 20.153394 12 1 tcp 83 ------- 10 6.6 0.1 1 10
- 20.153394 12 1 tcp 83 ------- 10 6.6 0.1 1 10
r 20.203837 12 1 tcp 83 ------- 10 6.6 0.1 1 10
+ 20.203837 1 0 tcp 83 ------- 10 6.6 0.1 1 10
- 20.203837 1 0 tcp 83 ------- 10 6.6 0.1 1 10
r 20.30428 1 0 tcp 83 ------- 10 6.6 0.1 1 10
+ 20.30428 0 1 tcp 1064 ------- 10 0.1 6.6 1 11
- 20.30428 0 1 tcp 1064 ------- 10 0.1 6.6 1 11
r 20.409954 0 1 tcp 1064 ------- 10 0.1 6.6 1 11
+ 20.409954 1 12 tcp 1064 ------- 10 0.1 6.6 1 11
- 20.409954 1 12 tcp 1064 ------- 10 0.1 6.6 1 11
r 20.465629 1 12 tcp 1064 ------- 10 0.1 6.6 1 11
+ 20.465629 12 6 tcp 1064 ------- 10 0.1 6.6 1 11
- 20.465629 12 6 tcp 1064 ------- 10 0.1 6.6 1 11
r 20.521304 12 6 tcp 1064 ------- 10 0.1 6.6 1 11
+ 20.521304 6 12 tcp 1064 ------- 1 6.1 1.2 1 12
- 20.521304 6 12 tcp 1064 ------- 1 6.1 1.2 1 12
+ 20.521304 6 12 tcp 1064 ------- 3 6.2 2.2 1 13
+ 20.521304 6 12 tcp 1064 ------- 5 6.3 3.2 1 14
+ 20.521304 6 12 tcp 1064 ------- 7 6.4 4.2 1 15
+ 20.521304 6 12 tcp 1064 ------- 9 6.5 5.2 1 16
- 20.526978 6 12 tcp 1064 ------- 3 6.2 2.2 1 13
- 20.532653 6 12 tcp 1064 ------- 5 6.3 3.2 1 14
- 20.538328 6 12 tcp 1064 ------- 7 6.4 4.2 1 15
- 20.544002 6 12 tcp 1064 ------- 9 6.5 5.2 1 16
r 20.576978 6 12 tcp 1064 ------- 1 6.1 1.2 1 12
+ 20.576978 12 1 tcp 1064 ------- 1 6.1 1.2 1 12
- 20.576978 12 1 tcp 1064 ------- 1 6.1 1.2 1 12
r 20.582653 6 12 tcp 1064 ------- 3 6.2 2.2 1 13
+ 20.582653 12 2 tcp 1064 ------- 3 6.2 2.2 1 13
- 20.582653 12 2 tcp 1064 ------- 3 6.2 2.2 1 13
r 20.588328 6 12 tcp 1064 ------- 5 6.3 3.2 1 14
+ 20.588328 12 3 tcp 1064 ------- 5 6.3 3.2 1 14
- 20.588328 12 3 tcp 1064 ------- 5 6.3 3.2 1 14
r 20.594002 6 12 tcp 1064 ------- 7 6.4 4.2 1 15
+ 20.594002 12 4 tcp 1064 ------- 7 6.4 4.2 1 15
- 20.594002 12 4 tcp 1064 ------- 7 6.4 4.2 1 15
r 20.599677 6 12 tcp 1064 ------- 9 6.5 5.2 1 16
+ 20.599677 12 5 tcp 1064 ------- 9 6.5 5.2 1 16
- 20.599677 12 5 tcp 1064 ------- 9 6.5 5.2 1 16
r 20.632653 12 1 tcp 1064 ------- 1 6.1 1.2 1 12
+ 20.632653 1 7 tcp 1064 ------- 0 1.1 7.1 1 17
- 20.632653 1 7 tcp 1064 ------- 0 1.1 7.1 1 17
r 20.635504 1 7 tcp 1064 ------- 0 1.1 7.1 1 17
+ 20.635504 7 1 tcp 83 ------- 0 7.1 1.1 2 18
- 20.635504 7 1 tcp 83 ------- 0 7.1 1.1 2 18
r 20.637571 7 1 tcp 83 ------- 0 7.1 1.1 2 18
+ 20.637571 1 12 tcp 83 ------- 1 1.2 6.1 2 19
- 20.637571 1 12 tcp 83 ------- 1 1.2 6.1 2 19
r 20.638328 12 2 tcp 1064 ------- 3 6.2 2.2 1 13
+ 20.638328 2 8 tcp 1064 ------- 2 2.1 8.1 1 20
- 20.638328 2 8 tcp 1064 ------- 2 2.1 8.1 1 20
r 20.641179 2 8 tcp 1064 ------- 2 2.1 8.1 1 20
+ 20.641179 8 2 tcp 83 ------- 2 8.1 2.1 2 21
- 20.641179 8 2 tcp 83 ------- 2 8.1 2.1 2 21
r 20.643245 8 2 tcp 83 ------- 2 8.1 2.1 2 21
+ 20.643245 2 12 tcp 83 ------- 3 2.2 6.2 2 22
- 20.643245 2 12 tcp 83 ------- 3 2.2 6.2 2 22
r 20.644002 12 3 tcp 1064 ------- 5 6.3 3.2 1 14
+ 20.644002 3 9 tcp 1064 ------- 4 3.1 9.1 1 23
- 20.644002 3 9 tcp 1064 ------- 4 3.1 9.1 1 23
r 20.646854 3 9 tcp 1064 ------- 4 3.1 9.1 1 23
+ 20.646854 9 3 tcp 83 ------- 4 9.1 3.1 2 24
- 20.646854 9 3 tcp 83 ------- 4 9.1 3.1 2 24
r 20.64892 9 3 tcp 83 ------- 4 9.1 3.1 2 24
+ 20.64892 3 12 tcp 83 ------- 5 3.2 6.3 2 25
- 20.64892 3 12 tcp 83 ------- 5 3.2 6.3 2 25
r 20.649677 12 4 tcp 1064 ------- 7 6.4 4.2 1 15
+ 20.649677 4 10 tcp 1064 ------- 6 4.1 10.1 1 26
- 20.649677 4 10 tcp 1064 ------- 6 4.1 10.1 1 26
r 20.652528 4 10 tcp 1064 ------- 6 4.1 10.1 1 26
+ 20.652528 10 4 tcp 83 ------- 6 10.1 4.1 2 27
- 20.652528 10 4 tcp 83 ------- 6 10.1 4.1 2 27
r 20.654595 10 4 tcp 83 ------- 6 10.1 4.1 2 27
+ 20.654595 4 12 tcp 83 ------- 7 4.2 6.4 2 28
- 20.654595 4 12 tcp 83 ------- 7 4.2 6.4 2 28
r 20.655352 12 5 tcp 1064 ------- 9 6.5 5.2 1 16
+ 20.655352 5 11 tcp 1064 ------- 8 5.1 11.1 1 29
- 20.655352 5 11 tcp 1064 ------- 8 5.1 11.1 1 29
r 20.658203 5 11 tcp 1064 ------- 8 5.1 11.1 1 29
+ 20.658203 11 5 tcp 83 ------- 8 11.1 5.1 2 30
- 20.658203 11 5 tcp 83 ------- 8 11.1 5.1 2 30
r 20.660269 11 5 tcp 83 ------- 8 11.1 5.1 2 30
+ 20.660269 5 12 tcp 83 ------- 9 5.2 6.5 2 31
- 20.660269 5 12 tcp 83 ------- 9 5.2 6.5 2 31
r 20.688013 1 12 tcp 83 ------- 1 1.2 6.1 2 19
+ 20.688013 12 6 tcp 83 ------- 1 1.2 6.1 2 19
- 20.688013 12 6 tcp 83 ------- 1 1.2 6.1 2 19
r 20.693688 2 12 tcp 83 ------- 3 2.2 6.2 2 22
+ 20.693688 12 6 tcp 83 ------- 3 2.2 6.2 2 22
- 20.693688 12 6 tcp 83 ------- 3 2.2 6.2 2 22
r 20.699363 3 12 tcp 83 ------- 5 3.2 6.3 2 25
+ 20.699363 12 6 tcp 83 ------- 5 3.2 6.3 2 25
- 20.699363 12 6 tcp 83 ------- 5 3.2 6.3 2 25
r 20.705037 4 12 tcp 83 ------- 7 4.2 6.4 2 28
+ 20.705037 12 6 tcp 83 ------- 7 4.2 6.4 2 28
- 20.705037 12 6 tcp 83 ------- 7 4.2 6.4 2 28
r 20.710712 5 12 tcp 83 ------- 9 5.2 6.5 2 31
+ 20.710712 12 6 tcp 83 ------- 9 5.2 6.5 2 31
- 20.710712 12 6 tcp 83 ------- 9 5.2 6.5 2 31
r 20.738456 12 6 tcp 83 ------- 1 1.2 6.1 2 19
+ 20.738456 6 12 tcp 83 ------- 10 6.6 0.1 2 32
- 20.738456 6 12 tcp 83 ------- 10 6.6 0.1 2 32
r 20.744131 12 6 tcp 83 ------- 3 2.2 6.2 2 22
r 20.749805 12 6 tcp 83 ------- 5 3.2 6.3 2 25
r 20.75548 12 6 tcp 83 ------- 7 4.2 6.4 2 28
r 20.761155 12 6 tcp 83 ------- 9 5.2 6.5 2 31
r 20.788899 6 12 tcp 83 ------- 10 6.6 0.1 2 32
+ 20.788899 12 1 tcp 83 ------- 10 6.6 0.1 2 32
- 20.788899 12 1 tcp 83 ------- 10 6.6 0.1 2 32
v 20.790064080000001 eval {set sim_annotation {S 0 INV _o435:0}}
r 20.839341 12 1 tcp 83 ------- 10 6.6 0.1 2 32
+ 20.839341 1 0 tcp 83 ------- 10 6.6 0.1 2 32
- 20.839341 1 0 tcp 83 ------- 10 6.6 0.1 2 32
r 20.939784 1 0 tcp 83 ------- 10 6.6 0.1 2 32
+ 20.939784 0 1 tcp 51240 ------- 10 0.1 6.6 2 33
- 20.939784 0 1 tcp 51240 ------- 10 0.1 6.6 2 33
r 21.313064 0 1 tcp 51240 ------- 10 0.1 6.6 2 33
+ 21.313064 1 12 tcp 51240 ------- 10 0.1 6.6 2 33
- 21.313064 1 12 tcp 51240 ------- 10 0.1 6.6 2 33
r 21.636344 1 12 tcp 51240 ------- 10 0.1 6.6 2 33
+ 21.636344 12 6 tcp 51240 ------- 10 0.1 6.6 2 33
- 21.636344 12 6 tcp 51240 ------- 10 0.1 6.6 2 33
r 21.959624 12 6 tcp 51240 ------- 10 0.1 6.6 2 33
+ 21.959624 6 12 tcp 51240 ------- 1 6.1 1.2 2 34
- 21.959624 6 12 tcp 51240 ------- 1 6.1 1.2 2 34
+ 21.959624 6 12 tcp 51240 ------- 3 6.2 2.2 2 35
+ 21.959624 6 12 tcp 51240 ------- 5 6.3 3.2 2 36
+ 21.959624 6 12 tcp 51240 ------- 7 6.4 4.2 2 37
+ 21.959624 6 12 tcp 51240 ------- 9 6.5 5.2 2 38
- 22.232904 6 12 tcp 51240 ------- 3 6.2 2.2 2 35
r 22.282904 6 12 tcp 51240 ------- 1 6.1 1.2 2 34
+ 22.282904 12 1 tcp 51240 ------- 1 6.1 1.2 2 34
- 22.282904 12 1 tcp 51240 ------- 1 6.1 1.2 2 34
- 22.506184 6 12 tcp 51240 ------- 5 6.3 3.2 2 36
r 22.556184 6 12 tcp 51240 ------- 3 6.2 2.2 2 35
+ 22.556184 12 2 tcp 51240 ------- 3 6.2 2.2 2 35
- 22.556184 12 2 tcp 51240 ------- 3 6.2 2.2 2 35
r 22.606184 12 1 tcp 51240 ------- 1 6.1 1.2 2 34
+ 22.606184 1 7 tcp 51240 ------- 0 1.1 7.1 2 39
- 22.606184 1 7 tcp 51240 ------- 0 1.1 7.1 2 39
r 22.649176 1 7 tcp 51240 ------- 0 1.1 7.1 2 39
- 22.779464 6 12 tcp 51240 ------- 7 6.4 4.2 2 37
r 22.829464 6 12 tcp 51240 ------- 5 6.3 3.2 2 36
+ 22.829464 12 3 tcp 51240 ------- 5 6.3 3.2 2 36
- 22.829464 12 3 tcp 51240 ------- 5 6.3 3.2 2 36
r 22.879464 12 2 tcp 51240 ------- 3 6.2 2.2 2 35
+ 22.879464 2 8 tcp 51240 ------- 2 2.1 8.1 2 40
- 22.879464 2 8 tcp 51240 ------- 2 2.1 8.1 2 40
r 22.922456 2 8 tcp 51240 ------- 2 2.1 8.1 2 40
- 23.052744 6 12 tcp 51240 ------- 9 6.5 5.2 2 38
r 23.102744 6 12 tcp 51240 ------- 7 6.4 4.2 2 37
+ 23.102744 12 4 tcp 51240 ------- 7 6.4 4.2 2 37
- 23.102744 12 4 tcp 51240 ------- 7 6.4 4.2 2 37
r 23.152744 12 3 tcp 51240 ------- 5 6.3 3.2 2 36
+ 23.152744 3 9 tcp 51240 ------- 4 3.1 9.1 2 41
- 23.152744 3 9 tcp 51240 ------- 4 3.1 9.1 2 41
r 23.195736 3 9 tcp 51240 ------- 4 3.1 9.1 2 41
v 23.215554350000001 eval {set sim_annotation {S 0 INV _o435:0}}
r 23.376024 6 12 tcp 51240 ------- 9 6.5 5.2 2 38
+ 23.376024 12 5 tcp 51240 ------- 9 6.5 5.2 2 38
- 23.376024 12 5 tcp 51240 ------- 9 6.5 5.2 2 38
r 23.426024 12 4 tcp 51240 ------- 7 6.4 4.2 2 37
+ 23.426024 4 10 tcp 51240 ------- 6 4.1 10.1 2 42
- 23.426024 4 10 tcp 51240 ------- 6 4.1 10.1 2 42
r 23.469016 4 10 tcp 51240 ------- 6 4.1 10.1 2 42
r 23.699304 12 5 tcp 51240 ------- 9 6.5 5.2 2 38
+ 23.699304 5 11 tcp 51240 ------- 8 5.1 11.1 2 43
- 23.699304 5 11 tcp 51240 ------- 8 5.1 11.1 2 43
r 23.742296 5 11 tcp 51240 ------- 8 5.1 11.1 2 43
v 29.11838479 eval {set sim_annotation {S 0 INV _o435:0}}
+ 31.291471 7 1 tcp 83 ------- 0 7.1 1.1 3 44
- 31.291471 7 1 tcp 83 ------- 0 7.1 1.1 3 44
r 31.293537 7 1 tcp 83 ------- 0 7.1 1.1 3 44
+ 31.293537 1 12 tcp 90 ------- 1 1.2 6.1 3 45
- 31.293537 1 12 tcp 90 ------- 1 1.2 6.1 3 45
r 31.344017 1 12 tcp 90 ------- 1 1.2 6.1 3 45
+ 31.344017 12 6 tcp 90 ------- 1 1.2 6.1 3 45
- 31.344017 12 6 tcp 90 ------- 1 1.2 6.1 3 45
r 31.394497 12 6 tcp 90 ------- 1 1.2 6.1 3 45
+ 31.394497 6 12 tcp 90 ------- 10 6.6 0.1 3 46
- 31.394497 6 12 tcp 90 ------- 10 6.6 0.1 3 46
r 31.444977 6 12 tcp 90 ------- 10 6.6 0.1 3 46
+ 31.444977 12 1 tcp 90 ------- 10 6.6 0.1 3 46
- 31.444977 12 1 tcp 90 ------- 10 6.6 0.1 3 46
r 31.495457 12 1 tcp 90 ------- 10 6.6 0.1 3 46
+ 31.495457 1 0 tcp 90 ------- 10 6.6 0.1 3 46
- 31.495457 1 0 tcp 90 ------- 10 6.6 0.1 3 46
r 31.595937 1 0 tcp 90 ------- 10 6.6 0.1 3 46
+ 31.595937 0 1 tcp 1064 ------- 10 0.1 6.6 3 47
- 31.595937 0 1 tcp 1064 ------- 10 0.1 6.6 3 47
r 31.701612 0 1 tcp 1064 ------- 10 0.1 6.6 3 47
+ 31.701612 1 12 tcp 1064 ------- 10 0.1 6.6 3 47
- 31.701612 1 12 tcp 1064 ------- 10 0.1 6.6 3 47
r 31.757286 1 12 tcp 1064 ------- 10 0.1 6.6 3 47
+ 31.757286 12 6 tcp 1064 ------- 10 0.1 6.6 3 47
- 31.757286 12 6 tcp 1064 ------- 10 0.1 6.6 3 47
r 31.812961 12 6 tcp 1064 ------- 10 0.1 6.6 3 47
+ 31.812961 6 12 tcp 1064 ------- 1 6.1 1.2 3 48
- 31.812961 6 12 tcp 1064 ------- 1 6.1 1.2 3 48
r 31.868636 6 12 tcp 1064 ------- 1 6.1 1.2 3 48
+ 31.868636 12 1 tcp 1064 ------- 1 6.1 1.2 3 48
- 31.868636 12 1 tcp 1064 ------- 1 6.1 1.2 3 48
r 31.92431 12 1 tcp 1064 ------- 1 6.1 1.2 3 48
+ 31.92431 1 7 tcp 1064 ------- 0 1.1 7.1 3 49
- 31.92431 1 7 tcp 1064 ------- 0 1.1 7.1 3 49
r 31.927162 1 7 tcp 1064 ------- 0 1.1 7.1 3 49
+ 31.927162 7 1 tcp 83 ------- 0 7.1 1.1 4 50
- 31.927162 7 1 tcp 83 ------- 0 7.1 1.1 4 50
r 31.929228 7 1 tcp 83 ------- 0 7.1 1.1 4 50
+ 31.929228 1 7 tcp 51240 ------- 0 1.1 7.1 4 51
- 31.929228 1 7 tcp 51240 ------- 0 1.1 7.1 4 51
r 31.97222 1 7 tcp 51240 ------- 0 1.1 7.1 4 51
+ 32.455294 8 2 tcp 83 ------- 2 8.1 2.1 3 52
- 32.455294 8 2 tcp 83 ------- 2 8.1 2.1 3 52
r 32.45736 8 2 tcp 83 ------- 2 8.1 2.1 3 52
+ 32.45736 2 12 tcp 90 ------- 3 2.2 6.2 3 53
- 32.45736 2 12 tcp 90 ------- 3 2.2 6.2 3 53
r 32.50784 2 12 tcp 90 ------- 3 2.2 6.2 3 53
+ 32.50784 12 6 tcp 90 ------- 3 2.2 6.2 3 53
- 32.50784 12 6 tcp 90 ------- 3 2.2 6.2 3 53
r 32.55832 12 6 tcp 90 ------- 3 2.2 6.2 3 53
+ 32.55832 6 12 tcp 1064 ------- 3 6.2 2.2 3 54
- 32.55832 6 12 tcp 1064 ------- 3 6.2 2.2 3 54
r 32.613995 6 12 tcp 1064 ------- 3 6.2 2.2 3 54
+ 32.613995 12 2 tcp 1064 ------- 3 6.2 2.2 3 54
- 32.613995 12 2 tcp 1064 ------- 3 6.2 2.2 3 54
r 32.66967 12 2 tcp 1064 ------- 3 6.2 2.2 3 54
+ 32.66967 2 8 tcp 1064 ------- 2 2.1 8.1 3 55
- 32.66967 2 8 tcp 1064 ------- 2 2.1 8.1 3 55
r 32.672521 2 8 tcp 1064 ------- 2 2.1 8.1 3 55
+ 32.672521 8 2 tcp 83 ------- 2 8.1 2.1 4 56
- 32.672521 8 2 tcp 83 ------- 2 8.1 2.1 4 56
r 32.674587 8 2 tcp 83 ------- 2 8.1 2.1 4 56
+ 32.674587 2 8 tcp 51240 ------- 2 2.1 8.1 4 57
- 32.674587 2 8 tcp 51240 ------- 2 2.1 8.1 4 57
r 32.717579 2 8 tcp 51240 ------- 2 2.1 8.1 4 57
+ 33.473326 11 5 tcp 83 ------- 8 11.1 5.1 3 58
- 33.473326 11 5 tcp 83 ------- 8 11.1 5.1 3 58
r 33.475392 11 5 tcp 83 ------- 8 11.1 5.1 3 58
+ 33.475392 5 12 tcp 90 ------- 9 5.2 6.5 3 59
- 33.475392 5 12 tcp 90 ------- 9 5.2 6.5 3 59
r 33.525872 5 12 tcp 90 ------- 9 5.2 6.5 3 59
+ 33.525872 12 6 tcp 90 ------- 9 5.2 6.5 3 59
- 33.525872 12 6 tcp 90 ------- 9 5.2 6.5 3 59
r 33.576352 12 6 tcp 90 ------- 9 5.2 6.5 3 59
+ 33.576352 6 12 tcp 1064 ------- 9 6.5 5.2 3 60
- 33.576352 6 12 tcp 1064 ------- 9 6.5 5.2 3 60
r 33.632027 6 12 tcp 1064 ------- 9 6.5 5.2 3 60
+ 33.632027 12 5 tcp 1064 ------- 9 6.5 5.2 3 60
- 33.632027 12 5 tcp 1064 ------- 9 6.5 5.2 3 60
r 33.687702 12 5 tcp 1064 ------- 9 6.5 5.2 3 60
+ 33.687702 5 11 tcp 1064 ------- 8 5.1 11.1 3 61
- 33.687702 5 11 tcp 1064 ------- 8 5.1 11.1 3 61
r 33.690553 5 11 tcp 1064 ------- 8 5.1 11.1 3 61
+ 33.690553 11 5 tcp 83 ------- 8 11.1 5.1 4 62
- 33.690553 11 5 tcp 83 ------- 8 11.1 5.1 4 62
r 33.692619 11 5 tcp 83 ------- 8 11.1 5.1 4 62
+ 33.692619 5 11 tcp 51240 ------- 8 5.1 11.1 4 63
- 33.692619 5 11 tcp 51240 ------- 8 5.1 11.1 4 63
r 33.735611 5 11 tcp 51240 ------- 8 5.1 11.1 4 63
+ 34.541698 9 3 tcp 83 ------- 4 9.1 3.1 3 64
- 34.541698 9 3 tcp 83 ------- 4 9.1 3.1 3 64
r 34.543764 9 3 tcp 83 ------- 4 9.1 3.1 3 64
+ 34.543764 3 12 tcp 90 ------- 5 3.2 6.3 3 65
- 34.543764 3 12 tcp 90 ------- 5 3.2 6.3 3 65
r 34.594244 3 12 tcp 90 ------- 5 3.2 6.3 3 65
+ 34.594244 12 6 tcp 90 ------- 5 3.2 6.3 3 65
- 34.594244 12 6 tcp 90 ------- 5 3.2 6.3 3 65
r 34.644724 12 6 tcp 90 ------- 5 3.2 6.3 3 65
+ 34.644724 6 12 tcp 1064 ------- 5 6.3 3.2 3 66
- 34.644724 6 12 tcp 1064 ------- 5 6.3 3.2 3 66
r 34.700399 6 12 tcp 1064 ------- 5 6.3 3.2 3 66
+ 34.700399 12 3 tcp 1064 ------- 5 6.3 3.2 3 66
- 34.700399 12 3 tcp 1064 ------- 5 6.3 3.2 3 66
r 34.756074 12 3 tcp 1064 ------- 5 6.3 3.2 3 66
+ 34.756074 3 9 tcp 1064 ------- 4 3.1 9.1 3 67
- 34.756074 3 9 tcp 1064 ------- 4 3.1 9.1 3 67
r 34.758925 3 9 tcp 1064 ------- 4 3.1 9.1 3 67
+ 34.758925 9 3 tcp 83 ------- 4 9.1 3.1 4 68
- 34.758925 9 3 tcp 83 ------- 4 9.1 3.1 4 68
r 34.760991 9 3 tcp 83 ------- 4 9.1 3.1 4 68
+ 34.760991 3 9 tcp 51240 ------- 4 3.1 9.1 4 69
- 34.760991 3 9 tcp 51240 ------- 4 3.1 9.1 4 69
r 34.803983 3 9 tcp 51240 ------- 4 3.1 9.1 4 69
+ 35.818857 8 2 tcp 83 ------- 2 8.1 2.1 5 70
- 35.818857 8 2 tcp 83 ------- 2 8.1 2.1 5 70
r 35.820923 8 2 tcp 83 ------- 2 8.1 2.1 5 70
+ 35.820923 2 8 tcp 1064 ------- 2 2.1 8.1 5 71
- 35.820923 2 8 tcp 1064 ------- 2 2.1 8.1 5 71
r 35.823775 2 8 tcp 1064 ------- 2 2.1 8.1 5 71
+ 35.823775 8 2 tcp 83 ------- 2 8.1 2.1 6 72
- 35.823775 8 2 tcp 83 ------- 2 8.1 2.1 6 72
r 35.825841 8 2 tcp 83 ------- 2 8.1 2.1 6 72
+ 35.825841 2 8 tcp 51240 ------- 2 2.1 8.1 6 73
- 35.825841 2 8 tcp 51240 ------- 2 2.1 8.1 6 73
r 35.868833 2 8 tcp 51240 ------- 2 2.1 8.1 6 73
+ 39.594716 8 2 tcp 83 ------- 2 8.1 2.1 7 74
- 39.594716 8 2 tcp 83 ------- 2 8.1 2.1 7 74
r 39.596782 8 2 tcp 83 ------- 2 8.1 2.1 7 74
+ 39.596782 2 8 tcp 1064 ------- 2 2.1 8.1 7 75
- 39.596782 2 8 tcp 1064 ------- 2 2.1 8.1 7 75
r 39.599634 2 8 tcp 1064 ------- 2 2.1 8.1 7 75
+ 39.599634 8 2 tcp 83 ------- 2 8.1 2.1 8 76
- 39.599634 8 2 tcp 83 ------- 2 8.1 2.1 8 76
r 39.6017 8 2 tcp 83 ------- 2 8.1 2.1 8 76
+ 39.6017 2 8 tcp 51240 ------- 2 2.1 8.1 8 77
- 39.6017 2 8 tcp 51240 ------- 2 2.1 8.1 8 77
r 39.644692 2 8 tcp 51240 ------- 2 2.1 8.1 8 77
+ 42.039988 8 2 tcp 83 ------- 2 8.1 2.1 9 78
- 42.039988 8 2 tcp 83 ------- 2 8.1 2.1 9 78
r 42.042054 8 2 tcp 83 ------- 2 8.1 2.1 9 78
+ 42.042054 2 8 tcp 1064 ------- 2 2.1 8.1 9 79
- 42.042054 2 8 tcp 1064 ------- 2 2.1 8.1 9 79
r 42.044906 2 8 tcp 1064 ------- 2 2.1 8.1 9 79
+ 42.044906 8 2 tcp 83 ------- 2 8.1 2.1 10 80
- 42.044906 8 2 tcp 83 ------- 2 8.1 2.1 10 80
r 42.046972 8 2 tcp 83 ------- 2 8.1 2.1 10 80
+ 42.046972 2 8 tcp 51240 ------- 2 2.1 8.1 10 81
- 42.046972 2 8 tcp 51240 ------- 2 2.1 8.1 10 81
r 42.089964 2 8 tcp 51240 ------- 2 2.1 8.1 10 81
+ 42.246471 7 1 tcp 83 ------- 0 7.1 1.1 5 82
- 42.246471 7 1 tcp 83 ------- 0 7.1 1.1 5 82
r 42.248537 7 1 tcp 83 ------- 0 7.1 1.1 5 82
+ 42.248537 1 7 tcp 1064 ------- 0 1.1 7.1 5 83
- 42.248537 1 7 tcp 1064 ------- 0 1.1 7.1 5 83
r 42.251388 1 7 tcp 1064 ------- 0 1.1 7.1 5 83
+ 42.251388 7 1 tcp 83 ------- 0 7.1 1.1 6 84
- 42.251388 7 1 tcp 83 ------- 0 7.1 1.1 6 84
r 42.253455 7 1 tcp 83 ------- 0 7.1 1.1 6 84
+ 42.253455 1 7 tcp 51240 ------- 0 1.1 7.1 6 85
- 42.253455 1 7 tcp 51240 ------- 0 1.1 7.1 6 85
r 42.296447 1 7 tcp 51240 ------- 0 1.1 7.1 6 85
+ 42.952626 9 3 tcp 83 ------- 4 9.1 3.1 5 86
- 42.952626 9 3 tcp 83 ------- 4 9.1 3.1 5 86
r 42.954692 9 3 tcp 83 ------- 4 9.1 3.1 5 86
+ 42.954692 3 9 tcp 1064 ------- 4 3.1 9.1 5 87
- 42.954692 3 9 tcp 1064 ------- 4 3.1 9.1 5 87
r 42.957544 3 9 tcp 1064 ------- 4 3.1 9.1 5 87
+ 42.957544 9 3 tcp 83 ------- 4 9.1 3.1 6 88
- 42.957544 9 3 tcp 83 ------- 4 9.1 3.1 6 88
r 42.95961 9 3 tcp 83 ------- 4 9.1 3.1 6 88
+ 42.95961 3 9 tcp 51240 ------- 4 3.1 9.1 6 89
- 42.95961 3 9 tcp 51240 ------- 4 3.1 9.1 6 89
r 43.002602 3 9 tcp 51240 ------- 4 3.1 9.1 6 89
+ 44.425318 9 3 tcp 83 ------- 4 9.1 3.1 7 90
- 44.425318 9 3 tcp 83 ------- 4 9.1 3.1 7 90
r 44.427384 9 3 tcp 83 ------- 4 9.1 3.1 7 90
+ 44.427384 3 9 tcp 1064 ------- 4 3.1 9.1 7 91
- 44.427384 3 9 tcp 1064 ------- 4 3.1 9.1 7 91
r 44.430236 3 9 tcp 1064 ------- 4 3.1 9.1 7 91
+ 44.430236 9 3 tcp 83 ------- 4 9.1 3.1 8 92
- 44.430236 9 3 tcp 83 ------- 4 9.1 3.1 8 92
r 44.432302 9 3 tcp 83 ------- 4 9.1 3.1 8 92
+ 44.432302 3 9 tcp 51240 ------- 4 3.1 9.1 8 93
- 44.432302 3 9 tcp 51240 ------- 4 3.1 9.1 8 93
r 44.475294 3 9 tcp 51240 ------- 4 3.1 9.1 8 93
+ 46.318036 9 3 tcp 83 ------- 4 9.1 3.1 9 94
- 46.318036 9 3 tcp 83 ------- 4 9.1 3.1 9 94
r 46.320102 9 3 tcp 83 ------- 4 9.1 3.1 9 94
+ 46.320102 3 9 tcp 1064 ------- 4 3.1 9.1 9 95
- 46.320102 3 9 tcp 1064 ------- 4 3.1 9.1 9 95
r 46.322954 3 9 tcp 1064 ------- 4 3.1 9.1 9 95
+ 46.322954 9 3 tcp 83 ------- 4 9.1 3.1 10 96
- 46.322954 9 3 tcp 83 ------- 4 9.1 3.1 10 96
r 46.32502 9 3 tcp 83 ------- 4 9.1 3.1 10 96
+ 46.32502 3 9 tcp 51240 ------- 4 3.1 9.1 10 97
- 46.32502 3 9 tcp 51240 ------- 4 3.1 9.1 10 97
r 46.368012 3 9 tcp 51240 ------- 4 3.1 9.1 10 97
+ 47.470562 9 3 tcp 83 ------- 4 9.1 3.1 11 98
- 47.470562 9 3 tcp 83 ------- 4 9.1 3.1 11 98
r 47.472628 9 3 tcp 83 ------- 4 9.1 3.1 11 98
+ 47.472628 3 9 tcp 1064 ------- 4 3.1 9.1 11 99
- 47.472628 3 9 tcp 1064 ------- 4 3.1 9.1 11 99
r 47.47548 3 9 tcp 1064 ------- 4 3.1 9.1 11 99
+ 47.47548 9 3 tcp 83 ------- 4 9.1 3.1 12 100
- 47.47548 9 3 tcp 83 ------- 4 9.1 3.1 12 100
r 47.477546 9 3 tcp 83 ------- 4 9.1 3.1 12 100
+ 47.477546 3 9 tcp 51240 ------- 4 3.1 9.1 12 101
- 47.477546 3 9 tcp 51240 ------- 4 3.1 9.1 12 101
r 47.520538 3 9 tcp 51240 ------- 4 3.1 9.1 12 101
+ 47.684901 8 2 tcp 83 ------- 2 8.1 2.1 11 102
- 47.684901 8 2 tcp 83 ------- 2 8.1 2.1 11 102
r 47.686967 8 2 tcp 83 ------- 2 8.1 2.1 11 102
+ 47.686967 2 8 tcp 1064 ------- 2 2.1 8.1 11 103
- 47.686967 2 8 tcp 1064 ------- 2 2.1 8.1 11 103
r 47.689819 2 8 tcp 1064 ------- 2 2.1 8.1 11 103
+ 47.689819 8 2 tcp 83 ------- 2 8.1 2.1 12 104
- 47.689819 8 2 tcp 83 ------- 2 8.1 2.1 12 104
r 47.691885 8 2 tcp 83 ------- 2 8.1 2.1 12 104
+ 47.691885 2 8 tcp 51240 ------- 2 2.1 8.1 12 105
- 47.691885 2 8 tcp 51240 ------- 2 2.1 8.1 12 105
r 47.734877 2 8 tcp 51240 ------- 2 2.1 8.1 12 105
+ 48.837533 9 3 tcp 83 ------- 4 9.1 3.1 13 106
- 48.837533 9 3 tcp 83 ------- 4 9.1 3.1 13 106
r 48.839599 9 3 tcp 83 ------- 4 9.1 3.1 13 106
+ 48.839599 3 9 tcp 1064 ------- 4 3.1 9.1 13 107
- 48.839599 3 9 tcp 1064 ------- 4 3.1 9.1 13 107
r 48.842451 3 9 tcp 1064 ------- 4 3.1 9.1 13 107
+ 48.842451 9 3 tcp 83 ------- 4 9.1 3.1 14 108
- 48.842451 9 3 tcp 83 ------- 4 9.1 3.1 14 108
r 48.844517 9 3 tcp 83 ------- 4 9.1 3.1 14 108
+ 48.844517 3 9 tcp 51240 ------- 4 3.1 9.1 14 109
- 48.844517 3 9 tcp 51240 ------- 4 3.1 9.1 14 109
r 48.887509 3 9 tcp 51240 ------- 4 3.1 9.1 14 109
+ 50.091307 7 1 tcp 83 ------- 0 7.1 1.1 7 110
- 50.091307 7 1 tcp 83 ------- 0 7.1 1.1 7 110
r 50.093373 7 1 tcp 83 ------- 0 7.1 1.1 7 110
+ 50.093373 1 7 tcp 1064 ------- 0 1.1 7.1 7 111
- 50.093373 1 7 tcp 1064 ------- 0 1.1 7.1 7 111
r 50.096224 1 7 tcp 1064 ------- 0 1.1 7.1 7 111
+ 50.096224 7 1 tcp 83 ------- 0 7.1 1.1 8 112
- 50.096224 7 1 tcp 83 ------- 0 7.1 1.1 8 112
r 50.098291 7 1 tcp 83 ------- 0 7.1 1.1 8 112
+ 50.098291 1 7 tcp 51240 ------- 0 1.1 7.1 8 113
- 50.098291 1 7 tcp 51240 ------- 0 1.1 7.1 8 113
r 50.141283 1 7 tcp 51240 ------- 0 1.1 7.1 8 113
+ 52.210855 9 3 tcp 83 ------- 4 9.1 3.1 15 114
- 52.210855 9 3 tcp 83 ------- 4 9.1 3.1 15 114
r 52.212921 9 3 tcp 83 ------- 4 9.1 3.1 15 114
+ 52.212921 3 9 tcp 1064 ------- 4 3.1 9.1 15 115
- 52.212921 3 9 tcp 1064 ------- 4 3.1 9.1 15 115
r 52.215773 3 9 tcp 1064 ------- 4 3.1 9.1 15 115
+ 52.215773 9 3 tcp 83 ------- 4 9.1 3.1 16 116
- 52.215773 9 3 tcp 83 ------- 4 9.1 3.1 16 116
r 52.217839 9 3 tcp 83 ------- 4 9.1 3.1 16 116
+ 52.217839 3 9 tcp 51240 ------- 4 3.1 9.1 16 117
- 52.217839 3 9 tcp 51240 ------- 4 3.1 9.1 16 117
r 52.260831 3 9 tcp 51240 ------- 4 3.1 9.1 16 117
+ 52.327628 7 1 tcp 83 ------- 0 7.1 1.1 9 118
- 52.327628 7 1 tcp 83 ------- 0 7.1 1.1 9 118
r 52.329694 7 1 tcp 83 ------- 0 7.1 1.1 9 118
+ 52.329694 1 7 tcp 1064 ------- 0 1.1 7.1 9 119
- 52.329694 1 7 tcp 1064 ------- 0 1.1 7.1 9 119
r 52.332545 1 7 tcp 1064 ------- 0 1.1 7.1 9 119
+ 52.332545 7 1 tcp 83 ------- 0 7.1 1.1 10 120
- 52.332545 7 1 tcp 83 ------- 0 7.1 1.1 10 120
r 52.334612 7 1 tcp 83 ------- 0 7.1 1.1 10 120
+ 52.334612 1 7 tcp 51240 ------- 0 1.1 7.1 10 121
- 52.334612 1 7 tcp 51240 ------- 0 1.1 7.1 10 121
r 52.377604 1 7 tcp 51240 ------- 0 1.1 7.1 10 121
+ 53.32416 10 4 tcp 83 ------- 6 10.1 4.1 3 122
- 53.32416 10 4 tcp 83 ------- 6 10.1 4.1 3 122
r 53.326226 10 4 tcp 83 ------- 6 10.1 4.1 3 122
+ 53.326226 4 12 tcp 90 ------- 7 4.2 6.4 3 123
- 53.326226 4 12 tcp 90 ------- 7 4.2 6.4 3 123
r 53.376706 4 12 tcp 90 ------- 7 4.2 6.4 3 123
+ 53.376706 12 6 tcp 90 ------- 7 4.2 6.4 3 123
- 53.376706 12 6 tcp 90 ------- 7 4.2 6.4 3 123
r 53.427186 12 6 tcp 90 ------- 7 4.2 6.4 3 123
+ 53.427186 6 12 tcp 1064 ------- 7 6.4 4.2 3 124
- 53.427186 6 12 tcp 1064 ------- 7 6.4 4.2 3 124
r 53.482861 6 12 tcp 1064 ------- 7 6.4 4.2 3 124
+ 53.482861 12 4 tcp 1064 ------- 7 6.4 4.2 3 124
- 53.482861 12 4 tcp 1064 ------- 7 6.4 4.2 3 124
r 53.538536 12 4 tcp 1064 ------- 7 6.4 4.2 3 124
+ 53.538536 4 10 tcp 1064 ------- 6 4.1 10.1 3 125
- 53.538536 4 10 tcp 1064 ------- 6 4.1 10.1 3 125
r 53.541387 4 10 tcp 1064 ------- 6 4.1 10.1 3 125
+ 53.541387 10 4 tcp 83 ------- 6 10.1 4.1 4 126
- 53.541387 10 4 tcp 83 ------- 6 10.1 4.1 4 126
r 53.543453 10 4 tcp 83 ------- 6 10.1 4.1 4 126
+ 53.543453 4 10 tcp 51240 ------- 6 4.1 10.1 4 127
- 53.543453 4 10 tcp 51240 ------- 6 4.1 10.1 4 127
r 53.586445 4 10 tcp 51240 ------- 6 4.1 10.1 4 127
+ 53.608256 11 5 tcp 83 ------- 8 11.1 5.1 5 128
- 53.608256 11 5 tcp 83 ------- 8 11.1 5.1 5 128
r 53.610322 11 5 tcp 83 ------- 8 11.1 5.1 5 128
+ 53.610322 5 11 tcp 1064 ------- 8 5.1 11.1 5 129
- 53.610322 5 11 tcp 1064 ------- 8 5.1 11.1 5 129
r 53.613174 5 11 tcp 1064 ------- 8 5.1 11.1 5 129
+ 53.613174 11 5 tcp 83 ------- 8 11.1 5.1 6 130
- 53.613174 11 5 tcp 83 ------- 8 11.1 5.1 6 130
r 53.61524 11 5 tcp 83 ------- 8 11.1 5.1 6 130
+ 53.61524 5 11 tcp 51240 ------- 8 5.1 11.1 6 131
- 53.61524 5 11 tcp 51240 ------- 8 5.1 11.1 6 131
r 53.658232 5 11 tcp 51240 ------- 8 5.1 11.1 6 131
+ 54.449476 10 4 tcp 83 ------- 6 10.1 4.1 5 132
- 54.449476 10 4 tcp 83 ------- 6 10.1 4.1 5 132
r 54.451542 10 4 tcp 83 ------- 6 10.1 4.1 5 132
+ 54.451542 4 10 tcp 1064 ------- 6 4.1 10.1 5 133
- 54.451542 4 10 tcp 1064 ------- 6 4.1 10.1 5 133
r 54.454394 4 10 tcp 1064 ------- 6 4.1 10.1 5 133
+ 54.454394 10 4 tcp 83 ------- 6 10.1 4.1 6 134
- 54.454394 10 4 tcp 83 ------- 6 10.1 4.1 6 134
r 54.45646 10 4 tcp 83 ------- 6 10.1 4.1 6 134
+ 54.45646 4 10 tcp 51240 ------- 6 4.1 10.1 6 135
- 54.45646 4 10 tcp 51240 ------- 6 4.1 10.1 6 135
r 54.499452 4 10 tcp 51240 ------- 6 4.1 10.1 6 135
+ 54.618395 9 3 tcp 83 ------- 4 9.1 3.1 17 136
- 54.618395 9 3 tcp 83 ------- 4 9.1 3.1 17 136
r 54.620461 9 3 tcp 83 ------- 4 9.1 3.1 17 136
+ 54.620461 3 9 tcp 1064 ------- 4 3.1 9.1 17 137
- 54.620461 3 9 tcp 1064 ------- 4 3.1 9.1 17 137
r 54.623313 3 9 tcp 1064 ------- 4 3.1 9.1 17 137
+ 54.623313 9 3 tcp 83 ------- 4 9.1 3.1 18 138
- 54.623313 9 3 tcp 83 ------- 4 9.1 3.1 18 138
r 54.625379 9 3 tcp 83 ------- 4 9.1 3.1 18 138
+ 54.625379 3 9 tcp 51240 ------- 4 3.1 9.1 18 139
- 54.625379 3 9 tcp 51240 ------- 4 3.1 9.1 18 139
r 54.668371 3 9 tcp 51240 ------- 4 3.1 9.1 18 139
+ 56.591787 9 3 tcp 83 ------- 4 9.1 3.1 19 140
- 56.591787 9 3 tcp 83 ------- 4 9.1 3.1 19 140
r 56.593853 9 3 tcp 83 ------- 4 9.1 3.1 19 140
+ 56.593853 3 9 tcp 1064 ------- 4 3.1 9.1 19 141
- 56.593853 3 9 tcp 1064 ------- 4 3.1 9.1 19 141
r 56.596705 3 9 tcp 1064 ------- 4 3.1 9.1 19 141
+ 56.596705 9 3 tcp 83 ------- 4 9.1 3.1 20 142
- 56.596705 9 3 tcp 83 ------- 4 9.1 3.1 20 142
r 56.598771 9 3 tcp 83 ------- 4 9.1 3.1 20 142
+ 56.598771 3 9 tcp 51240 ------- 4 3.1 9.1 20 143
- 56.598771 3 9 tcp 51240 ------- 4 3.1 9.1 20 143
r 56.641763 3 9 tcp 51240 ------- 4 3.1 9.1 20 143
+ 57.368325 11 5 tcp 83 ------- 8 11.1 5.1 7 144
- 57.368325 11 5 tcp 83 ------- 8 11.1 5.1 7 144
r 57.370391 11 5 tcp 83 ------- 8 11.1 5.1 7 144
+ 57.370391 5 11 tcp 1064 ------- 8 5.1 11.1 7 145
- 57.370391 5 11 tcp 1064 ------- 8 5.1 11.1 7 145
r 57.373243 5 11 tcp 1064 ------- 8 5.1 11.1 7 145
+ 57.373243 11 5 tcp 83 ------- 8 11.1 5.1 8 146
- 57.373243 11 5 tcp 83 ------- 8 11.1 5.1 8 146
r 57.375309 11 5 tcp 83 ------- 8 11.1 5.1 8 146
+ 57.375309 5 11 tcp 51240 ------- 8 5.1 11.1 8 147
- 57.375309 5 11 tcp 51240 ------- 8 5.1 11.1 8 147
r 57.418301 5 11 tcp 51240 ------- 8 5.1 11.1 8 147
+ 61.985405 10 4 tcp 83 ------- 6 10.1 4.1 7 148
- 61.985405 10 4 tcp 83 ------- 6 10.1 4.1 7 148
r 61.987471 10 4 tcp 83 ------- 6 10.1 4.1 7 148
+ 61.987471 4 10 tcp 1064 ------- 6 4.1 10.1 7 149
- 61.987471 4 10 tcp 1064 ------- 6 4.1 10.1 7 149
r 61.990323 4 10 tcp 1064 ------- 6 4.1 10.1 7 149
+ 61.990323 10 4 tcp 83 ------- 6 10.1 4.1 8 150
- 61.990323 10 4 tcp 83 ------- 6 10.1 4.1 8 150
r 61.992389 10 4 tcp 83 ------- 6 10.1 4.1 8 150
+ 61.992389 4 10 tcp 51240 ------- 6 4.1 10.1 8 151
- 61.992389 4 10 tcp 51240 ------- 6 4.1 10.1 8 151
r 62.035381 4 10 tcp 51240 ------- 6 4.1 10.1 8 151
+ 63.893306 11 5 tcp 83 ------- 8 11.1 5.1 9 152
- 63.893306 11 5 tcp 83 ------- 8 11.1 5.1 9 152
r 63.895372 11 5 tcp 83 ------- 8 11.1 5.1 9 152
+ 63.895372 5 11 tcp 1064 ------- 8 5.1 11.1 9 153
- 63.895372 5 11 tcp 1064 ------- 8 5.1 11.1 9 153
r 63.898224 5 11 tcp 1064 ------- 8 5.1 11.1 9 153
+ 63.898224 11 5 tcp 83 ------- 8 11.1 5.1 10 154
- 63.898224 11 5 tcp 83 ------- 8 11.1 5.1 10 154
r 63.90029 11 5 tcp 83 ------- 8 11.1 5.1 10 154
+ 63.90029 5 11 tcp 51240 ------- 8 5.1 11.1 10 155
- 63.90029 5 11 tcp 51240 ------- 8 5.1 11.1 10 155
r 63.943282 5 11 tcp 51240 ------- 8 5.1 11.1 10 155
+ 64.476318 11 5 tcp 83 ------- 8 11.1 5.1 11 156
- 64.476318 11 5 tcp 83 ------- 8 11.1 5.1 11 156
r 64.478384 11 5 tcp 83 ------- 8 11.1 5.1 11 156
+ 64.478384 5 11 tcp 1064 ------- 8 5.1 11.1 11 157
- 64.478384 5 11 tcp 1064 ------- 8 5.1 11.1 11 157
r 64.481236 5 11 tcp 1064 ------- 8 5.1 11.1 11 157
+ 64.481236 11 5 tcp 83 ------- 8 11.1 5.1 12 158
- 64.481236 11 5 tcp 83 ------- 8 11.1 5.1 12 158
r 64.483302 11 5 tcp 83 ------- 8 11.1 5.1 12 158
+ 64.483302 5 11 tcp 51240 ------- 8 5.1 11.1 12 159
- 64.483302 5 11 tcp 51240 ------- 8 5.1 11.1 12 159