# TESTNAME: mttl-PB
# TOPOLOGY: BottleNeck
# avg-comp-page-age: 40000
# avg-page-age: 10
# avg-page-size: 1024
# avg-req-interval: 6
# client-req-size: 43
# comp-page-size: 51200
# duration: 200
# enable-log: 0
# hb-interval: 6
# max-page-age: 70
# max-page-size: 50000
# max-req-interval: 70
# min-page-age: 50
# min-page-size: 100
# min-req-interval: 50
# nam-trace-all: 1
# ns-random-seed: 188312339
# num-2nd-cache: 5
# num-comp-pages: 1
# prot: mttl-PB
# scheduler-type: Calendar
# single-page: 1
# ttl: 0.1
# upd-interval: 5
# xtrace-page: webtrace-pglog
# xtrace-req: webtrace-reqlog
+ 20 7 1 tcp 83 ------- 0 7.1 1.1 1 0
- 20 7 1 tcp 83 ------- 0 7.1 1.1 1 0
+ 20 8 2 tcp 83 ------- 2 8.1 2.1 1 1
- 20 8 2 tcp 83 ------- 2 8.1 2.1 1 1
+ 20 9 3 tcp 83 ------- 4 9.1 3.1 1 2
- 20 9 3 tcp 83 ------- 4 9.1 3.1 1 2
+ 20 10 4 tcp 83 ------- 6 10.1 4.1 1 3
- 20 10 4 tcp 83 ------- 6 10.1 4.1 1 3
+ 20 11 5 tcp 83 ------- 8 11.1 5.1 1 4
- 20 11 5 tcp 83 ------- 8 11.1 5.1 1 4
r 20.002066 7 1 tcp 83 ------- 0 7.1 1.1 1 0
+ 20.002066 1 12 tcp 83 ------- 1 1.2 6.1 1 5
- 20.002066 1 12 tcp 83 ------- 1 1.2 6.1 1 5
r 20.002066 8 2 tcp 83 ------- 2 8.1 2.1 1 1
+ 20.002066 2 12 tcp 83 ------- 3 2.2 6.2 1 6
- 20.002066 2 12 tcp 83 ------- 3 2.2 6.2 1 6
r 20.002066 9 3 tcp 83 ------- 4 9.1 3.1 1 2
+ 20.002066 3 12 tcp 83 ------- 5 3.2 6.3 1 7
- 20.002066 3 12 tcp 83 ------- 5 3.2 6.3 1 7
r 20.002066 10 4 tcp 83 ------- 6 10.1 4.1 1 3
+ 20.002066 4 12 tcp 83 ------- 7 4.2 6.4 1 8
- 20.002066 4 12 tcp 83 ------- 7 4.2 6.4 1 8
r 20.002066 11 5 tcp 83 ------- 8 11.1 5.1 1 4
+ 20.002066 5 12 tcp 83 ------- 9 5.2 6.5 1 9
- 20.002066 5 12 tcp 83 ------- 9 5.2 6.5 1 9
r 20.052509 1 12 tcp 83 ------- 1 1.2 6.1 1 5
+ 20.052509 12 6 tcp 83 ------- 1 1.2 6.1 1 5
- 20.052509 12 6 tcp 83 ------- 1 1.2 6.1 1 5
r 20.052509 2 12 tcp 83 ------- 3 2.2 6.2 1 6
+ 20.052509 12 6 tcp 83 ------- 3 2.2 6.2 1 6
r 20.052509 3 12 tcp 83 ------- 5 3.2 6.3 1 7
+ 20.052509 12 6 tcp 83 ------- 5 3.2 6.3 1 7
r 20.052509 4 12 tcp 83 ------- 7 4.2 6.4 1 8
+ 20.052509 12 6 tcp 83 ------- 7 4.2 6.4 1 8
r 20.052509 5 12 tcp 83 ------- 9 5.2 6.5 1 9
+ 20.052509 12 6 tcp 83 ------- 9 5.2 6.5 1 9
- 20.052952 12 6 tcp 83 ------- 3 2.2 6.2 1 6
- 20.053394 12 6 tcp 83 ------- 5 3.2 6.3 1 7
- 20.053837 12 6 tcp 83 ------- 7 4.2 6.4 1 8
- 20.05428 12 6 tcp 83 ------- 9 5.2 6.5 1 9
r 20.102952 12 6 tcp 83 ------- 1 1.2 6.1 1 5
+ 20.102952 6 12 tcp 83 ------- 10 6.6 0.1 1 10
- 20.102952 6 12 tcp 83 ------- 10 6.6 0.1 1 10
r 20.103394 12 6 tcp 83 ------- 3 2.2 6.2 1 6
r 20.103837 12 6 tcp 83 ------- 5 3.2 6.3 1 7
r 20.10428 12 6 tcp 83 ------- 7 4.2 6.4 1 8
r 20.104722 12 6 tcp 83 ------- 9 5.2 6.5 1 9
r 20.153394 6 12 tcp 83 ------- 10 6.6 0.1 1 10
+ 20.153394 12 1 tcp 83 ------- 10 6.6 0.1 1 10
- 20.153394 12 1 tcp 83 ------- 10 6.6 0.1 1 10
r 20.203837 12 1 tcp 83 ------- 10 6.6 0.1 1 10
+ 20.203837 1 0 tcp 83 ------- 10 6.6 0.1 1 10
- 20.203837 1 0 tcp 83 ------- 10 6.6 0.1 1 10
r 20.30428 1 0 tcp 83 ------- 10 6.6 0.1 1 10
+ 20.30428 0 1 tcp 1064 ------- 10 0.1 6.6 1 11
- 20.30428 0 1 tcp 1064 ------- 10 0.1 6.6 1 11
r 20.409954 0 1 tcp 1064 ------- 10 0.1 6.6 1 11
+ 20.409954 1 12 tcp 1064 ------- 10 0.1 6.6 1 11
- 20.409954 1 12 tcp 1064 ------- 10 0.1 6.6 1 11
r 20.465629 1 12 tcp 1064 ------- 10 0.1 6.6 1 11
+ 20.465629 12 6 tcp 1064 ------- 10 0.1 6.6 1 11
- 20.465629 12 6 tcp 1064 ------- 10 0.1 6.6 1 11
r 20.521304 12 6 tcp 1064 ------- 10 0.1 6.6 1 11
+ 20.521304 6 12 tcp 1064 ------- 1 6.1 1.2 1 12
- 20.521304 6 12 tcp 1064 ------- 1 6.1 1.2 1 12
+ 20.521304 6 12 tcp 1064 ------- 3 6.2 2.2 1 13
+ 20.521304 6 12 tcp 1064 ------- 5 6.3 3.2 1 14
+ 20.521304 6 12 tcp 1064 ------- 7 6.4 4.2 1 15
+ 20.521304 6 12 tcp 1064 ------- 9 6.5 5.2 1 16
- 20.526978 6 12 tcp 1064 ------- 3 6.2 2.2 1 13
- 20.532653 6 12 tcp 1064 ------- 5 6.3 3.2 1 14
- 20.538328 6 12 tcp 1064 ------- 7 6.4 4.2 1 15
- 20.544002 6 12 tcp 1064 ------- 9 6.5 5.2 1 16
r 20.576978 6 12 tcp 1064 ------- 1 6.1 1.2 1 12
+ 20.576978 12 1 tcp 1064 ------- 1 6.1 1.2 1 12
- 20.576978 12 1 tcp 1064 ------- 1 6.1 1.2 1 12
r 20.582653 6 12 tcp 1064 ------- 3 6.2 2.2 1 13
+ 20.582653 12 2 tcp 1064 ------- 3 6.2 2.2 1 13
- 20.582653 12 2 tcp 1064 ------- 3 6.2 2.2 1 13
r 20.588328 6 12 tcp 1064 ------- 5 6.3 3.2 1 14
+ 20.588328 12 3 tcp 1064 ------- 5 6.3 3.2 1 14
- 20.588328 12 3 tcp 1064 ------- 5 6.3 3.2 1 14
r 20.594002 6 12 tcp 1064 ------- 7 6.4 4.2 1 15
+ 20.594002 12 4 tcp 1064 ------- 7 6.4 4.2 1 15
- 20.594002 12 4 tcp 1064 ------- 7 6.4 4.2 1 15
r 20.599677 6 12 tcp 1064 ------- 9 6.5 5.2 1 16
+ 20.599677 12 5 tcp 1064 ------- 9 6.5 5.2 1 16
- 20.599677 12 5 tcp 1064 ------- 9 6.5 5.2 1 16
r 20.632653 12 1 tcp 1064 ------- 1 6.1 1.2 1 12
+ 20.632653 1 7 tcp 1064 ------- 0 1.1 7.1 1 17
- 20.632653 1 7 tcp 1064 ------- 0 1.1 7.1 1 17
r 20.635504 1 7 tcp 1064 ------- 0 1.1 7.1 1 17
+ 20.635504 7 1 tcp 83 ------- 0 7.1 1.1 2 18
- 20.635504 7 1 tcp 83 ------- 0 7.1 1.1 2 18
r 20.637571 7 1 tcp 83 ------- 0 7.1 1.1 2 18
+ 20.637571 1 12 tcp 83 ------- 1 1.2 6.1 2 19
- 20.637571 1 12 tcp 83 ------- 1 1.2 6.1 2 19
r 20.638328 12 2 tcp 1064 ------- 3 6.2 2.2 1 13
+ 20.638328 2 8 tcp 1064 ------- 2 2.1 8.1 1 20
- 20.638328 2 8 tcp 1064 ------- 2 2.1 8.1 1 20
r 20.641179 2 8 tcp 1064 ------- 2 2.1 8.1 1 20
+ 20.641179 8 2 tcp 83 ------- 2 8.1 2.1 2 21
- 20.641179 8 2 tcp 83 ------- 2 8.1 2.1 2 21
r 20.643245 8 2 tcp 83 ------- 2 8.1 2.1 2 21
+ 20.643245 2 12 tcp 83 ------- 3 2.2 6.2 2 22
- 20.643245 2 12 tcp 83 ------- 3 2.2 6.2 2 22
r 20.644002 12 3 tcp 1064 ------- 5 6.3 3.2 1 14
+ 20.644002 3 9 tcp 1064 ------- 4 3.1 9.1 1 23
- 20.644002 3 9 tcp 1064 ------- 4 3.1 9.1 1 23
r 20.646854 3 9 tcp 1064 ------- 4 3.1 9.1 1 23
+ 20.646854 9 3 tcp 83 ------- 4 9.1 3.1 2 24
- 20.646854 9 3 tcp 83 ------- 4 9.1 3.1 2 24
r 20.64892 9 3 tcp 83 ------- 4 9.1 3.1 2 24
+ 20.64892 3 12 tcp 83 ------- 5 3.2 6.3 2 25
- 20.64892 3 12 tcp 83 ------- 5 3.2 6.3 2 25
r 20.649677 12 4 tcp 1064 ------- 7 6.4 4.2 1 15
+ 20.649677 4 10 tcp 1064 ------- 6 4.1 10.1 1 26
- 20.649677 4 10 tcp 1064 ------- 6 4.1 10.1 1 26
r 20.652528 4 10 tcp 1064 ------- 6 4.1 10.1 1 26
+ 20.652528 10 4 tcp 83 ------- 6 10.1 4.1 2 27
- 20.652528 10 4 tcp 83 ------- 6 10.1 4.1 2 27
r 20.654595 10 4 tcp 83 ------- 6 10.1 4.1 2 27
+ 20.654595 4 12 tcp 83 ------- 7 4.2 6.4 2 28
- 20.654595 4 12 tcp 83 ------- 7 4.2 6.4 2 28
r 20.655352 12 5 tcp 1064 ------- 9 6.5 5.2 1 16
+ 20.655352 5 11 tcp 1064 ------- 8 5.1 11.1 1 29
- 20.655352 5 11 tcp 1064 ------- 8 5.1 11.1 1 29
r 20.658203 5 11 tcp 1064 ------- 8 5.1 11.1 1 29
+ 20.658203 11 5 tcp 83 ------- 8 11.1 5.1 2 30
- 20.658203 11 5 tcp 83 ------- 8 11.1 5.1 2 30
r 20.660269 11 5 tcp 83 ------- 8 11.1 5.1 2 30
+ 20.660269 5 12 tcp 83 ------- 9 5.2 6.5 2 31
- 20.660269 5 12 tcp 83 ------- 9 5.2 6.5 2 31
r 20.688013 1 12 tcp 83 ------- 1 1.2 6.1 2 19
+ 20.688013 12 6 tcp 83 ------- 1 1.2 6.1 2 19
- 20.688013 12 6 tcp 83 ------- 1 1.2 6.1 2 19
r 20.693688 2 12 tcp 83 ------- 3 2.2 6.2 2 22
+ 20.693688 12 6 tcp 83 ------- 3 2.2 6.2 2 22
- 20.693688 12 6 tcp 83 ------- 3 2.2 6.2 2 22
r 20.699363 3 12 tcp 83 ------- 5 3.2 6.3 2 25
+ 20.699363 12 6 tcp 83 ------- 5 3.2 6.3 2 25
- 20.699363 12 6 tcp 83 ------- 5 3.2 6.3 2 25
r 20.705037 4 12 tcp 83 ------- 7 4.2 6.4 2 28
+ 20.705037 12 6 tcp 83 ------- 7 4.2 6.4 2 28
- 20.705037 12 6 tcp 83 ------- 7 4.2 6.4 2 28
r 20.710712 5 12 tcp 83 ------- 9 5.2 6.5 2 31
+ 20.710712 12 6 tcp 83 ------- 9 5.2 6.5 2 31
- 20.710712 12 6 tcp 83 ------- 9 5.2 6.5 2 31
r 20.738456 12 6 tcp 83 ------- 1 1.2 6.1 2 19
+ 20.738456 6 12 tcp 83 ------- 10 6.6 0.1 2 32
- 20.738456 6 12 tcp 83 ------- 10 6.6 0.1 2 32
r 20.744131 12 6 tcp 83 ------- 3 2.2 6.2 2 22
r 20.749805 12 6 tcp 83 ------- 5 3.2 6.3 2 25
r 20.75548 12 6 tcp 83 ------- 7 4.2 6.4 2 28
r 20.761155 12 6 tcp 83 ------- 9 5.2 6.5 2 31
r 20.788899 6 12 tcp 83 ------- 10 6.6 0.1 2 32
+ 20.788899 12 1 tcp 83 ------- 10 6.6 0.1 2 32
- 20.788899 12 1 tcp 83 ------- 10 6.6 0.1 2 32
v 20.790064080000001 eval {set sim_annotation {S 0 INV _o435:0}}
r 20.839341 12 1 tcp 83 ------- 10 6.6 0.1 2 32
+ 20.839341 1 0 tcp 83 ------- 10 6.6 0.1 2 32
- 20.839341 1 0 tcp 83 ------- 10 6.6 0.1 2 32
r 20.939784 1 0 tcp 83 ------- 10 6.6 0.1 2 32
+ 20.939784 0 1 tcp 51240 ------- 10 0.1 6.6 2 33
- 20.939784 0 1 tcp 51240 ------- 10 0.1 6.6 2 33
r 21.313064 0 1 tcp 51240 ------- 10 0.1 6.6 2 33
+ 21.313064 1 12 tcp 51240 ------- 10 0.1 6.6 2 33
- 21.313064 1 12 tcp 51240 ------- 10 0.1 6.6 2 33
r 21.636344 1 12 tcp 51240 ------- 10 0.1 6.6 2 33
+ 21.636344 12 6 tcp 51240 ------- 10 0.1 6.6 2 33
- 21.636344 12 6 tcp 51240 ------- 10 0.1 6.6 2 33
r 21.959624 12 6 tcp 51240 ------- 10 0.1 6.6 2 33
+ 21.959624 6 12 tcp 51240 ------- 1 6.1 1.2 2 34
- 21.959624 6 12 tcp 51240 ------- 1 6.1 1.2 2 34
+ 21.959624 6 12 tcp 51240 ------- 3 6.2 2.2 2 35
+ 21.959624 6 12 tcp 51240 ------- 5 6.3 3.2 2 36
+ 21.959624 6 12 tcp 51240 ------- 7 6.4 4.2 2 37
+ 21.959624 6 12 tcp 51240 ------- 9 6.5 5.2 2 38
- 22.232904 6 12 tcp 51240 ------- 3 6.2 2.2 2 35
r 22.282904 6 12 tcp 51240 ------- 1 6.1 1.2 2 34
+ 22.282904 12 1 tcp 51240 ------- 1 6.1 1.2 2 34
- 22.282904 12 1 tcp 51240 ------- 1 6.1 1.2 2 34
- 22.506184 6 12 tcp 51240 ------- 5 6.3 3.2 2 36
r 22.556184 6 12 tcp 51240 ------- 3 6.2 2.2 2 35
+ 22.556184 12 2 tcp 51240 ------- 3 6.2 2.2 2 35
- 22.556184 12 2 tcp 51240 ------- 3 6.2 2.2 2 35
r 22.606184 12 1 tcp 51240 ------- 1 6.1 1.2 2 34
+ 22.606184 1 7 tcp 51240 ------- 0 1.1 7.1 2 39
- 22.606184 1 7 tcp 51240 ------- 0 1.1 7.1 2 39
r 22.649176 1 7 tcp 51240 ------- 0 1.1 7.1 2 39
- 22.779464 6 12 tcp 51240 ------- 7 6.4 4.2 2 37
r 22.829464 6 12 tcp 51240 ------- 5 6.3 3.2 2 36
+ 22.829464 12 3 tcp 51240 ------- 5 6.3 3.2 2 36
- 22.829464 12 3 tcp 51240 ------- 5 6.3 3.2 2 36
r 22.879464 12 2 tcp 51240 ------- 3 6.2 2.2 2 35
+ 22.879464 2 8 tcp 51240 ------- 2 2.1 8.1 2 40
- 22.879464 2 8 tcp 51240 ------- 2 2.1 8.1 2 40
r 22.922456 2 8 tcp 51240 ------- 2 2.1 8.1 2 40
- 23.052744 6 12 tcp 51240 ------- 9 6.5 5.2 2 38
r 23.102744 6 12 tcp 51240 ------- 7 6.4 4.2 2 37
+ 23.102744 12 4 tcp 51240 ------- 7 6.4 4.2 2 37
- 23.102744 12 4 tcp 51240 ------- 7 6.4 4.2 2 37
r 23.152744 12 3 tcp 51240 ------- 5 6.3 3.2 2 36
+ 23.152744 3 9 tcp 51240 ------- 4 3.1 9.1 2 41
- 23.152744 3 9 tcp 51240 ------- 4 3.1 9.1 2 41
r 23.195736 3 9 tcp 51240 ------- 4 3.1 9.1 2 41
v 23.215554350000001 eval {set sim_annotation {S 0 INV _o435:0}}
r 23.376024 6 12 tcp 51240 ------- 9 6.5 5.2 2 38
+ 23.376024 12 5 tcp 51240 ------- 9 6.5 5.2 2 38
- 23.376024 12 5 tcp 51240 ------- 9 6.5 5.2 2 38
r 23.426024 12 4 tcp 51240 ------- 7 6.4 4.2 2 37
+ 23.426024 4 10 tcp 51240 ------- 6 4.1 10.1 2 42
- 23.426024 4 10 tcp 51240 ------- 6 4.1 10.1 2 42
r 23.469016 4 10 tcp 51240 ------- 6 4.1 10.1 2 42
r 23.699304 12 5 tcp 51240 ------- 9 6.5 5.2 2 38
+ 23.699304 5 11 tcp 51240 ------- 8 5.1 11.1 2 43
- 23.699304 5 11 tcp 51240 ------- 8 5.1 11.1 2 43
r 23.742296 5 11 tcp 51240 ------- 8 5.1 11.1 2 43
v 29.11838479 eval {set sim_annotation {S 0 INV _o435:0}}
+ 31.291471 7 1 tcp 83 ------- 0 7.1 1.1 3 44
- 31.291471 7 1 tcp 83 ------- 0 7.1 1.1 3 44
r 31.293537 7 1 tcp 83 ------- 0 7.1 1.1 3 44
+ 31.293537 1 12 tcp 90 ------- 1 1.2 6.1 3 45
- 31.293537 1 12 tcp 90 ------- 1 1.2 6.1 3 45
r 31.344017 1 12 tcp 90 ------- 1 1.2 6.1 3 45
+ 31.344017 12 6 tcp 90 ------- 1 1.2 6.1 3 45
- 31.344017 12 6 tcp 90 ------- 1 1.2 6.1 3 45
r 31.394497 12 6 tcp 90 ------- 1 1.2 6.1 3 45
+ 31.394497 6 12 tcp 90 ------- 10 6.6 0.1 3 46
- 31.394497 6 12 tcp 90 ------- 10 6.6 0.1 3 46
r 31.444977 6 12 tcp 90 ------- 10 6.6 0.1 3 46
+ 31.444977 12 1 tcp 90 ------- 10 6.6 0.1 3 46
- 31.444977 12 1 tcp 90 ------- 10 6.6 0.1 3 46
r 31.495457 12 1 tcp 90 ------- 10 6.6 0.1 3 46
+ 31.495457 1 0 tcp 90 ------- 10 6.6 0.1 3 46
- 31.495457 1 0 tcp 90 ------- 10 6.6 0.1 3 46
r 31.595937 1 0 tcp 90 ------- 10 6.6 0.1 3 46
+ 31.595937 0 1 tcp 1064 ------- 10 0.1 6.6 3 47
- 31.595937 0 1 tcp 1064 ------- 10 0.1 6.6 3 47
r 31.701612 0 1 tcp 1064 ------- 10 0.1 6.6 3 47
+ 31.701612 1 12 tcp 1064 ------- 10 0.1 6.6 3 47
- 31.701612 1 12 tcp 1064 ------- 10 0.1 6.6 3 47
r 31.757286 1 12 tcp 1064 ------- 10 0.1 6.6 3 47
+ 31.757286 12 6 tcp 1064 ------- 10 0.1 6.6 3 47
- 31.757286 12 6 tcp 1064 ------- 10 0.1 6.6 3 47
r 31.812961 12 6 tcp 1064 ------- 10 0.1 6.6 3 47
+ 31.812961 6 12 tcp 1064 ------- 1 6.1 1.2 3 48
- 31.812961 6 12 tcp 1064 ------- 1 6.1 1.2 3 48
r 31.868636 6 12 tcp 1064 ------- 1 6.1 1.2 3 48
+ 31.868636 12 1 tcp 1064 ------- 1 6.1 1.2 3 48
- 31.868636 12 1 tcp 1064 ------- 1 6.1 1.2 3 48
r 31.92431 12 1 tcp 1064 ------- 1 6.1 1.2 3 48
+ 31.92431 1 7 tcp 1064 ------- 0 1.1 7.1 3 49
- 31.92431 1 7 tcp 1064 ------- 0 1.1 7.1 3 49
r 31.927162 1 7 tcp 1064 ------- 0 1.1 7.1 3 49
+ 31.927162 7 1 tcp 83 ------- 0 7.1 1.1 4 50
- 31.927162 7 1 tcp 83 ------- 0 7.1 1.1 4 50
r 31.929228 7 1 tcp 83 ------- 0 7.1 1.1 4 50
+ 31.929228 1 12 tcp 90 ------- 1 1.2 6.1 4 51
- 31.929228 1 12 tcp 90 ------- 1 1.2 6.1 4 51
r 31.979708 1 12 tcp 90 ------- 1 1.2 6.1 4 51
+ 31.979708 12 6 tcp 90 ------- 1 1.2 6.1 4 51
- 31.979708 12 6 tcp 90 ------- 1 1.2 6.1 4 51
r 32.030188 12 6 tcp 90 ------- 1 1.2 6.1 4 51
+ 32.030188 6 12 tcp 90 ------- 10 6.6 0.1 4 52
- 32.030188 6 12 tcp 90 ------- 10 6.6 0.1 4 52
r 32.080668 6 12 tcp 90 ------- 10 6.6 0.1 4 52
+ 32.080668 12 1 tcp 90 ------- 10 6.6 0.1 4 52
- 32.080668 12 1 tcp 90 ------- 10 6.6 0.1 4 52
r 32.131148 12 1 tcp 90 ------- 10 6.6 0.1 4 52
+ 32.131148 1 0 tcp 90 ------- 10 6.6 0.1 4 52
- 32.131148 1 0 tcp 90 ------- 10 6.6 0.1 4 52
r 32.231628 1 0 tcp 90 ------- 10 6.6 0.1 4 52
+ 32.231628 0 1 tcp 83 ------- 10 0.1 6.6 4 53
- 32.231628 0 1 tcp 83 ------- 10 0.1 6.6 4 53
r 32.332071 0 1 tcp 83 ------- 10 0.1 6.6 4 53
+ 32.332071 1 12 tcp 83 ------- 10 0.1 6.6 4 53
- 32.332071 1 12 tcp 83 ------- 10 0.1 6.6 4 53
r 32.382513 1 12 tcp 83 ------- 10 0.1 6.6 4 53
+ 32.382513 12 6 tcp 83 ------- 10 0.1 6.6 4 53
- 32.382513 12 6 tcp 83 ------- 10 0.1 6.6 4 53
r 32.432956 12 6 tcp 83 ------- 10 0.1 6.6 4 53
+ 32.432956 6 12 tcp 83 ------- 1 6.1 1.2 4 54
- 32.432956 6 12 tcp 83 ------- 1 6.1 1.2 4 54
+ 32.455294 8 2 tcp 83 ------- 2 8.1 2.1 3 55
- 32.455294 8 2 tcp 83 ------- 2 8.1 2.1 3 55
r 32.45736 8 2 tcp 83 ------- 2 8.1 2.1 3 55
+ 32.45736 2 12 tcp 90 ------- 3 2.2 6.2 3 56
- 32.45736 2 12 tcp 90 ------- 3 2.2 6.2 3 56
r 32.483399 6 12 tcp 83 ------- 1 6.1 1.2 4 54
+ 32.483399 12 1 tcp 83 ------- 1 6.1 1.2 4 54
- 32.483399 12 1 tcp 83 ------- 1 6.1 1.2 4 54
r 32.50784 2 12 tcp 90 ------- 3 2.2 6.2 3 56
+ 32.50784 12 6 tcp 90 ------- 3 2.2 6.2 3 56
- 32.50784 12 6 tcp 90 ------- 3 2.2 6.2 3 56
r 32.533841 12 1 tcp 83 ------- 1 6.1 1.2 4 54
+ 32.533841 1 7 tcp 51240 ------- 0 1.1 7.1 4 57
- 32.533841 1 7 tcp 51240 ------- 0 1.1 7.1 4 57
r 32.55832 12 6 tcp 90 ------- 3 2.2 6.2 3 56
+ 32.55832 6 12 tcp 90 ------- 10 6.6 0.1 5 58
- 32.55832 6 12 tcp 90 ------- 10 6.6 0.1 5 58
r 32.576833 1 7 tcp 51240 ------- 0 1.1 7.1 4 57
r 32.6088 6 12 tcp 90 ------- 10 6.6 0.1 5 58
+ 32.6088 12 1 tcp 90 ------- 10 6.6 0.1 5 58
- 32.6088 12 1 tcp 90 ------- 10 6.6 0.1 5 58
r 32.65928 12 1 tcp 90 ------- 10 6.6 0.1 5 58
+ 32.65928 1 0 tcp 90 ------- 10 6.6 0.1 5 58
- 32.65928 1 0 tcp 90 ------- 10 6.6 0.1 5 58
r 32.75976 1 0 tcp 90 ------- 10 6.6 0.1 5 58
+ 32.75976 0 1 tcp 83 ------- 10 0.1 6.6 5 59
- 32.75976 0 1 tcp 83 ------- 10 0.1 6.6 5 59
r 32.860203 0 1 tcp 83 ------- 10 0.1 6.6 5 59
+ 32.860203 1 12 tcp 83 ------- 10 0.1 6.6 5 59
- 32.860203 1 12 tcp 83 ------- 10 0.1 6.6 5 59
r 32.910646 1 12 tcp 83 ------- 10 0.1 6.6 5 59
+ 32.910646 12 6 tcp 83 ------- 10 0.1 6.6 5 59
- 32.910646 12 6 tcp 83 ------- 10 0.1 6.6 5 59
r 32.961088 12 6 tcp 83 ------- 10 0.1 6.6 5 59
+ 32.961088 6 12 tcp 1064 ------- 3 6.2 2.2 3 60
- 32.961088 6 12 tcp 1064 ------- 3 6.2 2.2 3 60
r 33.016763 6 12 tcp 1064 ------- 3 6.2 2.2 3 60
+ 33.016763 12 2 tcp 1064 ------- 3 6.2 2.2 3 60
- 33.016763 12 2 tcp 1064 ------- 3 6.2 2.2 3 60
r 33.072438 12 2 tcp 1064 ------- 3 6.2 2.2 3 60
+ 33.072438 2 8 tcp 1064 ------- 2 2.1 8.1 3 61
- 33.072438 2 8 tcp 1064 ------- 2 2.1 8.1 3 61
r 33.075289 2 8 tcp 1064 ------- 2 2.1 8.1 3 61
+ 33.075289 8 2 tcp 83 ------- 2 8.1 2.1 4 62
- 33.075289 8 2 tcp 83 ------- 2 8.1 2.1 4 62
r 33.077355 8 2 tcp 83 ------- 2 8.1 2.1 4 62
+ 33.077355 2 12 tcp 90 ------- 3 2.2 6.2 4 63
- 33.077355 2 12 tcp 90 ------- 3 2.2 6.2 4 63
r 33.127835 2 12 tcp 90 ------- 3 2.2 6.2 4 63
+ 33.127835 12 6 tcp 90 ------- 3 2.2 6.2 4 63
- 33.127835 12 6 tcp 90 ------- 3 2.2 6.2 4 63
r 33.178315 12 6 tcp 90 ------- 3 2.2 6.2 4 63
+ 33.178315 6 12 tcp 83 ------- 3 6.2 2.2 4 64
- 33.178315 6 12 tcp 83 ------- 3 6.2 2.2 4 64
r 33.228758 6 12 tcp 83 ------- 3 6.2 2.2 4 64
+ 33.228758 12 2 tcp 83 ------- 3 6.2 2.2 4 64
- 33.228758 12 2 tcp 83 ------- 3 6.2 2.2 4 64
r 33.279201 12 2 tcp 83 ------- 3 6.2 2.2 4 64
+ 33.279201 2 8 tcp 51240 ------- 2 2.1 8.1 4 65
- 33.279201 2 8 tcp 51240 ------- 2 2.1 8.1 4 65
r 33.322193 2 8 tcp 51240 ------- 2 2.1 8.1 4 65
+ 33.473326 11 5 tcp 83 ------- 8 11.1 5.1 3 66
- 33.473326 11 5 tcp 83 ------- 8 11.1 5.1 3 66
r 33.475392 11 5 tcp 83 ------- 8 11.1 5.1 3 66
+ 33.475392 5 12 tcp 90 ------- 9 5.2 6.5 3 67
- 33.475392 5 12 tcp 90 ------- 9 5.2 6.5 3 67
r 33.525872 5 12 tcp 90 ------- 9 5.2 6.5 3 67
+ 33.525872 12 6 tcp 90 ------- 9 5.2 6.5 3 67
- 33.525872 12 6 tcp 90 ------- 9 5.2 6.5 3 67
r 33.576352 12 6 tcp 90 ------- 9 5.2 6.5 3 67
+ 33.576352 6 12 tcp 90 ------- 10 6.6 0.1 6 68
- 33.576352 6 12 tcp 90 ------- 10 6.6 0.1 6 68
r 33.626832 6 12 tcp 90 ------- 10 6.6 0.1 6 68
+ 33.626832 12 1 tcp 90 ------- 10 6.6 0.1 6 68
- 33.626832 12 1 tcp 90 ------- 10 6.6 0.1 6 68
r 33.677312 12 1 tcp 90 ------- 10 6.6 0.1 6 68
+ 33.677312 1 0 tcp 90 ------- 10 6.6 0.1 6 68
- 33.677312 1 0 tcp 90 ------- 10 6.6 0.1 6 68
r 33.777792 1 0 tcp 90 ------- 10 6.6 0.1 6 68
+ 33.777792 0 1 tcp 83 ------- 10 0.1 6.6 6 69
- 33.777792 0 1 tcp 83 ------- 10 0.1 6.6 6 69
r 33.878235 0 1 tcp 83 ------- 10 0.1 6.6 6 69
+ 33.878235 1 12 tcp 83 ------- 10 0.1 6.6 6 69
- 33.878235 1 12 tcp 83 ------- 10 0.1 6.6 6 69
r 33.928678 1 12 tcp 83 ------- 10 0.1 6.6 6 69
+ 33.928678 12 6 tcp 83 ------- 10 0.1 6.6 6 69
- 33.928678 12 6 tcp 83 ------- 10 0.1 6.6 6 69
r 33.97912 12 6 tcp 83 ------- 10 0.1 6.6 6 69
+ 33.97912 6 12 tcp 1064 ------- 9 6.5 5.2 3 70
- 33.97912 6 12 tcp 1064 ------- 9 6.5 5.2 3 70
r 34.034795 6 12 tcp 1064 ------- 9 6.5 5.2 3 70
+ 34.034795 12 5 tcp 1064 ------- 9 6.5 5.2 3 70
- 34.034795 12 5 tcp 1064 ------- 9 6.5 5.2 3 70
r 34.09047 12 5 tcp 1064 ------- 9 6.5 5.2 3 70
+ 34.09047 5 11 tcp 1064 ------- 8 5.1 11.1 3 71
- 34.09047 5 11 tcp 1064 ------- 8 5.1 11.1 3 71
r 34.093321 5 11 tcp 1064 ------- 8 5.1 11.1 3 71
+ 34.093321 11 5 tcp 83 ------- 8 11.1 5.1 4 72
- 34.093321 11 5 tcp 83 ------- 8 11.1 5.1 4 72
r 34.095387 11 5 tcp 83 ------- 8 11.1 5.1 4 72
+ 34.095387 5 12 tcp 90 ------- 9 5.2 6.5 4 73
- 34.095387 5 12 tcp 90 ------- 9 5.2 6.5 4 73
r 34.145867 5 12 tcp 90 ------- 9 5.2 6.5 4 73
+ 34.145867 12 6 tcp 90 ------- 9 5.2 6.5 4 73
- 34.145867 12 6 tcp 90 ------- 9 5.2 6.5 4 73
r 34.196347 12 6 tcp 90 ------- 9 5.2 6.5 4 73
+ 34.196347 6 12 tcp 90 ------- 10 6.6 0.1 7 74
- 34.196347 6 12 tcp 90 ------- 10 6.6 0.1 7 74
r 34.246827 6 12 tcp 90 ------- 10 6.6 0.1 7 74
+ 34.246827 12 1 tcp 90 ------- 10 6.6 0.1 7 74
- 34.246827 12 1 tcp 90 ------- 10 6.6 0.1 7 74
r 34.297307 12 1 tcp 90 ------- 10 6.6 0.1 7 74
+ 34.297307 1 0 tcp 90 ------- 10 6.6 0.1 7 74
- 34.297307 1 0 tcp 90 ------- 10 6.6 0.1 7 74
r 34.397787 1 0 tcp 90 ------- 10 6.6 0.1 7 74
+ 34.397787 0 1 tcp 83 ------- 10 0.1 6.6 7 75
- 34.397787 0 1 tcp 83 ------- 10 0.1 6.6 7 75
r 34.49823 0 1 tcp 83 ------- 10 0.1 6.6 7 75
+ 34.49823 1 12 tcp 83 ------- 10 0.1 6.6 7 75
- 34.49823 1 12 tcp 83 ------- 10 0.1 6.6 7 75
+ 34.541698 9 3 tcp 83 ------- 4 9.1 3.1 3 76
- 34.541698 9 3 tcp 83 ------- 4 9.1 3.1 3 76
r 34.543764 9 3 tcp 83 ------- 4 9.1 3.1 3 76
+ 34.543764 3 12 tcp 90 ------- 5 3.2 6.3 3 77
- 34.543764 3 12 tcp 90 ------- 5 3.2 6.3 3 77
r 34.548673 1 12 tcp 83 ------- 10 0.1 6.6 7 75
+ 34.548673 12 6 tcp 83 ------- 10 0.1 6.6 7 75
- 34.548673 12 6 tcp 83 ------- 10 0.1 6.6 7 75
r 34.594244 3 12 tcp 90 ------- 5 3.2 6.3 3 77
+ 34.594244 12 6 tcp 90 ------- 5 3.2 6.3 3 77
- 34.594244 12 6 tcp 90 ------- 5 3.2 6.3 3 77
r 34.599115 12 6 tcp 83 ------- 10 0.1 6.6 7 75
+ 34.599115 6 12 tcp 83 ------- 9 6.5 5.2 4 78
- 34.599115 6 12 tcp 83 ------- 9 6.5 5.2 4 78
r 34.644724 12 6 tcp 90 ------- 5 3.2 6.3 3 77
+ 34.644724 6 12 tcp 90 ------- 10 6.6 0.1 8 79
- 34.644724 6 12 tcp 90 ------- 10 6.6 0.1 8 79
r 34.649558 6 12 tcp 83 ------- 9 6.5 5.2 4 78
+ 34.649558 12 5 tcp 83 ------- 9 6.5 5.2 4 78
- 34.649558 12 5 tcp 83 ------- 9 6.5 5.2 4 78
r 34.695204 6 12 tcp 90 ------- 10 6.6 0.1 8 79
+ 34.695204 12 1 tcp 90 ------- 10 6.6 0.1 8 79
- 34.695204 12 1 tcp 90 ------- 10 6.6 0.1 8 79
r 34.700001 12 5 tcp 83 ------- 9 6.5 5.2 4 78
+ 34.700001 5 11 tcp 51240 ------- 8 5.1 11.1 4 80
- 34.700001 5 11 tcp 51240 ------- 8 5.1 11.1 4 80
r 34.742993 5 11 tcp 51240 ------- 8 5.1 11.1 4 80
r 34.745684 12 1 tcp 90 ------- 10 6.6 0.1 8 79
+ 34.745684 1 0 tcp 90 ------- 10 6.6 0.1 8 79
- 34.745684 1 0 tcp 90 ------- 10 6.6 0.1 8 79
r 34.846164 1 0 tcp 90 ------- 10 6.6 0.1 8 79
+ 34.846164 0 1 tcp 83 ------- 10 0.1 6.6 8 81
- 34.846164 0 1 tcp 83 ------- 10 0.1 6.6 8 81
r 34.946607 0 1 tcp 83 ------- 10 0.1 6.6 8 81
+ 34.946607 1 12 tcp 83 ------- 10 0.1 6.6 8 81
- 34.946607 1 12 tcp 83 ------- 10 0.1 6.6 8 81
r 34.99705 1 12 tcp 83 ------- 10 0.1 6.6 8 81
+ 34.99705 12 6 tcp 83 ------- 10 0.1 6.6 8 81
- 34.99705 12 6 tcp 83 ------- 10 0.1 6.6 8 81
r 35.047492 12 6 tcp 83 ------- 10 0.1 6.6 8 81
+ 35.047492 6 12 tcp 1064 ------- 5 6.3 3.2 3 82
- 35.047492 6 12 tcp 1064 ------- 5 6.3 3.2 3 82
r 35.103167 6 12 tcp 1064 ------- 5 6.3 3.2 3 82
+ 35.103167 12 3 tcp 1064 ------- 5 6.3 3.2 3 82
- 35.103167 12 3 tcp 1064 ------- 5 6.3 3.2 3 82
r 35.158842 12 3 tcp 1064 ------- 5 6.3 3.2 3 82
+ 35.158842 3 9 tcp 1064 ------- 4 3.1 9.1 3 83
- 35.158842 3 9 tcp 1064 ------- 4 3.1 9.1 3 83
r 35.161693 3 9 tcp 1064 ------- 4 3.1 9.1 3 83
+ 35.161693 9 3 tcp 83 ------- 4 9.1 3.1 4 84
- 35.161693 9 3 tcp 83 ------- 4 9.1 3.1 4 84
r 35.163759 9 3 tcp 83 ------- 4 9.1 3.1 4 84
+ 35.163759 3 12 tcp 90 ------- 5 3.2 6.3 4 85
- 35.163759 3 12 tcp 90 ------- 5 3.2 6.3 4 85
r 35.214239 3 12 tcp 90 ------- 5 3.2 6.3 4 85
+ 35.214239 12 6 tcp 90 ------- 5 3.2 6.3 4 85
- 35.214239 12 6 tcp 90 ------- 5 3.2 6.3 4 85
r 35.264719 12 6 tcp 90 ------- 5 3.2 6.3 4 85
+ 35.264719 6 12 tcp 83 ------- 5 6.3 3.2 4 86
- 35.264719 6 12 tcp 83 ------- 5 6.3 3.2 4 86
r 35.315162 6 12 tcp 83 ------- 5 6.3 3.2 4 86
+ 35.315162 12 3 tcp 83 ------- 5 6.3 3.2 4 86
- 35.315162 12 3 tcp 83 ------- 5 6.3 3.2 4 86
r 35.365605 12 3 tcp 83 ------- 5 6.3 3.2 4 86
+ 35.365605 3 9 tcp 51240 ------- 4 3.1 9.1 4 87
- 35.365605 3 9 tcp 51240 ------- 4 3.1 9.1 4 87
r 35.408597 3 9 tcp 51240 ------- 4 3.1 9.1 4 87
+ 35.818857 8 2 tcp 83 ------- 2 8.1 2.1 5 88
- 35.818857 8 2 tcp 83 ------- 2 8.1 2.1 5 88
r 35.820923 8 2 tcp 83 ------- 2 8.1 2.1 5 88
+ 35.820923 2 12 tcp 90 ------- 3 2.2 6.2 5 89
- 35.820923 2 12 tcp 90 ------- 3 2.2 6.2 5 89
r 35.871403 2 12 tcp 90 ------- 3 2.2 6.2 5 89
+ 35.871403 12 6 tcp 90 ------- 3 2.2 6.2 5 89
- 35.871403 12 6 tcp 90 ------- 3 2.2 6.2 5 89
r 35.921883 12 6 tcp 90 ------- 3 2.2 6.2 5 89
+ 35.921883 6 12 tcp 90 ------- 10 6.6 0.1 9 90
- 35.921883 6 12 tcp 90 ------- 10 6.6 0.1 9 90
r 35.972363 6 12 tcp 90 ------- 10 6.6 0.1 9 90
+ 35.972363 12 1 tcp 90 ------- 10 6.6 0.1 9 90
- 35.972363 12 1 tcp 90 ------- 10 6.6 0.1 9 90
r 36.022843 12 1 tcp 90 ------- 10 6.6 0.1 9 90
+ 36.022843 1 0 tcp 90 ------- 10 6.6 0.1 9 90
- 36.022843 1 0 tcp 90 ------- 10 6.6 0.1 9 90
r 36.123323 1 0 tcp 90 ------- 10 6.6 0.1 9 90
+ 36.123323 0 1 tcp 83 ------- 10 0.1 6.6 9 91
- 36.123323 0 1 tcp 83 ------- 10 0.1 6.6 9 91
r 36.223766 0 1 tcp 83 ------- 10 0.1 6.6 9 91
+ 36.223766 1 12 tcp 83 ------- 10 0.1 6.6 9 91
- 36.223766 1 12 tcp 83 ------- 10 0.1 6.6 9 91
r 36.274209 1 12 tcp 83 ------- 10 0.1 6.6 9 91
+ 36.274209 12 6 tcp 83 ------- 10 0.1 6.6 9 91
- 36.274209 12 6 tcp 83 ------- 10 0.1 6.6 9 91
r 36.324651 12 6 tcp 83 ------- 10 0.1 6.6 9 91
+ 36.324651 6 12 tcp 83 ------- 3 6.2 2.2 5 92
- 36.324651 6 12 tcp 83 ------- 3 6.2 2.2 5 92
r 36.375094 6 12 tcp 83 ------- 3 6.2 2.2 5 92
+ 36.375094 12 2 tcp 83 ------- 3 6.2 2.2 5 92
- 36.375094 12 2 tcp 83 ------- 3 6.2 2.2 5 92
r 36.425537 12 2 tcp 83 ------- 3 6.2 2.2 5 92
+ 36.425537 2 8 tcp 1064 ------- 2 2.1 8.1 5 93
- 36.425537 2 8 tcp 1064 ------- 2 2.1 8.1 5 93
r 36.428388 2 8 tcp 1064 ------- 2 2.1 8.1 5 93
+ 36.428388 8 2 tcp 83 ------- 2 8.1 2.1 6 94
- 36.428388 8 2 tcp 83 ------- 2 8.1 2.1 6 94
r 36.430454 8 2 tcp 83 ------- 2 8.1 2.1 6 94
+ 36.430454 2 12 tcp 90 ------- 3 2.2 6.2 6 95
- 36.430454 2 12 tcp 90 ------- 3 2.2 6.2 6 95
r 36.480934 2 12 tcp 90 ------- 3 2.2 6.2 6 95
+ 36.480934 12 6 tcp 90 ------- 3 2.2 6.2 6 95
- 36.480934 12 6 tcp 90 ------- 3 2.2 6.2 6 95
r 36.531414 12 6 tcp 90 ------- 3 2.2 6.2 6 95
+ 36.531414 6 12 tcp 90 ------- 10 6.6 0.1 10 96
- 36.531414 6 12 tcp 90 ------- 10 6.6 0.1 10 96
r 36.581894 6 12 tcp 90 ------- 10 6.6 0.1 10 96
+ 36.581894 12 1 tcp 90 ------- 10 6.6 0.1 10 96
- 36.581894 12 1 tcp 90 ------- 10 6.6 0.1 10 96
r 36.632374 12 1 tcp 90 ------- 10 6.6 0.1 10 96
+ 36.632374 1 0 tcp 90 ------- 10 6.6 0.1 10 96
- 36.632374 1 0 tcp 90 ------- 10 6.6 0.1 10 96
r 36.732854 1 0 tcp 90 ------- 10 6.6 0.1 10 96
+ 36.732854 0 1 tcp 83 ------- 10 0.1 6.6 10 97
- 36.732854 0 1 tcp 83 ------- 10 0.1 6.6 10 97
r 36.833297 0 1 tcp 83 ------- 10 0.1 6.6 10 97
+ 36.833297 1 12 tcp 83 ------- 10 0.1 6.6 10 97
- 36.833297 1 12 tcp 83 ------- 10 0.1 6.6 10 97
r 36.88374 1 12 tcp 83 ------- 10 0.1 6.6 10 97
+ 36.88374 12 6 tcp 83 ------- 10 0.1 6.6 10 97
- 36.88374 12 6 tcp 83 ------- 10 0.1 6.6 10 97
r 36.934182 12 6 tcp 83 ------- 10 0.1 6.6 10 97
+ 36.934182 6 12 tcp 83 ------- 3 6.2 2.2 6 98
- 36.934182 6 12 tcp 83 ------- 3 6.2 2.2 6 98
r 36.984625 6 12 tcp 83 ------- 3 6.2 2.2 6 98
+ 36.984625 12 2 tcp 83 ------- 3 6.2 2.2 6 98
- 36.984625 12 2 tcp 83 ------- 3 6.2 2.2 6 98
r 37.035068 12 2 tcp 83 ------- 3 6.2 2.2 6 98
+ 37.035068 2 8 tcp 51240 ------- 2 2.1 8.1 6 99
- 37.035068 2 8 tcp 51240 ------- 2 2.1 8.1 6 99
r 37.07806 2 8 tcp 51240 ------- 2 2.1 8.1 6 99
+ 39.594716 8 2 tcp 83 ------- 2 8.1 2.1 7 100
- 39.594716 8 2 tcp 83 ------- 2 8.1 2.1 7 100
r 39.596782 8 2 tcp 83 ------- 2 8.1 2.1 7 100
+ 39.596782 2 12 tcp 90 ------- 3 2.2 6.2 7 101
- 39.596782 2 12 tcp 90 ------- 3 2.2 6.2 7 101
r 39.647262 2 12 tcp 90 ------- 3 2.2 6.2 7 101
+ 39.647262 12 6 tcp 90 ------- 3 2.2 6.2 7 101
- 39.647262 12 6 tcp 90 ------- 3 2.2 6.2 7 101
r 39.697742 12 6 tcp 90 ------- 3 2.2 6.2 7 101
+ 39.697742 6 12 tcp 90 ------- 10 6.6 0.1 11 102
- 39.697742 6 12 tcp 90 ------- 10 6.6 0.1 11 102
r 39.748222 6 12 tcp 90 ------- 10 6.6 0.1 11 102
+ 39.748222 12 1 tcp 90 ------- 10 6.6 0.1 11 102
- 39.748222 12 1 tcp 90 ------- 10 6.6 0.1 11 102
r 39.798702 12 1 tcp 90 ------- 10 6.6 0.1 11 102
+ 39.798702 1 0 tcp 90 ------- 10 6.6 0.1 11 102
- 39.798702 1 0 tcp 90 ------- 10 6.6 0.1 11 102
r 39.899182 1 0 tcp 90 ------- 10 6.6 0.1 11 102
+ 39.899182 0 1 tcp 83 ------- 10 0.1 6.6 11 103
- 39.899182 0 1 tcp 83 ------- 10 0.1 6.6 11 103
r 39.999625 0 1 tcp 83 ------- 10 0.1 6.6 11 103
+ 39.999625 1 12 tcp 83 ------- 10 0.1 6.6 11 103
- 39.999625 1 12 tcp 83 ------- 10 0.1 6.6 11 103
r 40.050068 1 12 tcp 83 ------- 10 0.1 6.6 11 103
+ 40.050068 12 6 tcp 83 ------- 10 0.1 6.6 11 103
- 40.050068 12 6 tcp 83 ------- 10 0.1 6.6 11 103
r 40.10051 12 6 tcp 83 ------- 10 0.1 6.6 11 103
+ 40.10051 6 12 tcp 83 ------- 3 6.2 2.2 7 104
- 40.10051 6 12 tcp 83 ------- 3 6.2 2.2 7 104
r 40.150953 6 12 tcp 83 ------- 3 6.2 2.2 7 104
+ 40.150953 12 2 tcp 83 ------- 3 6.2 2.2 7 104
- 40.150953 12 2 tcp 83 ------- 3 6.2 2.2 7 104
r 40.201396 12 2 tcp 83 ------- 3 6.2 2.2 7 104
+ 40.201396 2 8 tcp 1064 ------- 2 2.1 8.1 7 105
- 40.201396 2 8 tcp 1064 ------- 2 2.1 8.1 7 105
r 40.204247 2 8 tcp 1064 ------- 2 2.1 8.1 7 105
+ 40.204247 8 2 tcp 83 ------- 2 8.1 2.1 8 106
- 40.204247 8 2 tcp 83 ------- 2 8.1 2.1 8 106
r 40.206313 8 2 tcp 83 ------- 2 8.1 2.1 8 106
+ 40.206313 2 12 tcp 90 ------- 3 2.2 6.2 8 107
- 40.206313 2 12 tcp 90 ------- 3 2.2 6.2 8 107
r 40.256793 2 12 tcp 90 ------- 3 2.2 6.2 8 107
+ 40.256793 12 6 tcp 90 ------- 3 2.2 6.2 8 107
- 40.256793 12 6 tcp 90 ------- 3 2.2 6.2 8 107
r 40.307273 12 6 tcp 90 ------- 3 2.2 6.2 8 107
+ 40.307273 6 12 tcp 90 ------- 10 6.6 0.1 12 108
- 40.307273 6 12 tcp 90 ------- 10 6.6 0.1 12 108
r 40.357753 6 12 tcp 90 ------- 10 6.6 0.1 12 108
+ 40.357753 12 1 tcp 90 ------- 10 6.6 0.1 12 108
- 40.357753 12 1 tcp 90 ------- 10 6.6 0.1 12 108
r 40.408233 12 1 tcp 90 ------- 10 6.6 0.1 12 108
+ 40.408233 1 0 tcp 90 ------- 10 6.6 0.1 12 108
- 40.408233 1 0 tcp 90 ------- 10 6.6 0.1 12 108
r 40.508713 1 0 tcp 90 ------- 10 6.6 0.1 12 108
+ 40.508713 0 1 tcp 83 ------- 10 0.1 6.6 12 109
- 40.508713 0 1 tcp 83 ------- 10 0.1 6.6 12 109
r 40.609156 0 1 tcp 83 ------- 10 0.1 6.6 12 109
+ 40.609156 1 12 tcp 83 ------- 10 0.1 6.6 12 109
- 40.609156 1 12 tcp 83 ------- 10 0.1 6.6 12 109
r 40.659599 1 12 tcp 83 ------- 10 0.1 6.6 12 109
+ 40.659599 12 6 tcp 83 ------- 10 0.1 6.6 12 109
- 40.659599 12 6 tcp 83 ------- 10 0.1 6.6 12 109
r 40.710041 12 6 tcp 83 ------- 10 0.1 6.6 12 109
+ 40.710041 6 12 tcp 83 ------- 3 6.2 2.2 8 110
- 40.710041 6 12 tcp 83 ------- 3 6.2 2.2 8 110
r 40.760484 6 12 tcp 83 ------- 3 6.2 2.2 8 110
+ 40.760484 12 2 tcp 83 ------- 3 6.2 2.2 8 110
- 40.760484 12 2 tcp 83 ------- 3 6.2 2.2 8 110
r 40.810927 12 2 tcp 83 ------- 3 6.2 2.2 8 110
+ 40.810927 2 8 tcp 51240 ------- 2 2.1 8.1 8 111
- 40.810927 2 8 tcp 51240 ------- 2 2.1 8.1 8 111