# TESTNAME: ottl-PB
# TOPOLOGY: BottleNeck
# avg-comp-page-age: 40000
# avg-page-age: 10
# avg-page-size: 1024
# avg-req-interval: 6
# client-req-size: 43
# comp-page-size: 51200
# duration: 200
# enable-log: 0
# hb-interval: 6
# max-page-age: 70
# max-page-size: 50000
# max-req-interval: 70
# min-page-age: 50
# min-page-size: 100
# min-req-interval: 50
# nam-trace-all: 1
# ns-random-seed: 188312339
# num-2nd-cache: 5
# num-comp-pages: 1
# prot: ottl-PB
# scheduler-type: Calendar
# single-page: 1
# ttl: 0.1
# upd-interval: 5
# xtrace-page: webtrace-pglog
# xtrace-req: webtrace-reqlog
+ 20 7 1 tcp 83 ------- 0 7.1 1.1 1 0
- 20 7 1 tcp 83 ------- 0 7.1 1.1 1 0
+ 20 8 2 tcp 83 ------- 2 8.1 2.1 1 1
- 20 8 2 tcp 83 ------- 2 8.1 2.1 1 1
+ 20 9 3 tcp 83 ------- 4 9.1 3.1 1 2
- 20 9 3 tcp 83 ------- 4 9.1 3.1 1 2
+ 20 10 4 tcp 83 ------- 6 10.1 4.1 1 3
- 20 10 4 tcp 83 ------- 6 10.1 4.1 1 3
+ 20 11 5 tcp 83 ------- 8 11.1 5.1 1 4
- 20 11 5 tcp 83 ------- 8 11.1 5.1 1 4
r 20.002066 7 1 tcp 83 ------- 0 7.1 1.1 1 0
+ 20.002066 1 12 tcp 83 ------- 1 1.2 6.1 1 5
- 20.002066 1 12 tcp 83 ------- 1 1.2 6.1 1 5
r 20.002066 8 2 tcp 83 ------- 2 8.1 2.1 1 1
+ 20.002066 2 12 tcp 83 ------- 3 2.2 6.2 1 6
- 20.002066 2 12 tcp 83 ------- 3 2.2 6.2 1 6
r 20.002066 9 3 tcp 83 ------- 4 9.1 3.1 1 2
+ 20.002066 3 12 tcp 83 ------- 5 3.2 6.3 1 7
- 20.002066 3 12 tcp 83 ------- 5 3.2 6.3 1 7
r 20.002066 10 4 tcp 83 ------- 6 10.1 4.1 1 3
+ 20.002066 4 12 tcp 83 ------- 7 4.2 6.4 1 8
- 20.002066 4 12 tcp 83 ------- 7 4.2 6.4 1 8
r 20.002066 11 5 tcp 83 ------- 8 11.1 5.1 1 4
+ 20.002066 5 12 tcp 83 ------- 9 5.2 6.5 1 9
- 20.002066 5 12 tcp 83 ------- 9 5.2 6.5 1 9
r 20.052509 1 12 tcp 83 ------- 1 1.2 6.1 1 5
+ 20.052509 12 6 tcp 83 ------- 1 1.2 6.1 1 5
- 20.052509 12 6 tcp 83 ------- 1 1.2 6.1 1 5
r 20.052509 2 12 tcp 83 ------- 3 2.2 6.2 1 6
+ 20.052509 12 6 tcp 83 ------- 3 2.2 6.2 1 6
r 20.052509 3 12 tcp 83 ------- 5 3.2 6.3 1 7
+ 20.052509 12 6 tcp 83 ------- 5 3.2 6.3 1 7
r 20.052509 4 12 tcp 83 ------- 7 4.2 6.4 1 8
+ 20.052509 12 6 tcp 83 ------- 7 4.2 6.4 1 8
r 20.052509 5 12 tcp 83 ------- 9 5.2 6.5 1 9
+ 20.052509 12 6 tcp 83 ------- 9 5.2 6.5 1 9
- 20.052952 12 6 tcp 83 ------- 3 2.2 6.2 1 6
- 20.053394 12 6 tcp 83 ------- 5 3.2 6.3 1 7
- 20.053837 12 6 tcp 83 ------- 7 4.2 6.4 1 8
- 20.05428 12 6 tcp 83 ------- 9 5.2 6.5 1 9
r 20.102952 12 6 tcp 83 ------- 1 1.2 6.1 1 5
+ 20.102952 6 12 tcp 83 ------- 10 6.6 0.1 1 10
- 20.102952 6 12 tcp 83 ------- 10 6.6 0.1 1 10
r 20.103394 12 6 tcp 83 ------- 3 2.2 6.2 1 6
r 20.103837 12 6 tcp 83 ------- 5 3.2 6.3 1 7
r 20.10428 12 6 tcp 83 ------- 7 4.2 6.4 1 8
r 20.104722 12 6 tcp 83 ------- 9 5.2 6.5 1 9
r 20.153394 6 12 tcp 83 ------- 10 6.6 0.1 1 10
+ 20.153394 12 1 tcp 83 ------- 10 6.6 0.1 1 10
- 20.153394 12 1 tcp 83 ------- 10 6.6 0.1 1 10
r 20.203837 12 1 tcp 83 ------- 10 6.6 0.1 1 10
+ 20.203837 1 0 tcp 83 ------- 10 6.6 0.1 1 10
- 20.203837 1 0 tcp 83 ------- 10 6.6 0.1 1 10
r 20.30428 1 0 tcp 83 ------- 10 6.6 0.1 1 10
+ 20.30428 0 1 tcp 1064 ------- 10 0.1 6.6 1 11
- 20.30428 0 1 tcp 1064 ------- 10 0.1 6.6 1 11
r 20.409954 0 1 tcp 1064 ------- 10 0.1 6.6 1 11
+ 20.409954 1 12 tcp 1064 ------- 10 0.1 6.6 1 11
- 20.409954 1 12 tcp 1064 ------- 10 0.1 6.6 1 11
r 20.465629 1 12 tcp 1064 ------- 10 0.1 6.6 1 11
+ 20.465629 12 6 tcp 1064 ------- 10 0.1 6.6 1 11
- 20.465629 12 6 tcp 1064 ------- 10 0.1 6.6 1 11
r 20.521304 12 6 tcp 1064 ------- 10 0.1 6.6 1 11
+ 20.521304 6 12 tcp 1064 ------- 1 6.1 1.2 1 12
- 20.521304 6 12 tcp 1064 ------- 1 6.1 1.2 1 12
+ 20.521304 6 12 tcp 1064 ------- 3 6.2 2.2 1 13
+ 20.521304 6 12 tcp 1064 ------- 5 6.3 3.2 1 14
+ 20.521304 6 12 tcp 1064 ------- 7 6.4 4.2 1 15
+ 20.521304 6 12 tcp 1064 ------- 9 6.5 5.2 1 16
- 20.526978 6 12 tcp 1064 ------- 3 6.2 2.2 1 13
- 20.532653 6 12 tcp 1064 ------- 5 6.3 3.2 1 14
- 20.538328 6 12 tcp 1064 ------- 7 6.4 4.2 1 15
- 20.544002 6 12 tcp 1064 ------- 9 6.5 5.2 1 16
r 20.576978 6 12 tcp 1064 ------- 1 6.1 1.2 1 12
+ 20.576978 12 1 tcp 1064 ------- 1 6.1 1.2 1 12
- 20.576978 12 1 tcp 1064 ------- 1 6.1 1.2 1 12
r 20.582653 6 12 tcp 1064 ------- 3 6.2 2.2 1 13
+ 20.582653 12 2 tcp 1064 ------- 3 6.2 2.2 1 13
- 20.582653 12 2 tcp 1064 ------- 3 6.2 2.2 1 13
r 20.588328 6 12 tcp 1064 ------- 5 6.3 3.2 1 14
+ 20.588328 12 3 tcp 1064 ------- 5 6.3 3.2 1 14
- 20.588328 12 3 tcp 1064 ------- 5 6.3 3.2 1 14
r 20.594002 6 12 tcp 1064 ------- 7 6.4 4.2 1 15
+ 20.594002 12 4 tcp 1064 ------- 7 6.4 4.2 1 15
- 20.594002 12 4 tcp 1064 ------- 7 6.4 4.2 1 15
r 20.599677 6 12 tcp 1064 ------- 9 6.5 5.2 1 16
+ 20.599677 12 5 tcp 1064 ------- 9 6.5 5.2 1 16
- 20.599677 12 5 tcp 1064 ------- 9 6.5 5.2 1 16
r 20.632653 12 1 tcp 1064 ------- 1 6.1 1.2 1 12
+ 20.632653 1 7 tcp 1064 ------- 0 1.1 7.1 1 17
- 20.632653 1 7 tcp 1064 ------- 0 1.1 7.1 1 17
r 20.635504 1 7 tcp 1064 ------- 0 1.1 7.1 1 17
r 20.638328 12 2 tcp 1064 ------- 3 6.2 2.2 1 13
+ 20.638328 2 8 tcp 1064 ------- 2 2.1 8.1 1 18
- 20.638328 2 8 tcp 1064 ------- 2 2.1 8.1 1 18
r 20.641179 2 8 tcp 1064 ------- 2 2.1 8.1 1 18
r 20.644002 12 3 tcp 1064 ------- 5 6.3 3.2 1 14
+ 20.644002 3 9 tcp 1064 ------- 4 3.1 9.1 1 19
- 20.644002 3 9 tcp 1064 ------- 4 3.1 9.1 1 19
r 20.646854 3 9 tcp 1064 ------- 4 3.1 9.1 1 19
r 20.649677 12 4 tcp 1064 ------- 7 6.4 4.2 1 15
+ 20.649677 4 10 tcp 1064 ------- 6 4.1 10.1 1 20
- 20.649677 4 10 tcp 1064 ------- 6 4.1 10.1 1 20
r 20.652528 4 10 tcp 1064 ------- 6 4.1 10.1 1 20
r 20.655352 12 5 tcp 1064 ------- 9 6.5 5.2 1 16
+ 20.655352 5 11 tcp 1064 ------- 8 5.1 11.1 1 21
- 20.655352 5 11 tcp 1064 ------- 8 5.1 11.1 1 21
r 20.658203 5 11 tcp 1064 ------- 8 5.1 11.1 1 21
v 20.790064080000001 eval {set sim_annotation {S 0 INV _o434:0}}
v 23.215554350000001 eval {set sim_annotation {S 0 INV _o434:0}}
v 29.11838479 eval {set sim_annotation {S 0 INV _o434:0}}
+ 31.291471 7 1 tcp 83 ------- 0 7.1 1.1 2 22
- 31.291471 7 1 tcp 83 ------- 0 7.1 1.1 2 22
r 31.293537 7 1 tcp 83 ------- 0 7.1 1.1 2 22
+ 31.293537 1 12 tcp 90 ------- 1 1.2 6.1 2 23
- 31.293537 1 12 tcp 90 ------- 1 1.2 6.1 2 23
r 31.344017 1 12 tcp 90 ------- 1 1.2 6.1 2 23
+ 31.344017 12 6 tcp 90 ------- 1 1.2 6.1 2 23
- 31.344017 12 6 tcp 90 ------- 1 1.2 6.1 2 23
r 31.394497 12 6 tcp 90 ------- 1 1.2 6.1 2 23
+ 31.394497 6 12 tcp 90 ------- 10 6.6 0.1 2 24
- 31.394497 6 12 tcp 90 ------- 10 6.6 0.1 2 24
r 31.444977 6 12 tcp 90 ------- 10 6.6 0.1 2 24
+ 31.444977 12 1 tcp 90 ------- 10 6.6 0.1 2 24
- 31.444977 12 1 tcp 90 ------- 10 6.6 0.1 2 24
r 31.495457 12 1 tcp 90 ------- 10 6.6 0.1 2 24
+ 31.495457 1 0 tcp 90 ------- 10 6.6 0.1 2 24
- 31.495457 1 0 tcp 90 ------- 10 6.6 0.1 2 24
r 31.595937 1 0 tcp 90 ------- 10 6.6 0.1 2 24
+ 31.595937 0 1 tcp 1064 ------- 10 0.1 6.6 2 25
- 31.595937 0 1 tcp 1064 ------- 10 0.1 6.6 2 25
r 31.701612 0 1 tcp 1064 ------- 10 0.1 6.6 2 25
+ 31.701612 1 12 tcp 1064 ------- 10 0.1 6.6 2 25
- 31.701612 1 12 tcp 1064 ------- 10 0.1 6.6 2 25
r 31.757286 1 12 tcp 1064 ------- 10 0.1 6.6 2 25
+ 31.757286 12 6 tcp 1064 ------- 10 0.1 6.6 2 25
- 31.757286 12 6 tcp 1064 ------- 10 0.1 6.6 2 25
r 31.812961 12 6 tcp 1064 ------- 10 0.1 6.6 2 25
+ 31.812961 6 12 tcp 1064 ------- 1 6.1 1.2 2 26
- 31.812961 6 12 tcp 1064 ------- 1 6.1 1.2 2 26
r 31.868636 6 12 tcp 1064 ------- 1 6.1 1.2 2 26
+ 31.868636 12 1 tcp 1064 ------- 1 6.1 1.2 2 26
- 31.868636 12 1 tcp 1064 ------- 1 6.1 1.2 2 26
r 31.92431 12 1 tcp 1064 ------- 1 6.1 1.2 2 26
+ 31.92431 1 7 tcp 1064 ------- 0 1.1 7.1 2 27
- 31.92431 1 7 tcp 1064 ------- 0 1.1 7.1 2 27
r 31.927162 1 7 tcp 1064 ------- 0 1.1 7.1 2 27
+ 32.455294 8 2 tcp 83 ------- 2 8.1 2.1 2 28
- 32.455294 8 2 tcp 83 ------- 2 8.1 2.1 2 28
r 32.45736 8 2 tcp 83 ------- 2 8.1 2.1 2 28
+ 32.45736 2 12 tcp 90 ------- 3 2.2 6.2 2 29
- 32.45736 2 12 tcp 90 ------- 3 2.2 6.2 2 29
r 32.50784 2 12 tcp 90 ------- 3 2.2 6.2 2 29
+ 32.50784 12 6 tcp 90 ------- 3 2.2 6.2 2 29
- 32.50784 12 6 tcp 90 ------- 3 2.2 6.2 2 29
r 32.55832 12 6 tcp 90 ------- 3 2.2 6.2 2 29
+ 32.55832 6 12 tcp 1064 ------- 3 6.2 2.2 2 30
- 32.55832 6 12 tcp 1064 ------- 3 6.2 2.2 2 30
r 32.613995 6 12 tcp 1064 ------- 3 6.2 2.2 2 30
+ 32.613995 12 2 tcp 1064 ------- 3 6.2 2.2 2 30
- 32.613995 12 2 tcp 1064 ------- 3 6.2 2.2 2 30
r 32.66967 12 2 tcp 1064 ------- 3 6.2 2.2 2 30
+ 32.66967 2 8 tcp 1064 ------- 2 2.1 8.1 2 31
- 32.66967 2 8 tcp 1064 ------- 2 2.1 8.1 2 31
r 32.672521 2 8 tcp 1064 ------- 2 2.1 8.1 2 31
+ 33.473326 11 5 tcp 83 ------- 8 11.1 5.1 2 32
- 33.473326 11 5 tcp 83 ------- 8 11.1 5.1 2 32
r 33.475392 11 5 tcp 83 ------- 8 11.1 5.1 2 32
+ 33.475392 5 12 tcp 90 ------- 9 5.2 6.5 2 33
- 33.475392 5 12 tcp 90 ------- 9 5.2 6.5 2 33
r 33.525872 5 12 tcp 90 ------- 9 5.2 6.5 2 33
+ 33.525872 12 6 tcp 90 ------- 9 5.2 6.5 2 33
- 33.525872 12 6 tcp 90 ------- 9 5.2 6.5 2 33
r 33.576352 12 6 tcp 90 ------- 9 5.2 6.5 2 33
+ 33.576352 6 12 tcp 1064 ------- 9 6.5 5.2 2 34
- 33.576352 6 12 tcp 1064 ------- 9 6.5 5.2 2 34
r 33.632027 6 12 tcp 1064 ------- 9 6.5 5.2 2 34
+ 33.632027 12 5 tcp 1064 ------- 9 6.5 5.2 2 34
- 33.632027 12 5 tcp 1064 ------- 9 6.5 5.2 2 34
r 33.687702 12 5 tcp 1064 ------- 9 6.5 5.2 2 34
+ 33.687702 5 11 tcp 1064 ------- 8 5.1 11.1 2 35
- 33.687702 5 11 tcp 1064 ------- 8 5.1 11.1 2 35
r 33.690553 5 11 tcp 1064 ------- 8 5.1 11.1 2 35
+ 34.541698 9 3 tcp 83 ------- 4 9.1 3.1 2 36
- 34.541698 9 3 tcp 83 ------- 4 9.1 3.1 2 36
r 34.543764 9 3 tcp 83 ------- 4 9.1 3.1 2 36
+ 34.543764 3 12 tcp 90 ------- 5 3.2 6.3 2 37
- 34.543764 3 12 tcp 90 ------- 5 3.2 6.3 2 37
r 34.594244 3 12 tcp 90 ------- 5 3.2 6.3 2 37
+ 34.594244 12 6 tcp 90 ------- 5 3.2 6.3 2 37
- 34.594244 12 6 tcp 90 ------- 5 3.2 6.3 2 37
r 34.644724 12 6 tcp 90 ------- 5 3.2 6.3 2 37
+ 34.644724 6 12 tcp 1064 ------- 5 6.3 3.2 2 38
- 34.644724 6 12 tcp 1064 ------- 5 6.3 3.2 2 38
r 34.700399 6 12 tcp 1064 ------- 5 6.3 3.2 2 38
+ 34.700399 12 3 tcp 1064 ------- 5 6.3 3.2 2 38
- 34.700399 12 3 tcp 1064 ------- 5 6.3 3.2 2 38
r 34.756074 12 3 tcp 1064 ------- 5 6.3 3.2 2 38
+ 34.756074 3 9 tcp 1064 ------- 4 3.1 9.1 2 39
- 34.756074 3 9 tcp 1064 ------- 4 3.1 9.1 2 39
r 34.758925 3 9 tcp 1064 ------- 4 3.1 9.1 2 39
+ 35.818857 8 2 tcp 83 ------- 2 8.1 2.1 3 40
- 35.818857 8 2 tcp 83 ------- 2 8.1 2.1 3 40
r 35.820923 8 2 tcp 83 ------- 2 8.1 2.1 3 40
+ 35.820923 2 8 tcp 1064 ------- 2 2.1 8.1 3 41
- 35.820923 2 8 tcp 1064 ------- 2 2.1 8.1 3 41
r 35.823775 2 8 tcp 1064 ------- 2 2.1 8.1 3 41
+ 39.594716 8 2 tcp 83 ------- 2 8.1 2.1 4 42
- 39.594716 8 2 tcp 83 ------- 2 8.1 2.1 4 42
r 39.596782 8 2 tcp 83 ------- 2 8.1 2.1 4 42
+ 39.596782 2 8 tcp 1064 ------- 2 2.1 8.1 4 43
- 39.596782 2 8 tcp 1064 ------- 2 2.1 8.1 4 43
r 39.599634 2 8 tcp 1064 ------- 2 2.1 8.1 4 43
+ 42.039988 8 2 tcp 83 ------- 2 8.1 2.1 5 44
- 42.039988 8 2 tcp 83 ------- 2 8.1 2.1 5 44
r 42.042054 8 2 tcp 83 ------- 2 8.1 2.1 5 44
+ 42.042054 2 8 tcp 1064 ------- 2 2.1 8.1 5 45
- 42.042054 2 8 tcp 1064 ------- 2 2.1 8.1 5 45
r 42.044906 2 8 tcp 1064 ------- 2 2.1 8.1 5 45
+ 42.246471 7 1 tcp 83 ------- 0 7.1 1.1 3 46
- 42.246471 7 1 tcp 83 ------- 0 7.1 1.1 3 46
r 42.248537 7 1 tcp 83 ------- 0 7.1 1.1 3 46
+ 42.248537 1 7 tcp 1064 ------- 0 1.1 7.1 3 47
- 42.248537 1 7 tcp 1064 ------- 0 1.1 7.1 3 47
r 42.251388 1 7 tcp 1064 ------- 0 1.1 7.1 3 47
+ 42.952626 9 3 tcp 83 ------- 4 9.1 3.1 3 48
- 42.952626 9 3 tcp 83 ------- 4 9.1 3.1 3 48
r 42.954692 9 3 tcp 83 ------- 4 9.1 3.1 3 48
+ 42.954692 3 9 tcp 1064 ------- 4 3.1 9.1 3 49
- 42.954692 3 9 tcp 1064 ------- 4 3.1 9.1 3 49
r 42.957544 3 9 tcp 1064 ------- 4 3.1 9.1 3 49
+ 44.425318 9 3 tcp 83 ------- 4 9.1 3.1 4 50
- 44.425318 9 3 tcp 83 ------- 4 9.1 3.1 4 50
r 44.427384 9 3 tcp 83 ------- 4 9.1 3.1 4 50
+ 44.427384 3 9 tcp 1064 ------- 4 3.1 9.1 4 51
- 44.427384 3 9 tcp 1064 ------- 4 3.1 9.1 4 51
r 44.430236 3 9 tcp 1064 ------- 4 3.1 9.1 4 51
+ 46.318036 9 3 tcp 83 ------- 4 9.1 3.1 5 52
- 46.318036 9 3 tcp 83 ------- 4 9.1 3.1 5 52
r 46.320102 9 3 tcp 83 ------- 4 9.1 3.1 5 52
+ 46.320102 3 9 tcp 1064 ------- 4 3.1 9.1 5 53
- 46.320102 3 9 tcp 1064 ------- 4 3.1 9.1 5 53
r 46.322954 3 9 tcp 1064 ------- 4 3.1 9.1 5 53
+ 47.470562 9 3 tcp 83 ------- 4 9.1 3.1 6 54
- 47.470562 9 3 tcp 83 ------- 4 9.1 3.1 6 54
r 47.472628 9 3 tcp 83 ------- 4 9.1 3.1 6 54
+ 47.472628 3 9 tcp 1064 ------- 4 3.1 9.1 6 55
- 47.472628 3 9 tcp 1064 ------- 4 3.1 9.1 6 55
r 47.47548 3 9 tcp 1064 ------- 4 3.1 9.1 6 55
+ 47.684901 8 2 tcp 83 ------- 2 8.1 2.1 6 56
- 47.684901 8 2 tcp 83 ------- 2 8.1 2.1 6 56
r 47.686967 8 2 tcp 83 ------- 2 8.1 2.1 6 56
+ 47.686967 2 8 tcp 1064 ------- 2 2.1 8.1 6 57
- 47.686967 2 8 tcp 1064 ------- 2 2.1 8.1 6 57
r 47.689819 2 8 tcp 1064 ------- 2 2.1 8.1 6 57
+ 48.837533 9 3 tcp 83 ------- 4 9.1 3.1 7 58
- 48.837533 9 3 tcp 83 ------- 4 9.1 3.1 7 58
r 48.839599 9 3 tcp 83 ------- 4 9.1 3.1 7 58
+ 48.839599 3 9 tcp 1064 ------- 4 3.1 9.1 7 59
- 48.839599 3 9 tcp 1064 ------- 4 3.1 9.1 7 59
r 48.842451 3 9 tcp 1064 ------- 4 3.1 9.1 7 59
+ 50.091307 7 1 tcp 83 ------- 0 7.1 1.1 4 60
- 50.091307 7 1 tcp 83 ------- 0 7.1 1.1 4 60
r 50.093373 7 1 tcp 83 ------- 0 7.1 1.1 4 60
+ 50.093373 1 7 tcp 1064 ------- 0 1.1 7.1 4 61
- 50.093373 1 7 tcp 1064 ------- 0 1.1 7.1 4 61
r 50.096224 1 7 tcp 1064 ------- 0 1.1 7.1 4 61
+ 52.210855 9 3 tcp 83 ------- 4 9.1 3.1 8 62
- 52.210855 9 3 tcp 83 ------- 4 9.1 3.1 8 62
r 52.212921 9 3 tcp 83 ------- 4 9.1 3.1 8 62
+ 52.212921 3 9 tcp 1064 ------- 4 3.1 9.1 8 63
- 52.212921 3 9 tcp 1064 ------- 4 3.1 9.1 8 63
r 52.215773 3 9 tcp 1064 ------- 4 3.1 9.1 8 63
+ 52.327628 7 1 tcp 83 ------- 0 7.1 1.1 5 64
- 52.327628 7 1 tcp 83 ------- 0 7.1 1.1 5 64
r 52.329694 7 1 tcp 83 ------- 0 7.1 1.1 5 64
+ 52.329694 1 7 tcp 1064 ------- 0 1.1 7.1 5 65
- 52.329694 1 7 tcp 1064 ------- 0 1.1 7.1 5 65
r 52.332545 1 7 tcp 1064 ------- 0 1.1 7.1 5 65
+ 53.32416 10 4 tcp 83 ------- 6 10.1 4.1 2 66
- 53.32416 10 4 tcp 83 ------- 6 10.1 4.1 2 66
r 53.326226 10 4 tcp 83 ------- 6 10.1 4.1 2 66
+ 53.326226 4 12 tcp 90 ------- 7 4.2 6.4 2 67
- 53.326226 4 12 tcp 90 ------- 7 4.2 6.4 2 67
r 53.376706 4 12 tcp 90 ------- 7 4.2 6.4 2 67
+ 53.376706 12 6 tcp 90 ------- 7 4.2 6.4 2 67
- 53.376706 12 6 tcp 90 ------- 7 4.2 6.4 2 67
r 53.427186 12 6 tcp 90 ------- 7 4.2 6.4 2 67
+ 53.427186 6 12 tcp 1064 ------- 7 6.4 4.2 2 68
- 53.427186 6 12 tcp 1064 ------- 7 6.4 4.2 2 68
r 53.482861 6 12 tcp 1064 ------- 7 6.4 4.2 2 68
+ 53.482861 12 4 tcp 1064 ------- 7 6.4 4.2 2 68
- 53.482861 12 4 tcp 1064 ------- 7 6.4 4.2 2 68
r 53.538536 12 4 tcp 1064 ------- 7 6.4 4.2 2 68
+ 53.538536 4 10 tcp 1064 ------- 6 4.1 10.1 2 69
- 53.538536 4 10 tcp 1064 ------- 6 4.1 10.1 2 69
r 53.541387 4 10 tcp 1064 ------- 6 4.1 10.1 2 69
+ 53.608256 11 5 tcp 83 ------- 8 11.1 5.1 3 70
- 53.608256 11 5 tcp 83 ------- 8 11.1 5.1 3 70
r 53.610322 11 5 tcp 83 ------- 8 11.1 5.1 3 70
+ 53.610322 5 11 tcp 1064 ------- 8 5.1 11.1 3 71
- 53.610322 5 11 tcp 1064 ------- 8 5.1 11.1 3 71
r 53.613174 5 11 tcp 1064 ------- 8 5.1 11.1 3 71
+ 54.449476 10 4 tcp 83 ------- 6 10.1 4.1 3 72
- 54.449476 10 4 tcp 83 ------- 6 10.1 4.1 3 72
r 54.451542 10 4 tcp 83 ------- 6 10.1 4.1 3 72
+ 54.451542 4 10 tcp 1064 ------- 6 4.1 10.1 3 73
- 54.451542 4 10 tcp 1064 ------- 6 4.1 10.1 3 73
r 54.454394 4 10 tcp 1064 ------- 6 4.1 10.1 3 73
+ 54.618395 9 3 tcp 83 ------- 4 9.1 3.1 9 74
- 54.618395 9 3 tcp 83 ------- 4 9.1 3.1 9 74
r 54.620461 9 3 tcp 83 ------- 4 9.1 3.1 9 74
+ 54.620461 3 9 tcp 1064 ------- 4 3.1 9.1 9 75
- 54.620461 3 9 tcp 1064 ------- 4 3.1 9.1 9 75
r 54.623313 3 9 tcp 1064 ------- 4 3.1 9.1 9 75
+ 56.591787 9 3 tcp 83 ------- 4 9.1 3.1 10 76
- 56.591787 9 3 tcp 83 ------- 4 9.1 3.1 10 76
r 56.593853 9 3 tcp 83 ------- 4 9.1 3.1 10 76
+ 56.593853 3 9 tcp 1064 ------- 4 3.1 9.1 10 77
- 56.593853 3 9 tcp 1064 ------- 4 3.1 9.1 10 77
r 56.596705 3 9 tcp 1064 ------- 4 3.1 9.1 10 77
+ 57.368325 11 5 tcp 83 ------- 8 11.1 5.1 4 78
- 57.368325 11 5 tcp 83 ------- 8 11.1 5.1 4 78
r 57.370391 11 5 tcp 83 ------- 8 11.1 5.1 4 78
+ 57.370391 5 11 tcp 1064 ------- 8 5.1 11.1 4 79
- 57.370391 5 11 tcp 1064 ------- 8 5.1 11.1 4 79
r 57.373243 5 11 tcp 1064 ------- 8 5.1 11.1 4 79
+ 61.985405 10 4 tcp 83 ------- 6 10.1 4.1 4 80
- 61.985405 10 4 tcp 83 ------- 6 10.1 4.1 4 80
r 61.987471 10 4 tcp 83 ------- 6 10.1 4.1 4 80
+ 61.987471 4 10 tcp 1064 ------- 6 4.1 10.1 4 81
- 61.987471 4 10 tcp 1064 ------- 6 4.1 10.1 4 81
r 61.990323 4 10 tcp 1064 ------- 6 4.1 10.1 4 81
+ 63.893306 11 5 tcp 83 ------- 8 11.1 5.1 5 82
- 63.893306 11 5 tcp 83 ------- 8 11.1 5.1 5 82
r 63.895372 11 5 tcp 83 ------- 8 11.1 5.1 5 82
+ 63.895372 5 11 tcp 1064 ------- 8 5.1 11.1 5 83
- 63.895372 5 11 tcp 1064 ------- 8 5.1 11.1 5 83
r 63.898224 5 11 tcp 1064 ------- 8 5.1 11.1 5 83
+ 64.476318 11 5 tcp 83 ------- 8 11.1 5.1 6 84
- 64.476318 11 5 tcp 83 ------- 8 11.1 5.1 6 84
r 64.478384 11 5 tcp 83 ------- 8 11.1 5.1 6 84
+ 64.478384 5 11 tcp 1064 ------- 8 5.1 11.1 6 85
- 64.478384 5 11 tcp 1064 ------- 8 5.1 11.1 6 85
r 64.481236 5 11 tcp 1064 ------- 8 5.1 11.1 6 85
v 66.325311720000002 eval {set sim_annotation {S 0 INV _o434:0}}
+ 68.389097 9 3 tcp 83 ------- 4 9.1 3.1 11 86
- 68.389097 9 3 tcp 83 ------- 4 9.1 3.1 11 86
r 68.391163 9 3 tcp 83 ------- 4 9.1 3.1 11 86
+ 68.391163 3 12 tcp 90 ------- 5 3.2 6.3 3 87
- 68.391163 3 12 tcp 90 ------- 5 3.2 6.3 3 87
+ 68.426028 7 1 tcp 83 ------- 0 7.1 1.1 6 88
- 68.426028 7 1 tcp 83 ------- 0 7.1 1.1 6 88
r 68.428094 7 1 tcp 83 ------- 0 7.1 1.1 6 88
+ 68.428094 1 12 tcp 90 ------- 1 1.2 6.1 3 89
- 68.428094 1 12 tcp 90 ------- 1 1.2 6.1 3 89
r 68.441643 3 12 tcp 90 ------- 5 3.2 6.3 3 87
+ 68.441643 12 6 tcp 90 ------- 5 3.2 6.3 3 87
- 68.441643 12 6 tcp 90 ------- 5 3.2 6.3 3 87
r 68.478574 1 12 tcp 90 ------- 1 1.2 6.1 3 89
+ 68.478574 12 6 tcp 90 ------- 1 1.2 6.1 3 89
- 68.478574 12 6 tcp 90 ------- 1 1.2 6.1 3 89
r 68.492123 12 6 tcp 90 ------- 5 3.2 6.3 3 87
+ 68.492123 6 12 tcp 90 ------- 10 6.6 0.1 3 90
- 68.492123 6 12 tcp 90 ------- 10 6.6 0.1 3 90
r 68.529054 12 6 tcp 90 ------- 1 1.2 6.1 3 89
r 68.542603 6 12 tcp 90 ------- 10 6.6 0.1 3 90
+ 68.542603 12 1 tcp 90 ------- 10 6.6 0.1 3 90
- 68.542603 12 1 tcp 90 ------- 10 6.6 0.1 3 90
r 68.593083 12 1 tcp 90 ------- 10 6.6 0.1 3 90
+ 68.593083 1 0 tcp 90 ------- 10 6.6 0.1 3 90
- 68.593083 1 0 tcp 90 ------- 10 6.6 0.1 3 90
r 68.693563 1 0 tcp 90 ------- 10 6.6 0.1 3 90
+ 68.693563 0 1 tcp 1064 ------- 10 0.1 6.6 3 91
- 68.693563 0 1 tcp 1064 ------- 10 0.1 6.6 3 91
r 68.799238 0 1 tcp 1064 ------- 10 0.1 6.6 3 91
+ 68.799238 1 12 tcp 1064 ------- 10 0.1 6.6 3 91
- 68.799238 1 12 tcp 1064 ------- 10 0.1 6.6 3 91
r 68.854913 1 12 tcp 1064 ------- 10 0.1 6.6 3 91
+ 68.854913 12 6 tcp 1064 ------- 10 0.1 6.6 3 91
- 68.854913 12 6 tcp 1064 ------- 10 0.1 6.6 3 91
r 68.910587 12 6 tcp 1064 ------- 10 0.1 6.6 3 91
+ 68.910587 6 12 tcp 1064 ------- 5 6.3 3.2 3 92
- 68.910587 6 12 tcp 1064 ------- 5 6.3 3.2 3 92
+ 68.910587 6 12 tcp 1064 ------- 1 6.1 1.2 3 93
- 68.916262 6 12 tcp 1064 ------- 1 6.1 1.2 3 93
r 68.966262 6 12 tcp 1064 ------- 5 6.3 3.2 3 92
+ 68.966262 12 3 tcp 1064 ------- 5 6.3 3.2 3 92
- 68.966262 12 3 tcp 1064 ------- 5 6.3 3.2 3 92
r 68.971937 6 12 tcp 1064 ------- 1 6.1 1.2 3 93
+ 68.971937 12 1 tcp 1064 ------- 1 6.1 1.2 3 93
- 68.971937 12 1 tcp 1064 ------- 1 6.1 1.2 3 93
r 69.021937 12 3 tcp 1064 ------- 5 6.3 3.2 3 92
+ 69.021937 3 9 tcp 1064 ------- 4 3.1 9.1 11 94
- 69.021937 3 9 tcp 1064 ------- 4 3.1 9.1 11 94
r 69.024788 3 9 tcp 1064 ------- 4 3.1 9.1 11 94
r 69.027611 12 1 tcp 1064 ------- 1 6.1 1.2 3 93
+ 69.027611 1 7 tcp 1064 ------- 0 1.1 7.1 6 95
- 69.027611 1 7 tcp 1064 ------- 0 1.1 7.1 6 95
r 69.030463 1 7 tcp 1064 ------- 0 1.1 7.1 6 95
+ 69.791849 11 5 tcp 83 ------- 8 11.1 5.1 7 96
- 69.791849 11 5 tcp 83 ------- 8 11.1 5.1 7 96
r 69.793915 11 5 tcp 83 ------- 8 11.1 5.1 7 96
+ 69.793915 5 12 tcp 90 ------- 9 5.2 6.5 3 97
- 69.793915 5 12 tcp 90 ------- 9 5.2 6.5 3 97
r 69.844395 5 12 tcp 90 ------- 9 5.2 6.5 3 97
+ 69.844395 12 6 tcp 90 ------- 9 5.2 6.5 3 97
- 69.844395 12 6 tcp 90 ------- 9 5.2 6.5 3 97
r 69.894875 12 6 tcp 90 ------- 9 5.2 6.5 3 97
+ 69.894875 6 12 tcp 1064 ------- 9 6.5 5.2 3 98
- 69.894875 6 12 tcp 1064 ------- 9 6.5 5.2 3 98
r 69.95055 6 12 tcp 1064 ------- 9 6.5 5.2 3 98
+ 69.95055 12 5 tcp 1064 ------- 9 6.5 5.2 3 98
- 69.95055 12 5 tcp 1064 ------- 9 6.5 5.2 3 98
r 70.006225 12 5 tcp 1064 ------- 9 6.5 5.2 3 98
+ 70.006225 5 11 tcp 1064 ------- 8 5.1 11.1 7 99
- 70.006225 5 11 tcp 1064 ------- 8 5.1 11.1 7 99
r 70.009076 5 11 tcp 1064 ------- 8 5.1 11.1 7 99
v 70.447521519999995 eval {set sim_annotation {S 0 INV _o434:0}}
+ 71.528791 10 4 tcp 83 ------- 6 10.1 4.1 5 100
- 71.528791 10 4 tcp 83 ------- 6 10.1 4.1 5 100
r 71.530857 10 4 tcp 83 ------- 6 10.1 4.1 5 100
+ 71.530857 4 12 tcp 90 ------- 7 4.2 6.4 3 101
- 71.530857 4 12 tcp 90 ------- 7 4.2 6.4 3 101
r 71.581337 4 12 tcp 90 ------- 7 4.2 6.4 3 101
+ 71.581337 12 6 tcp 90 ------- 7 4.2 6.4 3 101
- 71.581337 12 6 tcp 90 ------- 7 4.2 6.4 3 101
r 71.631817 12 6 tcp 90 ------- 7 4.2 6.4 3 101
+ 71.631817 6 12 tcp 90 ------- 10 6.6 0.1 4 102
- 71.631817 6 12 tcp 90 ------- 10 6.6 0.1 4 102
r 71.682297 6 12 tcp 90 ------- 10 6.6 0.1 4 102
+ 71.682297 12 1 tcp 90 ------- 10 6.6 0.1 4 102
- 71.682297 12 1 tcp 90 ------- 10 6.6 0.1 4 102
r 71.732777 12 1 tcp 90 ------- 10 6.6 0.1 4 102
+ 71.732777 1 0 tcp 90 ------- 10 6.6 0.1 4 102
- 71.732777 1 0 tcp 90 ------- 10 6.6 0.1 4 102
r 71.833257 1 0 tcp 90 ------- 10 6.6 0.1 4 102
+ 71.833257 0 1 tcp 1064 ------- 10 0.1 6.6 4 103
- 71.833257 0 1 tcp 1064 ------- 10 0.1 6.6 4 103
r 71.938932 0 1 tcp 1064 ------- 10 0.1 6.6 4 103
+ 71.938932 1 12 tcp 1064 ------- 10 0.1 6.6 4 103
- 71.938932 1 12 tcp 1064 ------- 10 0.1 6.6 4 103
r 71.994607 1 12 tcp 1064 ------- 10 0.1 6.6 4 103
+ 71.994607 12 6 tcp 1064 ------- 10 0.1 6.6 4 103
- 71.994607 12 6 tcp 1064 ------- 10 0.1 6.6 4 103
r 72.050281 12 6 tcp 1064 ------- 10 0.1 6.6 4 103
+ 72.050281 6 12 tcp 1064 ------- 7 6.4 4.2 3 104
- 72.050281 6 12 tcp 1064 ------- 7 6.4 4.2 3 104
r 72.105956 6 12 tcp 1064 ------- 7 6.4 4.2 3 104
+ 72.105956 12 4 tcp 1064 ------- 7 6.4 4.2 3 104
- 72.105956 12 4 tcp 1064 ------- 7 6.4 4.2 3 104
r 72.161631 12 4 tcp 1064 ------- 7 6.4 4.2 3 104
+ 72.161631 4 10 tcp 1064 ------- 6 4.1 10.1 5 105
- 72.161631 4 10 tcp 1064 ------- 6 4.1 10.1 5 105
r 72.164482 4 10 tcp 1064 ------- 6 4.1 10.1 5 105
+ 73.609015 7 1 tcp 83 ------- 0 7.1 1.1 7 106
- 73.609015 7 1 tcp 83 ------- 0 7.1 1.1 7 106
r 73.611081 7 1 tcp 83 ------- 0 7.1 1.1 7 106
+ 73.611081 1 12 tcp 90 ------- 1 1.2 6.1 4 107
- 73.611081 1 12 tcp 90 ------- 1 1.2 6.1 4 107
r 73.661561 1 12 tcp 90 ------- 1 1.2 6.1 4 107
+ 73.661561 12 6 tcp 90 ------- 1 1.2 6.1 4 107
- 73.661561 12 6 tcp 90 ------- 1 1.2 6.1 4 107
r 73.712041 12 6 tcp 90 ------- 1 1.2 6.1 4 107
+ 73.712041 6 12 tcp 1064 ------- 1 6.1 1.2 4 108
- 73.712041 6 12 tcp 1064 ------- 1 6.1 1.2 4 108
r 73.767716 6 12 tcp 1064 ------- 1 6.1 1.2 4 108
+ 73.767716 12 1 tcp 1064 ------- 1 6.1 1.2 4 108
- 73.767716 12 1 tcp 1064 ------- 1 6.1 1.2 4 108
r 73.82339 12 1 tcp 1064 ------- 1 6.1 1.2 4 108
+ 73.82339 1 7 tcp 1064 ------- 0 1.1 7.1 7 109
- 73.82339 1 7 tcp 1064 ------- 0 1.1 7.1 7 109
r 73.826242 1 7 tcp 1064 ------- 0 1.1 7.1 7 109
+ 73.910745 9 3 tcp 83 ------- 4 9.1 3.1 12 110
- 73.910745 9 3 tcp 83 ------- 4 9.1 3.1 12 110
r 73.912811 9 3 tcp 83 ------- 4 9.1 3.1 12 110
+ 73.912811 3 12 tcp 90 ------- 5 3.2 6.3 4 111
- 73.912811 3 12 tcp 90 ------- 5 3.2 6.3 4 111
r 73.963291 3 12 tcp 90 ------- 5 3.2 6.3 4 111
+ 73.963291 12 6 tcp 90 ------- 5 3.2 6.3 4 111
- 73.963291 12 6 tcp 90 ------- 5 3.2 6.3 4 111
r 74.013771 12 6 tcp 90 ------- 5 3.2 6.3 4 111
+ 74.013771 6 12 tcp 1064 ------- 5 6.3 3.2 4 112
- 74.013771 6 12 tcp 1064 ------- 5 6.3 3.2 4 112
r 74.069446 6 12 tcp 1064 ------- 5 6.3 3.2 4 112
+ 74.069446 12 3 tcp 1064 ------- 5 6.3 3.2 4 112
- 74.069446 12 3 tcp 1064 ------- 5 6.3 3.2 4 112
+ 74.10336 10 4 tcp 83 ------- 6 10.1 4.1 6 113
- 74.10336 10 4 tcp 83 ------- 6 10.1 4.1 6 113
r 74.105426 10 4 tcp 83 ------- 6 10.1 4.1 6 113
+ 74.105426 4 10 tcp 1064 ------- 6 4.1 10.1 6 114
- 74.105426 4 10 tcp 1064 ------- 6 4.1 10.1 6 114
r 74.108278 4 10 tcp 1064 ------- 6 4.1 10.1 6 114
r 74.125121 12 3 tcp 1064 ------- 5 6.3 3.2 4 112
+ 74.125121 3 9 tcp 1064 ------- 4 3.1 9.1 12 115
- 74.125121 3 9 tcp 1064 ------- 4 3.1 9.1 12 115
r 74.127972 3 9 tcp 1064 ------- 4 3.1 9.1 12 115
+ 76.091867 10 4 tcp 83 ------- 6 10.1 4.1 7 116
- 76.091867 10 4 tcp 83 ------- 6 10.1 4.1 7 116
r 76.093933 10 4 tcp 83 ------- 6 10.1 4.1 7 116
+ 76.093933 4 10 tcp 1064 ------- 6 4.1 10.1 7 117
- 76.093933 4 10 tcp 1064 ------- 6 4.1 10.1 7 117
r 76.096785 4 10 tcp 1064 ------- 6 4.1 10.1 7 117
+ 77.114119 10 4 tcp 83 ------- 6 10.1 4.1 8 118
- 77.114119 10 4 tcp 83 ------- 6 10.1 4.1 8 118
r 77.116185 10 4 tcp 83 ------- 6 10.1 4.1 8 118
+ 77.116185 4 10 tcp 1064 ------- 6 4.1 10.1 8 119
- 77.116185 4 10 tcp 1064 ------- 6 4.1 10.1 8 119
r 77.119037 4 10 tcp 1064 ------- 6 4.1 10.1 8 119
+ 79.168173 7 1 tcp 83 ------- 0 7.1 1.1 8 120
- 79.168173 7 1 tcp 83 ------- 0 7.1 1.1 8 120
r 79.170239 7 1 tcp 83 ------- 0 7.1 1.1 8 120
+ 79.170239 1 7 tcp 1064 ------- 0 1.1 7.1 8 121
- 79.170239 1 7 tcp 1064 ------- 0 1.1 7.1 8 121
r 79.17309 1 7 tcp 1064 ------- 0 1.1 7.1 8 121
+ 80.151709 11 5 tcp 83 ------- 8 11.1 5.1 8 122
- 80.151709 11 5 tcp 83 ------- 8 11.1 5.1 8 122
r 80.153775 11 5 tcp 83 ------- 8 11.1 5.1 8 122
+ 80.153775 5 12 tcp 90 ------- 9 5.2 6.5 4 123
- 80.153775 5 12 tcp 90 ------- 9 5.2 6.5 4 123
r 80.204255 5 12 tcp 90 ------- 9 5.2 6.5 4 123
+ 80.204255 12 6 tcp 90 ------- 9 5.2 6.5 4 123
- 80.204255 12 6 tcp 90 ------- 9 5.2 6.5 4 123
r 80.254735 12 6 tcp 90 ------- 9 5.2 6.5 4 123
+ 80.254735 6 12 tcp 1064 ------- 9 6.5 5.2 4 124
- 80.254735 6 12 tcp 1064 ------- 9 6.5 5.2 4 124
r 80.31041 6 12 tcp 1064 ------- 9 6.5 5.2 4 124
+ 80.31041 12 5 tcp 1064 ------- 9 6.5 5.2 4 124
- 80.31041 12 5 tcp 1064 ------- 9 6.5 5.2 4 124
r 80.366085 12 5 tcp 1064 ------- 9 6.5 5.2 4 124
+ 80.366085 5 11 tcp 1064 ------- 8 5.1 11.1 8 125
- 80.366085 5 11 tcp 1064 ------- 8 5.1 11.1 8 125
r 80.368936 5 11 tcp 1064 ------- 8 5.1 11.1 8 125
+ 81.01991 11 5 tcp 83 ------- 8 11.1 5.1 9 126
- 81.01991 11 5 tcp 83 ------- 8 11.1 5.1 9 126
r 81.021976 11 5 tcp 83 ------- 8 11.1 5.1 9 126
+ 81.021976 5 11 tcp 1064 ------- 8 5.1 11.1 9 127
- 81.021976 5 11 tcp 1064 ------- 8 5.1 11.1 9 127
r 81.024827 5 11 tcp 1064 ------- 8 5.1 11.1 9 127
+ 82.001918 9 3 tcp 83 ------- 4 9.1 3.1 13 128
- 82.001918 9 3 tcp 83 ------- 4 9.1 3.1 13 128
r 82.003984 9 3 tcp 83 ------- 4 9.1 3.1 13 128
+ 82.003984 3 9 tcp 1064 ------- 4 3.1 9.1 13 129
- 82.003984 3 9 tcp 1064 ------- 4 3.1 9.1 13 129
r 82.006836 3 9 tcp 1064 ------- 4 3.1 9.1 13 129
v 88.705856740000002 eval {set sim_annotation {S 0 INV _o434:0}}
+ 91.163726 9 3 tcp 83 ------- 4 9.1 3.1 14 130
- 91.163726 9 3 tcp 83 ------- 4 9.1 3.1 14 130
r 91.165792 9 3 tcp 83 ------- 4 9.1 3.1 14 130
+ 91.165792 3 12 tcp 90 ------- 5 3.2 6.3 5 131
- 91.165792 3 12 tcp 90 ------- 5 3.2 6.3 5 131
+ 91.19005 11 5 tcp 83 ------- 8 11.1 5.1 10 132
- 91.19005 11 5 tcp 83 ------- 8 11.1 5.1 10 132
r 91.192116 11 5 tcp 83 ------- 8 11.1 5.1 10 132
+ 91.192116 5 12 tcp 90 ------- 9 5.2 6.5 5 133
- 91.192116 5 12 tcp 90 ------- 9 5.2 6.5 5 133
r 91.216272 3 12 tcp 90 ------- 5 3.2 6.3 5 131
+ 91.216272 12 6 tcp 90 ------- 5 3.2 6.3 5 131
- 91.216272 12 6 tcp 90 ------- 5 3.2 6.3 5 131
r 91.242596 5 12 tcp 90 ------- 9 5.2 6.5 5 133
+ 91.242596 12 6 tcp 90 ------- 9 5.2 6.5 5 133
- 91.242596 12 6 tcp 90 ------- 9 5.2 6.5 5 133
r 91.266752 12 6 tcp 90 ------- 5 3.2 6.3 5 131
+ 91.266752 6 12 tcp 90 ------- 10 6.6 0.1 5 134
- 91.266752 6 12 tcp 90 ------- 10 6.6 0.1 5 134
r 91.293076 12 6 tcp 90 ------- 9 5.2 6.5 5 133
r 91.317232 6 12 tcp 90 ------- 10 6.6 0.1 5 134
+ 91.317232 12 1 tcp 90 ------- 10 6.6 0.1 5 134
- 91.317232 12 1 tcp 90 ------- 10 6.6 0.1 5 134
r 91.367712 12 1 tcp 90 ------- 10 6.6 0.1 5 134
+ 91.367712 1 0 tcp 90 ------- 10 6.6 0.1 5 134
- 91.367712 1 0 tcp 90 ------- 10 6.6 0.1 5 134
r 91.468192 1 0 tcp 90 ------- 10 6.6 0.1 5 134
+ 91.468192 0 1 tcp 1064 ------- 10 0.1 6.6 5 135
- 91.468192 0 1 tcp 1064 ------- 10 0.1 6.6 5 135
r 91.573867 0 1 tcp 1064 ------- 10 0.1 6.6 5 135
+ 91.573867 1 12 tcp 1064 ------- 10 0.1 6.6 5 135
- 91.573867 1 12 tcp 1064 ------- 10 0.1 6.6 5 135
r 91.629542 1 12 tcp 1064 ------- 10 0.1 6.6 5 135
+ 91.629542 12 6 tcp 1064 ------- 10 0.1 6.6 5 135
- 91.629542 12 6 tcp 1064 ------- 10 0.1 6.6 5 135
r 91.685216 12 6 tcp 1064 ------- 10 0.1 6.6 5 135
+ 91.685216 6 12 tcp 1064 ------- 5 6.3 3.2 5 136
- 91.685216 6 12 tcp 1064 ------- 5 6.3 3.2 5 136
+ 91.685216 6 12 tcp 1064 ------- 9 6.5 5.2 5 137
- 91.690891 6 12 tcp 1064 ------- 9 6.5 5.2 5 137
r 91.740891 6 12 tcp 1064 ------- 5 6.3 3.2 5 136
+ 91.740891 12 3 tcp 1064 ------- 5 6.3 3.2 5 136
- 91.740891 12 3 tcp 1064 ------- 5 6.3 3.2 5 136
r 91.746566 6 12 tcp 1064 ------- 9 6.5 5.2 5 137
+ 91.746566 12 5 tcp 1064 ------- 9 6.5 5.2 5 137
- 91.746566 12 5 tcp 1064 ------- 9 6.5 5.2 5 137
r 91.796566 12 3 tcp 1064 ------- 5 6.3 3.2 5 136
+ 91.796566 3 9 tcp 1064 ------- 4 3.1 9.1 14 138
- 91.796566 3 9 tcp 1064 ------- 4 3.1 9.1 14 138
r 91.799417 3 9 tcp 1064 ------- 4 3.1 9.1 14 138
r 91.80224 12 5 tcp 1064 ------- 9 6.5 5.2 5 137
+ 91.80224 5 11 tcp 1064 ------- 8 5.1 11.1 10 139
- 91.80224 5 11 tcp 1064 ------- 8 5.1 11.1 10 139
r 91.805092 5 11 tcp 1064 ------- 8 5.1 11.1 10 139
+ 92.450978 9 3 tcp 83 ------- 4 9.1 3.1 15 140
- 92.450978 9 3 tcp 83 ------- 4 9.1 3.1 15 140
r 92.453044 9 3 tcp 83 ------- 4 9.1 3.1 15 140
+ 92.453044 3 9 tcp 1064 ------- 4 3.1 9.1 15 141
- 92.453044 3 9 tcp 1064 ------- 4 3.1 9.1 15 141
r 92.455896 3 9 tcp 1064 ------- 4 3.1 9.1 15 141
+ 92.894233 7 1 tcp 83 ------- 0 7.1 1.1 9 142
- 92.894233 7 1 tcp 83 ------- 0 7.1 1.1 9 142
r 92.896299 7 1 tcp 83 ------- 0 7.1 1.1 9 142