# TESTNAME: SimpleTcp
# TOPOLOGY: 2node
# avg-comp-page-age: 40000
# avg-page-age: 60
# avg-page-size: 1024
# avg-req-interval: 60
# client-req-size: 43
# comp-page-size: 51200
# duration: 500
# enable-log: 0
# hb-interval: 30
# max-page-age: 70
# max-page-size: 50000
# max-req-interval: 70
# min-page-age: 50
# min-page-size: 100
# min-req-interval: 50
# nam-trace-all: 1
# ns-random-seed: 188312339
# num-2nd-cache: 5
# num-comp-pages: 1
# prot: SimpleTcp
# scheduler-type: Calendar
# single-page: 1
# ttl: 0.1
# upd-interval: 5
# xtrace-page: webtrace-pglog
# xtrace-req: webtrace-reqlog
+ 2 0 1 tcp 1040 ------- 0 0.0 1.0 1 0
- 2 0 1 tcp 1040 ------- 0 0.0 1.0 1 0
r 2.015547 0 1 tcp 1040 ------- 0 0.0 1.0 1 0
+ 4 1 0 tcp 140 ------- 0 1.0 0.0 1 1
- 4 1 0 tcp 140 ------- 0 1.0 0.0 1 1
r 4.010747 1 0 tcp 140 ------- 0 1.0 0.0 1 1
