# TESTNAME: TcpApp-2node
# TOPOLOGY: 2node
# avg-comp-page-age: 40000
# avg-page-age: 60
# avg-page-size: 1024
# avg-req-interval: 60
# client-req-size: 43
# comp-page-size: 51200
# duration: 500
# enable-log: 0
# hb-interval: 30
# max-page-age: 70
# max-page-size: 50000
# max-req-interval: 70
# min-page-age: 50
# min-page-size: 100
# min-req-interval: 50
# nam-trace-all: 1
# ns-random-seed: 188312339
# num-2nd-cache: 5
# num-comp-pages: 1
# prot: TcpApp-2node
# scheduler-type: Calendar
# single-page: 1
# ttl: 0.1
# upd-interval: 5
# xtrace-page: webtrace-pglog
# xtrace-req: webtrace-reqlog
+ 1 0 1 tcp 40 ------- 1 0.0 1.0 0 0
- 1 0 1 tcp 40 ------- 1 0.0 1.0 0 0
r 1.010213 0 1 tcp 40 ------- 1 0.0 1.0 0 0
+ 1.010213 1 0 ack 40 ------- 2 1.0 0.0 1224 1
- 1.010213 1 0 ack 40 ------- 2 1.0 0.0 1224 1
r 1.020427 1 0 ack 40 ------- 2 1.0 0.0 1224 1
+ 1.020427 0 1 tcp 40 ------- 1 0.0 1.0 1 2
- 1.020427 0 1 tcp 40 ------- 1 0.0 1.0 1 2
+ 1.020427 0 1 tcp 80 ------- 1 0.0 1.0 1 3
- 1.02064 0 1 tcp 80 ------- 1 0.0 1.0 1 3
r 1.03064 0 1 tcp 40 ------- 1 0.0 1.0 1 2
r 1.031067 0 1 tcp 80 ------- 1 0.0 1.0 1 3
+ 1.1 1 0 ack 40 ------- 2 1.0 0.0 1225 4
- 1.1 1 0 ack 40 ------- 2 1.0 0.0 1225 4
r 1.110213 1 0 ack 40 ------- 2 1.0 0.0 1225 4
+ 1.2 1 0 ack 576 ------- 2 1.0 0.0 1225 5
- 1.2 1 0 ack 576 ------- 2 1.0 0.0 1225 5
r 1.213072 1 0 ack 576 ------- 2 1.0 0.0 1225 5
+ 1.213072 0 1 tcp 40 ------- 1 0.0 1.0 41 6
- 1.213072 0 1 tcp 40 ------- 1 0.0 1.0 41 6
r 1.223285 0 1 tcp 40 ------- 1 0.0 1.0 41 6
+ 1.223285 1 0 ack 528 ------- 2 1.0 0.0 1761 7
- 1.223285 1 0 ack 528 ------- 2 1.0 0.0 1761 7
r 1.236101 1 0 ack 528 ------- 2 1.0 0.0 1761 7
+ 1.3 0 1 tcp 40 ------- 1 0.0 1.0 41 8
- 1.3 0 1 tcp 40 ------- 1 0.0 1.0 41 8
r 1.310213 0 1 tcp 40 ------- 1 0.0 1.0 41 8
+ 2.2 1 0 ack 576 ---A--- 2 1.0 0.0 2249 9
- 2.2 1 0 ack 576 ---A--- 2 1.0 0.0 2249 9
r 2.213072 1 0 ack 576 ---A--- 2 1.0 0.0 2249 9
+ 2.213072 0 1 tcp 40 ------- 1 0.0 1.0 41 10
- 2.213072 0 1 tcp 40 ------- 1 0.0 1.0 41 10
r 2.223285 0 1 tcp 40 ------- 1 0.0 1.0 41 10
+ 2.223285 1 0 ack 528 ------- 2 1.0 0.0 2785 11
- 2.223285 1 0 ack 528 ------- 2 1.0 0.0 2785 11
r 2.236101 1 0 ack 528 ------- 2 1.0 0.0 2785 11
+ 2.3 0 1 tcp 40 ------- 1 0.0 1.0 41 12
- 2.3 0 1 tcp 40 ------- 1 0.0 1.0 41 12
r 2.310213 0 1 tcp 40 ------- 1 0.0 1.0 41 12
+ 3.2 1 0 ack 576 ---A--- 2 1.0 0.0 3273 13
- 3.2 1 0 ack 576 ---A--- 2 1.0 0.0 3273 13
r 3.213072 1 0 ack 576 ---A--- 2 1.0 0.0 3273 13
+ 3.213072 0 1 tcp 40 ------- 1 0.0 1.0 41 14
- 3.213072 0 1 tcp 40 ------- 1 0.0 1.0 41 14
r 3.223285 0 1 tcp 40 ------- 1 0.0 1.0 41 14
+ 3.223285 1 0 ack 528 ------- 2 1.0 0.0 3809 15
- 3.223285 1 0 ack 528 ------- 2 1.0 0.0 3809 15
r 3.236101 1 0 ack 528 ------- 2 1.0 0.0 3809 15
+ 3.3 0 1 tcp 40 ------- 1 0.0 1.0 41 16
- 3.3 0 1 tcp 40 ------- 1 0.0 1.0 41 16
r 3.310213 0 1 tcp 40 ------- 1 0.0 1.0 41 16
+ 4.2 1 0 ack 576 ---A--- 2 1.0 0.0 4297 17
- 4.2 1 0 ack 576 ---A--- 2 1.0 0.0 4297 17
r 4.213072 1 0 ack 576 ---A--- 2 1.0 0.0 4297 17
+ 4.213072 0 1 tcp 40 ------- 1 0.0 1.0 41 18
- 4.213072 0 1 tcp 40 ------- 1 0.0 1.0 41 18
r 4.223285 0 1 tcp 40 ------- 1 0.0 1.0 41 18
+ 4.223285 1 0 ack 528 ------- 2 1.0 0.0 4833 19
- 4.223285 1 0 ack 528 ------- 2 1.0 0.0 4833 19
r 4.236101 1 0 ack 528 ------- 2 1.0 0.0 4833 19
+ 4.3 0 1 tcp 40 ------- 1 0.0 1.0 41 20
- 4.3 0 1 tcp 40 ------- 1 0.0 1.0 41 20
r 4.310213 0 1 tcp 40 ------- 1 0.0 1.0 41 20
+ 5.2 1 0 ack 576 ---A--- 2 1.0 0.0 5321 21
- 5.2 1 0 ack 576 ---A--- 2 1.0 0.0 5321 21
r 5.213072 1 0 ack 576 ---A--- 2 1.0 0.0 5321 21
+ 5.213072 0 1 tcp 40 ------- 1 0.0 1.0 41 22
- 5.213072 0 1 tcp 40 ------- 1 0.0 1.0 41 22
r 5.223285 0 1 tcp 40 ------- 1 0.0 1.0 41 22
+ 5.223285 1 0 ack 528 ------- 2 1.0 0.0 5857 23
- 5.223285 1 0 ack 528 ------- 2 1.0 0.0 5857 23
r 5.236101 1 0 ack 528 ------- 2 1.0 0.0 5857 23
+ 5.3 0 1 tcp 40 ------- 1 0.0 1.0 41 24
- 5.3 0 1 tcp 40 ------- 1 0.0 1.0 41 24
r 5.310213 0 1 tcp 40 ------- 1 0.0 1.0 41 24
+ 6.2 1 0 ack 576 ---A--- 2 1.0 0.0 6345 25
- 6.2 1 0 ack 576 ---A--- 2 1.0 0.0 6345 25
r 6.213072 1 0 ack 576 ---A--- 2 1.0 0.0 6345 25
+ 6.213072 0 1 tcp 40 ------- 1 0.0 1.0 41 26
- 6.213072 0 1 tcp 40 ------- 1 0.0 1.0 41 26
r 6.223285 0 1 tcp 40 ------- 1 0.0 1.0 41 26
+ 6.223285 1 0 ack 528 ------- 2 1.0 0.0 6881 27
- 6.223285 1 0 ack 528 ------- 2 1.0 0.0 6881 27
r 6.236101 1 0 ack 528 ------- 2 1.0 0.0 6881 27
+ 6.3 0 1 tcp 40 ------- 1 0.0 1.0 41 28
- 6.3 0 1 tcp 40 ------- 1 0.0 1.0 41 28
r 6.310213 0 1 tcp 40 ------- 1 0.0 1.0 41 28
+ 7.2 1 0 ack 576 ---A--- 2 1.0 0.0 7369 29
- 7.2 1 0 ack 576 ---A--- 2 1.0 0.0 7369 29
r 7.213072 1 0 ack 576 ---A--- 2 1.0 0.0 7369 29
+ 7.213072 0 1 tcp 40 ------- 1 0.0 1.0 41 30
- 7.213072 0 1 tcp 40 ------- 1 0.0 1.0 41 30
r 7.223285 0 1 tcp 40 ------- 1 0.0 1.0 41 30
+ 7.223285 1 0 ack 528 ------- 2 1.0 0.0 7905 31
- 7.223285 1 0 ack 528 ------- 2 1.0 0.0 7905 31
r 7.236101 1 0 ack 528 ------- 2 1.0 0.0 7905 31
+ 7.3 0 1 tcp 40 ------- 1 0.0 1.0 41 32
- 7.3 0 1 tcp 40 ------- 1 0.0 1.0 41 32
r 7.310213 0 1 tcp 40 ------- 1 0.0 1.0 41 32
+ 8.2 1 0 ack 576 ---A--- 2 1.0 0.0 8393 33
- 8.2 1 0 ack 576 ---A--- 2 1.0 0.0 8393 33
r 8.213072 1 0 ack 576 ---A--- 2 1.0 0.0 8393 33
+ 8.213072 0 1 tcp 40 ------- 1 0.0 1.0 41 34
- 8.213072 0 1 tcp 40 ------- 1 0.0 1.0 41 34
r 8.223285 0 1 tcp 40 ------- 1 0.0 1.0 41 34
+ 8.223285 1 0 ack 528 ------- 2 1.0 0.0 8929 35
- 8.223285 1 0 ack 528 ------- 2 1.0 0.0 8929 35
r 8.236101 1 0 ack 528 ------- 2 1.0 0.0 8929 35
+ 8.3 0 1 tcp 40 ------- 1 0.0 1.0 41 36
- 8.3 0 1 tcp 40 ------- 1 0.0 1.0 41 36
r 8.310213 0 1 tcp 40 ------- 1 0.0 1.0 41 36
+ 9.2 1 0 ack 576 ---A--- 2 1.0 0.0 9417 37
- 9.2 1 0 ack 576 ---A--- 2 1.0 0.0 9417 37
r 9.213072 1 0 ack 576 ---A--- 2 1.0 0.0 9417 37
+ 9.213072 0 1 tcp 40 ------- 1 0.0 1.0 41 38
- 9.213072 0 1 tcp 40 ------- 1 0.0 1.0 41 38
r 9.223285 0 1 tcp 40 ------- 1 0.0 1.0 41 38
+ 9.223285 1 0 ack 528 ------- 2 1.0 0.0 9953 39
- 9.223285 1 0 ack 528 ------- 2 1.0 0.0 9953 39
r 9.236101 1 0 ack 528 ------- 2 1.0 0.0 9953 39
+ 9.3 0 1 tcp 40 ------- 1 0.0 1.0 41 40
- 9.3 0 1 tcp 40 ------- 1 0.0 1.0 41 40
r 9.310213 0 1 tcp 40 ------- 1 0.0 1.0 41 40
+ 10.2 1 0 ack 576 ---A--- 2 1.0 0.0 10441 41
- 10.2 1 0 ack 576 ---A--- 2 1.0 0.0 10441 41
r 10.213072 1 0 ack 576 ---A--- 2 1.0 0.0 10441 41
+ 10.213072 0 1 tcp 40 ------- 1 0.0 1.0 41 42
- 10.213072 0 1 tcp 40 ------- 1 0.0 1.0 41 42
r 10.223285 0 1 tcp 40 ------- 1 0.0 1.0 41 42
+ 10.223285 1 0 ack 528 ------- 2 1.0 0.0 10977 43
- 10.223285 1 0 ack 528 ------- 2 1.0 0.0 10977 43
r 10.236101 1 0 ack 528 ------- 2 1.0 0.0 10977 43
+ 10.3 0 1 tcp 40 ------- 1 0.0 1.0 41 44
- 10.3 0 1 tcp 40 ------- 1 0.0 1.0 41 44
r 10.310213 0 1 tcp 40 ------- 1 0.0 1.0 41 44
+ 11.2 1 0 ack 576 ---A--- 2 1.0 0.0 11465 45
- 11.2 1 0 ack 576 ---A--- 2 1.0 0.0 11465 45
r 11.213072 1 0 ack 576 ---A--- 2 1.0 0.0 11465 45
+ 11.213072 0 1 tcp 40 ------- 1 0.0 1.0 41 46
- 11.213072 0 1 tcp 40 ------- 1 0.0 1.0 41 46
r 11.223285 0 1 tcp 40 ------- 1 0.0 1.0 41 46
+ 11.223285 1 0 ack 528 ------- 2 1.0 0.0 12001 47
- 11.223285 1 0 ack 528 ------- 2 1.0 0.0 12001 47
r 11.236101 1 0 ack 528 ------- 2 1.0 0.0 12001 47
+ 11.3 0 1 tcp 40 ------- 1 0.0 1.0 41 48
- 11.3 0 1 tcp 40 ------- 1 0.0 1.0 41 48
r 11.310213 0 1 tcp 40 ------- 1 0.0 1.0 41 48
+ 12.2 1 0 ack 576 ---A--- 2 1.0 0.0 12489 49
- 12.2 1 0 ack 576 ---A--- 2 1.0 0.0 12489 49
r 12.213072 1 0 ack 576 ---A--- 2 1.0 0.0 12489 49
+ 12.213072 0 1 tcp 40 ------- 1 0.0 1.0 41 50
- 12.213072 0 1 tcp 40 ------- 1 0.0 1.0 41 50
r 12.223285 0 1 tcp 40 ------- 1 0.0 1.0 41 50
+ 12.223285 1 0 ack 528 ------- 2 1.0 0.0 13025 51
- 12.223285 1 0 ack 528 ------- 2 1.0 0.0 13025 51
r 12.236101 1 0 ack 528 ------- 2 1.0 0.0 13025 51
+ 12.3 0 1 tcp 40 ------- 1 0.0 1.0 41 52
- 12.3 0 1 tcp 40 ------- 1 0.0 1.0 41 52
r 12.310213 0 1 tcp 40 ------- 1 0.0 1.0 41 52
+ 13.2 1 0 ack 576 ---A--- 2 1.0 0.0 13513 53
- 13.2 1 0 ack 576 ---A--- 2 1.0 0.0 13513 53
r 13.213072 1 0 ack 576 ---A--- 2 1.0 0.0 13513 53
+ 13.213072 0 1 tcp 40 ------- 1 0.0 1.0 41 54
- 13.213072 0 1 tcp 40 ------- 1 0.0 1.0 41 54
r 13.223285 0 1 tcp 40 ------- 1 0.0 1.0 41 54
+ 13.223285 1 0 ack 528 ------- 2 1.0 0.0 14049 55
- 13.223285 1 0 ack 528 ------- 2 1.0 0.0 14049 55
r 13.236101 1 0 ack 528 ------- 2 1.0 0.0 14049 55
+ 13.3 0 1 tcp 40 ------- 1 0.0 1.0 41 56
- 13.3 0 1 tcp 40 ------- 1 0.0 1.0 41 56
r 13.310213 0 1 tcp 40 ------- 1 0.0 1.0 41 56
+ 14.2 1 0 ack 576 ---A--- 2 1.0 0.0 14537 57
- 14.2 1 0 ack 576 ---A--- 2 1.0 0.0 14537 57
r 14.213072 1 0 ack 576 ---A--- 2 1.0 0.0 14537 57
+ 14.213072 0 1 tcp 40 ------- 1 0.0 1.0 41 58
- 14.213072 0 1 tcp 40 ------- 1 0.0 1.0 41 58
r 14.223285 0 1 tcp 40 ------- 1 0.0 1.0 41 58
+ 14.223285 1 0 ack 528 ------- 2 1.0 0.0 15073 59
- 14.223285 1 0 ack 528 ------- 2 1.0 0.0 15073 59
r 14.236101 1 0 ack 528 ------- 2 1.0 0.0 15073 59
+ 14.3 0 1 tcp 40 ------- 1 0.0 1.0 41 60
- 14.3 0 1 tcp 40 ------- 1 0.0 1.0 41 60
r 14.310213 0 1 tcp 40 ------- 1 0.0 1.0 41 60
+ 15.2 1 0 ack 576 ---A--- 2 1.0 0.0 15561 61
- 15.2 1 0 ack 576 ---A--- 2 1.0 0.0 15561 61
r 15.213072 1 0 ack 576 ---A--- 2 1.0 0.0 15561 61
+ 15.213072 0 1 tcp 40 ------- 1 0.0 1.0 41 62
- 15.213072 0 1 tcp 40 ------- 1 0.0 1.0 41 62
r 15.223285 0 1 tcp 40 ------- 1 0.0 1.0 41 62
+ 15.223285 1 0 ack 528 ------- 2 1.0 0.0 16097 63
- 15.223285 1 0 ack 528 ------- 2 1.0 0.0 16097 63
r 15.236101 1 0 ack 528 ------- 2 1.0 0.0 16097 63
+ 15.3 0 1 tcp 40 ------- 1 0.0 1.0 41 64
- 15.3 0 1 tcp 40 ------- 1 0.0 1.0 41 64
r 15.310213 0 1 tcp 40 ------- 1 0.0 1.0 41 64
+ 16.2 1 0 ack 576 ---A--- 2 1.0 0.0 16585 65
- 16.2 1 0 ack 576 ---A--- 2 1.0 0.0 16585 65
r 16.213072 1 0 ack 576 ---A--- 2 1.0 0.0 16585 65
+ 16.213072 0 1 tcp 40 ------- 1 0.0 1.0 41 66
- 16.213072 0 1 tcp 40 ------- 1 0.0 1.0 41 66
r 16.223285 0 1 tcp 40 ------- 1 0.0 1.0 41 66
+ 16.223285 1 0 ack 528 ------- 2 1.0 0.0 17121 67
- 16.223285 1 0 ack 528 ------- 2 1.0 0.0 17121 67
r 16.236101 1 0 ack 528 ------- 2 1.0 0.0 17121 67
+ 16.3 0 1 tcp 40 ------- 1 0.0 1.0 41 68
- 16.3 0 1 tcp 40 ------- 1 0.0 1.0 41 68
r 16.310213 0 1 tcp 40 ------- 1 0.0 1.0 41 68
+ 17.2 1 0 ack 576 ---A--- 2 1.0 0.0 17609 69
- 17.2 1 0 ack 576 ---A--- 2 1.0 0.0 17609 69
r 17.213072 1 0 ack 576 ---A--- 2 1.0 0.0 17609 69
+ 17.213072 0 1 tcp 40 ------- 1 0.0 1.0 41 70
- 17.213072 0 1 tcp 40 ------- 1 0.0 1.0 41 70
r 17.223285 0 1 tcp 40 ------- 1 0.0 1.0 41 70
+ 17.223285 1 0 ack 528 ------- 2 1.0 0.0 18145 71
- 17.223285 1 0 ack 528 ------- 2 1.0 0.0 18145 71
r 17.236101 1 0 ack 528 ------- 2 1.0 0.0 18145 71
+ 17.3 0 1 tcp 40 ------- 1 0.0 1.0 41 72
- 17.3 0 1 tcp 40 ------- 1 0.0 1.0 41 72
r 17.310213 0 1 tcp 40 ------- 1 0.0 1.0 41 72
+ 18.2 1 0 ack 576 ---A--- 2 1.0 0.0 18633 73
- 18.2 1 0 ack 576 ---A--- 2 1.0 0.0 18633 73
r 18.213072 1 0 ack 576 ---A--- 2 1.0 0.0 18633 73
+ 18.213072 0 1 tcp 40 ------- 1 0.0 1.0 41 74
- 18.213072 0 1 tcp 40 ------- 1 0.0 1.0 41 74
r 18.223285 0 1 tcp 40 ------- 1 0.0 1.0 41 74
+ 18.223285 1 0 ack 528 ------- 2 1.0 0.0 19169 75
- 18.223285 1 0 ack 528 ------- 2 1.0 0.0 19169 75
r 18.236101 1 0 ack 528 ------- 2 1.0 0.0 19169 75
+ 18.3 0 1 tcp 40 ------- 1 0.0 1.0 41 76
- 18.3 0 1 tcp 40 ------- 1 0.0 1.0 41 76
r 18.310213 0 1 tcp 40 ------- 1 0.0 1.0 41 76
+ 19.2 1 0 ack 576 ---A--- 2 1.0 0.0 19657 77
- 19.2 1 0 ack 576 ---A--- 2 1.0 0.0 19657 77
r 19.213072 1 0 ack 576 ---A--- 2 1.0 0.0 19657 77
+ 19.213072 0 1 tcp 40 ------- 1 0.0 1.0 41 78
- 19.213072 0 1 tcp 40 ------- 1 0.0 1.0 41 78
r 19.223285 0 1 tcp 40 ------- 1 0.0 1.0 41 78
+ 19.223285 1 0 ack 528 ------- 2 1.0 0.0 20193 79
- 19.223285 1 0 ack 528 ------- 2 1.0 0.0 20193 79
r 19.236101 1 0 ack 528 ------- 2 1.0 0.0 20193 79
+ 19.3 0 1 tcp 40 ------- 1 0.0 1.0 41 80
- 19.3 0 1 tcp 40 ------- 1 0.0 1.0 41 80
r 19.310213 0 1 tcp 40 ------- 1 0.0 1.0 41 80
+ 20.2 1 0 ack 576 ---A--- 2 1.0 0.0 20681 81
- 20.2 1 0 ack 576 ---A--- 2 1.0 0.0 20681 81
r 20.213072 1 0 ack 576 ---A--- 2 1.0 0.0 20681 81
+ 20.213072 0 1 tcp 40 ------- 1 0.0 1.0 41 82
- 20.213072 0 1 tcp 40 ------- 1 0.0 1.0 41 82
r 20.223285 0 1 tcp 40 ------- 1 0.0 1.0 41 82
+ 20.223285 1 0 ack 528 ------- 2 1.0 0.0 21217 83
- 20.223285 1 0 ack 528 ------- 2 1.0 0.0 21217 83
r 20.236101 1 0 ack 528 ------- 2 1.0 0.0 21217 83
+ 20.3 0 1 tcp 40 ------- 1 0.0 1.0 41 84
- 20.3 0 1 tcp 40 ------- 1 0.0 1.0 41 84
r 20.310213 0 1 tcp 40 ------- 1 0.0 1.0 41 84
+ 21.2 1 0 ack 576 ---A--- 2 1.0 0.0 21705 85
- 21.2 1 0 ack 576 ---A--- 2 1.0 0.0 21705 85
r 21.213072 1 0 ack 576 ---A--- 2 1.0 0.0 21705 85
+ 21.213072 0 1 tcp 40 ------- 1 0.0 1.0 41 86
- 21.213072 0 1 tcp 40 ------- 1 0.0 1.0 41 86
r 21.223285 0 1 tcp 40 ------- 1 0.0 1.0 41 86
+ 21.223285 1 0 ack 528 ------- 2 1.0 0.0 22241 87
- 21.223285 1 0 ack 528 ------- 2 1.0 0.0 22241 87
r 21.236101 1 0 ack 528 ------- 2 1.0 0.0 22241 87
+ 21.3 0 1 tcp 40 ------- 1 0.0 1.0 41 88
- 21.3 0 1 tcp 40 ------- 1 0.0 1.0 41 88
r 21.310213 0 1 tcp 40 ------- 1 0.0 1.0 41 88
+ 22.2 1 0 ack 576 ---A--- 2 1.0 0.0 22729 89
- 22.2 1 0 ack 576 ---A--- 2 1.0 0.0 22729 89
r 22.213072 1 0 ack 576 ---A--- 2 1.0 0.0 22729 89
+ 22.213072 0 1 tcp 40 ------- 1 0.0 1.0 41 90
- 22.213072 0 1 tcp 40 ------- 1 0.0 1.0 41 90
r 22.223285 0 1 tcp 40 ------- 1 0.0 1.0 41 90
+ 22.223285 1 0 ack 528 ------- 2 1.0 0.0 23265 91
- 22.223285 1 0 ack 528 ------- 2 1.0 0.0 23265 91
r 22.236101 1 0 ack 528 ------- 2 1.0 0.0 23265 91
+ 22.3 0 1 tcp 40 ------- 1 0.0 1.0 41 92
- 22.3 0 1 tcp 40 ------- 1 0.0 1.0 41 92
r 22.310213 0 1 tcp 40 ------- 1 0.0 1.0 41 92
+ 23.2 1 0 ack 576 ---A--- 2 1.0 0.0 23753 93
- 23.2 1 0 ack 576 ---A--- 2 1.0 0.0 23753 93
r 23.213072 1 0 ack 576 ---A--- 2 1.0 0.0 23753 93
+ 23.213072 0 1 tcp 40 ------- 1 0.0 1.0 41 94
- 23.213072 0 1 tcp 40 ------- 1 0.0 1.0 41 94
r 23.223285 0 1 tcp 40 ------- 1 0.0 1.0 41 94
+ 23.223285 1 0 ack 528 ------- 2 1.0 0.0 24289 95
- 23.223285 1 0 ack 528 ------- 2 1.0 0.0 24289 95
r 23.236101 1 0 ack 528 ------- 2 1.0 0.0 24289 95
+ 23.3 0 1 tcp 40 ------- 1 0.0 1.0 41 96
- 23.3 0 1 tcp 40 ------- 1 0.0 1.0 41 96
r 23.310213 0 1 tcp 40 ------- 1 0.0 1.0 41 96
+ 24.2 1 0 ack 576 ---A--- 2 1.0 0.0 24777 97
- 24.2 1 0 ack 576 ---A--- 2 1.0 0.0 24777 97
r 24.213072 1 0 ack 576 ---A--- 2 1.0 0.0 24777 97
+ 24.213072 0 1 tcp 40 ------- 1 0.0 1.0 41 98
- 24.213072 0 1 tcp 40 ------- 1 0.0 1.0 41 98
r 24.223285 0 1 tcp 40 ------- 1 0.0 1.0 41 98
+ 24.223285 1 0 ack 528 ------- 2 1.0 0.0 25313 99
- 24.223285 1 0 ack 528 ------- 2 1.0 0.0 25313 99
r 24.236101 1 0 ack 528 ------- 2 1.0 0.0 25313 99
+ 24.3 0 1 tcp 40 ------- 1 0.0 1.0 41 100
- 24.3 0 1 tcp 40 ------- 1 0.0 1.0 41 100
r 24.310213 0 1 tcp 40 ------- 1 0.0 1.0 41 100
+ 25.2 1 0 ack 576 ---A--- 2 1.0 0.0 25801 101
- 25.2 1 0 ack 576 ---A--- 2 1.0 0.0 25801 101
r 25.213072 1 0 ack 576 ---A--- 2 1.0 0.0 25801 101
+ 25.213072 0 1 tcp 40 ------- 1 0.0 1.0 41 102
- 25.213072 0 1 tcp 40 ------- 1 0.0 1.0 41 102
r 25.223285 0 1 tcp 40 ------- 1 0.0 1.0 41 102
+ 25.223285 1 0 ack 528 ------- 2 1.0 0.0 26337 103
- 25.223285 1 0 ack 528 ------- 2 1.0 0.0 26337 103
r 25.236101 1 0 ack 528 ------- 2 1.0 0.0 26337 103
+ 25.3 0 1 tcp 40 ------- 1 0.0 1.0 41 104
- 25.3 0 1 tcp 40 ------- 1 0.0 1.0 41 104
r 25.310213 0 1 tcp 40 ------- 1 0.0 1.0 41 104
+ 26.2 1 0 ack 576 ---A--- 2 1.0 0.0 26825 105
- 26.2 1 0 ack 576 ---A--- 2 1.0 0.0 26825 105
r 26.213072 1 0 ack 576 ---A--- 2 1.0 0.0 26825 105
+ 26.213072 0 1 tcp 40 ------- 1 0.0 1.0 41 106
- 26.213072 0 1 tcp 40 ------- 1 0.0 1.0 41 106
r 26.223285 0 1 tcp 40 ------- 1 0.0 1.0 41 106
+ 26.223285 1 0 ack 528 ------- 2 1.0 0.0 27361 107
- 26.223285 1 0 ack 528 ------- 2 1.0 0.0 27361 107
r 26.236101 1 0 ack 528 ------- 2 1.0 0.0 27361 107
+ 26.3 0 1 tcp 40 ------- 1 0.0 1.0 41 108
- 26.3 0 1 tcp 40 ------- 1 0.0 1.0 41 108
r 26.310213 0 1 tcp 40 ------- 1 0.0 1.0 41 108
+ 27.2 1 0 ack 576 ---A--- 2 1.0 0.0 27849 109
- 27.2 1 0 ack 576 ---A--- 2 1.0 0.0 27849 109
r 27.213072 1 0 ack 576 ---A--- 2 1.0 0.0 27849 109
+ 27.213072 0 1 tcp 40 ------- 1 0.0 1.0 41 110
- 27.213072 0 1 tcp 40 ------- 1 0.0 1.0 41 110
r 27.223285 0 1 tcp 40 ------- 1 0.0 1.0 41 110
+ 27.223285 1 0 ack 528 ------- 2 1.0 0.0 28385 111
- 27.223285 1 0 ack 528 ------- 2 1.0 0.0 28385 111
r 27.236101 1 0 ack 528 ------- 2 1.0 0.0 28385 111
+ 27.3 0 1 tcp 40 ------- 1 0.0 1.0 41 112
- 27.3 0 1 tcp 40 ------- 1 0.0 1.0 41 112
r 27.310213 0 1 tcp 40 ------- 1 0.0 1.0 41 112
+ 28.2 1 0 ack 576 ---A--- 2 1.0 0.0 28873 113
- 28.2 1 0 ack 576 ---A--- 2 1.0 0.0 28873 113
r 28.213072 1 0 ack 576 ---A--- 2 1.0 0.0 28873 113
+ 28.213072 0 1 tcp 40 ------- 1 0.0 1.0 41 114
- 28.213072 0 1 tcp 40 ------- 1 0.0 1.0 41 114
r 28.223285 0 1 tcp 40 ------- 1 0.0 1.0 41 114
+ 28.223285 1 0 ack 528 ------- 2 1.0 0.0 29409 115
- 28.223285 1 0 ack 528 ------- 2 1.0 0.0 29409 115
r 28.236101 1 0 ack 528 ------- 2 1.0 0.0 29409 115
+ 28.3 0 1 tcp 40 ------- 1 0.0 1.0 41 116
- 28.3 0 1 tcp 40 ------- 1 0.0 1.0 41 116
r 28.310213 0 1 tcp 40 ------- 1 0.0 1.0 41 116
+ 29.2 1 0 ack 576 ---A--- 2 1.0 0.0 29897 117
- 29.2 1 0 ack 576 ---A--- 2 1.0 0.0 29897 117
r 29.213072 1 0 ack 576 ---A--- 2 1.0 0.0 29897 117
+ 29.213072 0 1 tcp 40 ------- 1 0.0 1.0 41 118
- 29.213072 0 1 tcp 40 ------- 1 0.0 1.0 41 118
r 29.223285 0 1 tcp 40 ------- 1 0.0 1.0 41 118
+ 29.223285 1 0 ack 528 ------- 2 1.0 0.0 30433 119
- 29.223285 1 0 ack 528 ------- 2 1.0 0.0 30433 119
r 29.236101 1 0 ack 528 ------- 2 1.0 0.0 30433 119
+ 29.3 0 1 tcp 40 ------- 1 0.0 1.0 41 120
- 29.3 0 1 tcp 40 ------- 1 0.0 1.0 41 120
r 29.310213 0 1 tcp 40 ------- 1 0.0 1.0 41 120
+ 30.2 1 0 ack 576 ---A--- 2 1.0 0.0 30921 121
- 30.2 1 0 ack 576 ---A--- 2 1.0 0.0 30921 121
r 30.213072 1 0 ack 576 ---A--- 2 1.0 0.0 30921 121
+ 30.213072 0 1 tcp 40 ------- 1 0.0 1.0 41 122
- 30.213072 0 1 tcp 40 ------- 1 0.0 1.0 41 122
r 30.223285 0 1 tcp 40 ------- 1 0.0 1.0 41 122
+ 30.223285 1 0 ack 528 ------- 2 1.0 0.0 31457 123
- 30.223285 1 0 ack 528 ------- 2 1.0 0.0 31457 123
r 30.236101 1 0 ack 528 ------- 2 1.0 0.0 31457 123
+ 30.3 0 1 tcp 40 ------- 1 0.0 1.0 41 124
- 30.3 0 1 tcp 40 ------- 1 0.0 1.0 41 124
r 30.310213 0 1 tcp 40 ------- 1 0.0 1.0 41 124
+ 31.2 1 0 ack 576 ---A--- 2 1.0 0.0 31945 125
- 31.2 1 0 ack 576 ---A--- 2 1.0 0.0 31945 125
r 31.213072 1 0 ack 576 ---A--- 2 1.0 0.0 31945 125
+ 31.213072 0 1 tcp 40 ------- 1 0.0 1.0 41 126
- 31.213072 0 1 tcp 40 ------- 1 0.0 1.0 41 126
r 31.223285 0 1 tcp 40 ------- 1 0.0 1.0 41 126
+ 31.223285 1 0 ack 528 ------- 2 1.0 0.0 32481 127
- 31.223285 1 0 ack 528 ------- 2 1.0 0.0 32481 127
r 31.236101 1 0 ack 528 ------- 2 1.0 0.0 32481 127
+ 31.3 0 1 tcp 40 ------- 1 0.0 1.0 41 128
- 31.3 0 1 tcp 40 ------- 1 0.0 1.0 41 128
r 31.310213 0 1 tcp 40 ------- 1 0.0 1.0 41 128
+ 32.2 1 0 ack 576 ---A--- 2 1.0 0.0 32969 129
- 32.2 1 0 ack 576 ---A--- 2 1.0 0.0 32969 129
r 32.213072 1 0 ack 576 ---A--- 2 1.0 0.0 32969 129
+ 32.213072 0 1 tcp 40 ------- 1 0.0 1.0 41 130
- 32.213072 0 1 tcp 40 ------- 1 0.0 1.0 41 130
r 32.223285 0 1 tcp 40 ------- 1 0.0 1.0 41 130
+ 32.223285 1 0 ack 528 ------- 2 1.0 0.0 33505 131
- 32.223285 1 0 ack 528 ------- 2 1.0 0.0 33505 131
r 32.236101 1 0 ack 528 ------- 2 1.0 0.0 33505 131
+ 32.3 0 1 tcp 40 ------- 1 0.0 1.0 41 132
- 32.3 0 1 tcp 40 ------- 1 0.0 1.0 41 132
r 32.310213 0 1 tcp 40 ------- 1 0.0 1.0 41 132
+ 33.2 1 0 ack 576 ---A--- 2 1.0 0.0 33993 133
- 33.2 1 0 ack 576 ---A--- 2 1.0 0.0 33993 133
r 33.213072 1 0 ack 576 ---A--- 2 1.0 0.0 33993 133
+ 33.213072 0 1 tcp 40 ------- 1 0.0 1.0 41 134
- 33.213072 0 1 tcp 40 ------- 1 0.0 1.0 41 134
r 33.223285 0 1 tcp 40 ------- 1 0.0 1.0 41 134
+ 33.223285 1 0 ack 528 ------- 2 1.0 0.0 34529 135
- 33.223285 1 0 ack 528 ------- 2 1.0 0.0 34529 135
r 33.236101 1 0 ack 528 ------- 2 1.0 0.0 34529 135
+ 33.3 0 1 tcp 40 ------- 1 0.0 1.0 41 136
- 33.3 0 1 tcp 40 ------- 1 0.0 1.0 41 136
r 33.310213 0 1 tcp 40 ------- 1 0.0 1.0 41 136
+ 34.2 1 0 ack 576 ---A--- 2 1.0 0.0 35017 137
- 34.2 1 0 ack 576 ---A--- 2 1.0 0.0 35017 137
r 34.213072 1 0 ack 576 ---A--- 2 1.0 0.0 35017 137
+ 34.213072 0 1 tcp 40 ------- 1 0.0 1.0 41 138
- 34.213072 0 1 tcp 40 ------- 1 0.0 1.0 41 138
r 34.223285 0 1 tcp 40 ------- 1 0.0 1.0 41 138
+ 34.223285 1 0 ack 528 ------- 2 1.0 0.0 35553 139
- 34.223285 1 0 ack 528 ------- 2 1.0 0.0 35553 139
r 34.236101 1 0 ack 528 ------- 2 1.0 0.0 35553 139
+ 34.3 0 1 tcp 40 ------- 1 0.0 1.0 41 140
- 34.3 0 1 tcp 40 ------- 1 0.0 1.0 41 140
r 34.310213 0 1 tcp 40 ------- 1 0.0 1.0 41 140
+ 35.2 1 0 ack 576 ---A--- 2 1.0 0.0 36041 141
- 35.2 1 0 ack 576 ---A--- 2 1.0 0.0 36041 141
r 35.213072 1 0 ack 576 ---A--- 2 1.0 0.0 36041 141
+ 35.213072 0 1 tcp 40 ------- 1 0.0 1.0 41 142
- 35.213072 0 1 tcp 40 ------- 1 0.0 1.0 41 142
r 35.223285 0 1 tcp 40 ------- 1 0.0 1.0 41 142
+ 35.223285 1 0 ack 528 ------- 2 1.0 0.0 36577 143
- 35.223285 1 0 ack 528 ------- 2 1.0 0.0 36577 143
r 35.236101 1 0 ack 528 ------- 2 1.0 0.0 36577 143
+ 35.3 0 1 tcp 40 ------- 1 0.0 1.0 41 144
- 35.3 0 1 tcp 40 ------- 1 0.0 1.0 41 144
r 35.310213 0 1 tcp 40 ------- 1 0.0 1.0 41 144
+ 36.2 1 0 ack 576 ---A--- 2 1.0 0.0 37065 145
- 36.2 1 0 ack 576 ---A--- 2 1.0 0.0 37065 145
r 36.213072 1 0 ack 576 ---A--- 2 1.0 0.0 37065 145
+ 36.213072 0 1 tcp 40 ------- 1 0.0 1.0 41 146
- 36.213072 0 1 tcp 40 ------- 1 0.0 1.0 41 146
r 36.223285 0 1 tcp 40 ------- 1 0.0 1.0 41 146
+ 36.223285 1 0 ack 528 ------- 2 1.0 0.0 37601 147
- 36.223285 1 0 ack 528 ------- 2 1.0 0.0 37601 147
r 36.236101 1 0 ack 528 ------- 2 1.0 0.0 37601 147
+ 36.3 0 1 tcp 40 ------- 1 0.0 1.0 41 148
- 36.3 0 1 tcp 40 ------- 1 0.0 1.0 41 148
r 36.310213 0 1 tcp 40 ------- 1 0.0 1.0 41 148
+ 37.2 1 0 ack 576 ---A--- 2 1.0 0.0 38089 149
- 37.2 1 0 ack 576 ---A--- 2 1.0 0.0 38089 149
r 37.213072 1 0 ack 576 ---A--- 2 1.0 0.0 38089 149
+ 37.213072 0 1 tcp 40 ------- 1 0.0 1.0 41 150
- 37.213072 0 1 tcp 40 ------- 1 0.0 1.0 41 150
r 37.223285 0 1 tcp 40 ------- 1 0.0 1.0 41 150
+ 37.223285 1 0 ack 528 ------- 2 1.0 0.0 38625 151
- 37.223285 1 0 ack 528 ------- 2 1.0 0.0 38625 151
r 37.236101 1 0 ack 528 ------- 2 1.0 0.0 38625 151
+ 37.3 0 1 tcp 40 ------- 1 0.0 1.0 41 152
- 37.3 0 1 tcp 40 ------- 1 0.0 1.0 41 152
r 37.310213 0 1 tcp 40 ------- 1 0.0 1.0 41 152
+ 38.2 1 0 ack 576 ---A--- 2 1.0 0.0 39113 153
- 38.2 1 0 ack 576 ---A--- 2 1.0 0.0 39113 153
r 38.213072 1 0 ack 576 ---A--- 2 1.0 0.0 39113 153
+ 38.213072 0 1 tcp 40 ------- 1 0.0 1.0 41 154
- 38.213072 0 1 tcp 40 ------- 1 0.0 1.0 41 154
r 38.223285 0 1 tcp 40 ------- 1 0.0 1.0 41 154
+ 38.223285 1 0 ack 528 ------- 2 1.0 0.0 39649 155
- 38.223285 1 0 ack 528 ------- 2 1.0 0.0 39649 155
r 38.236101 1 0 ack 528 ------- 2 1.0 0.0 39649 155
+ 38.3 0 1 tcp 40 ------- 1 0.0 1.0 41 156
- 38.3 0 1 tcp 40 ------- 1 0.0 1.0 41 156
r 38.310213 0 1 tcp 40 ------- 1 0.0 1.0 41 156
+ 39.2 1 0 ack 576 ---A--- 2 1.0 0.0 40137 157
- 39.2 1 0 ack 576 ---A--- 2 1.0 0.0 40137 157
r 39.213072 1 0 ack 576 ---A--- 2 1.0 0.0 40137 157
+ 39.213072 0 1 tcp 40 ------- 1 0.0 1.0 41 158
- 39.213072 0 1 tcp 40 ------- 1 0.0 1.0 41 158
r 39.223285 0 1 tcp 40 ------- 1 0.0 1.0 41 158
+ 39.223285 1 0 ack 528 ------- 2 1.0 0.0 40673 159
- 39.223285 1 0 ack 528 ------- 2 1.0 0.0 40673 159
r 39.236101 1 0 ack 528 ------- 2 1.0 0.0 40673 159
+ 39.3 0 1 tcp 40 ------- 1 0.0 1.0 41 160
- 39.3 0 1 tcp 40 ------- 1 0.0 1.0 41 160
r 39.310213 0 1 tcp 40 ------- 1 0.0 1.0 41 160
+ 40.2 1 0 ack 576 ---A--- 2 1.0 0.0 41161 161
- 40.2 1 0 ack 576 ---A--- 2 1.0 0.0 41161 161
r 40.213072 1 0 ack 576 ---A--- 2 1.0 0.0 41161 161
+ 40.213072 0 1 tcp 40 ------- 1 0.0 1.0 41 162
- 40.213072 0 1 tcp 40 ------- 1 0.0 1.0 41 162
r 40.223285 0 1 tcp 40 ------- 1 0.0 1.0 41 162
+ 40.223285 1 0 ack 528 ------- 2 1.0 0.0 41697 163
- 40.223285 1 0 ack 528 ------- 2 1.0 0.0 41697 163
r 40.236101 1 0 ack 528 ------- 2 1.0 0.0 41697 163
+ 40.3 0 1 tcp 40 ------- 1 0.0 1.0 41 164
- 40.3 0 1 tcp 40 ------- 1 0.0 1.0 41 164
r 40.310213 0 1 tcp 40 ------- 1 0.0 1.0 41 164
+ 41.2 1 0 ack 576 ---A--- 2 1.0 0.0 42185 165
- 41.2 1 0 ack 576 ---A--- 2 1.0 0.0 42185 165
r 41.213072 1 0 ack 576 ---A--- 2 1.0 0.0 42185 165
+ 41.213072 0 1 tcp 40 ------- 1 0.0 1.0 41 166
- 41.213072 0 1 tcp 40 ------- 1 0.0 1.0 41 166
r 41.223285 0 1 tcp 40 ------- 1 0.0 1.0 41 166
+ 41.223285 1 0 ack 528 ------- 2 1.0 0.0 42721 167
- 41.223285 1 0 ack 528 ------- 2 1.0 0.0 42721 167
r 41.236101 1 0 ack 528 ------- 2 1.0 0.0 42721 167
+ 41.3 0 1 tcp 40 ------- 1 0.0 1.0 41 168
- 41.3 0 1 tcp 40 ------- 1 0.0 1.0 41 168
r 41.310213 0 1 tcp 40 ------- 1 0.0 1.0 41 168
+ 42.2 1 0 ack 576 ---A--- 2 1.0 0.0 43209 169
- 42.2 1 0 ack 576 ---A--- 2 1.0 0.0 43209 169
r 42.213072 1 0 ack 576 ---A--- 2 1.0 0.0 43209 169
+ 42.213072 0 1 tcp 40 ------- 1 0.0 1.0 41 170
- 42.213072 0 1 tcp 40 ------- 1 0.0 1.0 41 170
r 42.223285 0 1 tcp 40 ------- 1 0.0 1.0 41 170
+ 42.223285 1 0 ack 528 ------- 2 1.0 0.0 43745 171
- 42.223285 1 0 ack 528 ------- 2 1.0 0.0 43745 171
r 42.236101 1 0 ack 528 ------- 2 1.0 0.0 43745 171
+ 42.3 0 1 tcp 40 ------- 1 0.0 1.0 41 172
- 42.3 0 1 tcp 40 ------- 1 0.0 1.0 41 172
r 42.310213 0 1 tcp 40 ------- 1 0.0 1.0 41 172
+ 43.2 1 0 ack 576 ---A--- 2 1.0 0.0 44233 173
- 43.2 1 0 ack 576 ---A--- 2 1.0 0.0 44233 173
r 43.213072 1 0 ack 576 ---A--- 2 1.0 0.0 44233 173
+ 43.213072 0 1 tcp 40 ------- 1 0.0 1.0 41 174
- 43.213072 0 1 tcp 40 ------- 1 0.0 1.0 41 174
r 43.223285 0 1 tcp 40 ------- 1 0.0 1.0 41 174
+ 43.223285 1 0 ack 528 ------- 2 1.0 0.0 44769 175
- 43.223285 1 0 ack 528 ------- 2 1.0 0.0 44769 175
r 43.236101 1 0 ack 528 ------- 2 1.0 0.0 44769 175
+ 43.3 0 1 tcp 40 ------- 1 0.0 1.0 41 176
- 43.3 0 1 tcp 40 ------- 1 0.0 1.0 41 176
r 43.310213 0 1 tcp 40 ------- 1 0.0 1.0 41 176
+ 44.2 1 0 ack 576 ---A--- 2 1.0 0.0 45257 177
- 44.2 1 0 ack 576 ---A--- 2 1.0 0.0 45257 177
r 44.213072 1 0 ack 576 ---A--- 2 1.0 0.0 45257 177
+ 44.213072 0 1 tcp 40 ------- 1 0.0 1.0 41 178
- 44.213072 0 1 tcp 40 ------- 1 0.0 1.0 41 178
r 44.223285 0 1 tcp 40 ------- 1 0.0 1.0 41 178
+ 44.223285 1 0 ack 528 ------- 2 1.0 0.0 45793 179
- 44.223285 1 0 ack 528 ------- 2 1.0 0.0 45793 179
r 44.236101 1 0 ack 528 ------- 2 1.0 0.0 45793 179
+ 44.3 0 1 tcp 40 ------- 1 0.0 1.0 41 180
- 44.3 0 1 tcp 40 ------- 1 0.0 1.0 41 180
r 44.310213 0 1 tcp 40 ------- 1 0.0 1.0 41 180
+ 45.2 1 0 ack 576 ---A--- 2 1.0 0.0 46281 181
- 45.2 1 0 ack 576 ---A--- 2 1.0 0.0 46281 181
r 45.213072 1 0 ack 576 ---A--- 2 1.0 0.0 46281 181
+ 45.213072 0 1 tcp 40 ------- 1 0.0 1.0 41 182
- 45.213072 0 1 tcp 40 ------- 1 0.0 1.0 41 182
r 45.223285 0 1 tcp 40 ------- 1 0.0 1.0 41 182
+ 45.223285 1 0 ack 528 ------- 2 1.0 0.0 46817 183
- 45.223285 1 0 ack 528 ------- 2 1.0 0.0 46817 183
r 45.236101 1 0 ack 528 ------- 2 1.0 0.0 46817 183
+ 45.3 0 1 tcp 40 ------- 1 0.0 1.0 41 184
- 45.3 0 1 tcp 40 ------- 1 0.0 1.0 41 184
r 45.310213 0 1 tcp 40 ------- 1 0.0 1.0 41 184
+ 46.2 1 0 ack 576 ---A--- 2 1.0 0.0 47305 185
- 46.2 1 0 ack 576 ---A--- 2 1.0 0.0 47305 185
r 46.213072 1 0 ack 576 ---A--- 2 1.0 0.0 47305 185
+ 46.213072 0 1 tcp 40 ------- 1 0.0 1.0 41 186
- 46.213072 0 1 tcp 40 ------- 1 0.0 1.0 41 186
r 46.223285 0 1 tcp 40 ------- 1 0.0 1.0 41 186
+ 46.223285 1 0 ack 528 ------- 2 1.0 0.0 47841 187
- 46.223285 1 0 ack 528 ------- 2 1.0 0.0 47841 187
r 46.236101 1 0 ack 528 ------- 2 1.0 0.0 47841 187
+ 46.3 0 1 tcp 40 ------- 1 0.0 1.0 41 188
- 46.3 0 1 tcp 40 ------- 1 0.0 1.0 41 188
r 46.310213 0 1 tcp 40 ------- 1 0.0 1.0 41 188
+ 47.2 1 0 ack 576 ---A--- 2 1.0 0.0 48329 189
- 47.2 1 0 ack 576 ---A--- 2 1.0 0.0 48329 189
r 47.213072 1 0 ack 576 ---A--- 2 1.0 0.0 48329 189
+ 47.213072 0 1 tcp 40 ------- 1 0.0 1.0 41 190
- 47.213072 0 1 tcp 40 ------- 1 0.0 1.0 41 190
r 47.223285 0 1 tcp 40 ------- 1 0.0 1.0 41 190
+ 47.223285 1 0 ack 528 ------- 2 1.0 0.0 48865 191
- 47.223285 1 0 ack 528 ------- 2 1.0 0.0 48865 191
r 47.236101 1 0 ack 528 ------- 2 1.0 0.0 48865 191
+ 47.3 0 1 tcp 40 ------- 1 0.0 1.0 41 192
- 47.3 0 1 tcp 40 ------- 1 0.0 1.0 41 192
r 47.310213 0 1 tcp 40 ------- 1 0.0 1.0 41 192
+ 48.2 1 0 ack 576 ---A--- 2 1.0 0.0 49353 193
- 48.2 1 0 ack 576 ---A--- 2 1.0 0.0 49353 193
r 48.213072 1 0 ack 576 ---A--- 2 1.0 0.0 49353 193
+ 48.213072 0 1 tcp 40 ------- 1 0.0 1.0 41 194
- 48.213072 0 1 tcp 40 ------- 1 0.0 1.0 41 194
r 48.223285 0 1 tcp 40 ------- 1 0.0 1.0 41 194
+ 48.223285 1 0 ack 528 ------- 2 1.0 0.0 49889 195
- 48.223285 1 0 ack 528 ------- 2 1.0 0.0 49889 195
r 48.236101 1 0 ack 528 ------- 2 1.0 0.0 49889 195
+ 48.3 0 1 tcp 40 ------- 1 0.0 1.0 41 196
- 48.3 0 1 tcp 40 ------- 1 0.0 1.0 41 196
r 48.310213 0 1 tcp 40 ------- 1 0.0 1.0 41 196
+ 49.2 1 0 ack 576 ---A--- 2 1.0 0.0 50377 197
- 49.2 1 0 ack 576 ---A--- 2 1.0 0.0 50377 197
r 49.213072 1 0 ack 576 ---A--- 2 1.0 0.0 50377 197
+ 49.213072 0 1 tcp 40 ------- 1 0.0 1.0 41 198
- 49.213072 0 1 tcp 40 ------- 1 0.0 1.0 41 198
r 49.223285 0 1 tcp 40 ------- 1 0.0 1.0 41 198
+ 49.223285 1 0 ack 528 ------- 2 1.0 0.0 50913 199
- 49.223285 1 0 ack 528 ------- 2 1.0 0.0 50913 199
r 49.236101 1 0 ack 528 ------- 2 1.0 0.0 50913 199
+ 49.3 0 1 tcp 40 ------- 1 0.0 1.0 41 200
- 49.3 0 1 tcp 40 ------- 1 0.0 1.0 41 200
r 49.310213 0 1 tcp 40 ------- 1 0.0 1.0 41 200
