# TESTNAME: TLC1
# TOPOLOGY: cache2
# avg-comp-page-age: 40000
# avg-page-age: 60
# avg-page-size: 1024
# avg-req-interval: 6
# client-req-size: 43
# comp-page-size: 51200
# duration: 500
# enable-log: 0
# hb-interval: 6
# max-page-age: 70
# max-page-size: 50000
# max-req-interval: 70
# min-page-age: 50
# min-page-size: 100
# min-req-interval: 50
# nam-trace-all: 1
# ns-random-seed: 188312339
# num-2nd-cache: 5
# num-comp-pages: 1
# prot: TLC1
# scheduler-type: Calendar
# single-page: 1
# ttl: 0.1
# upd-interval: 5
# xtrace-page: webtrace-pglog
# xtrace-req: webtrace-reqlog
v 10 eval {set sim_annotation {10 4 join-group 1073741824}}
v 10 eval {set sim_annotation {10 5 join-group 1073741824}}
v 10 eval {set sim_annotation {1073741824 switch tree type}}
v 10 eval {set sim_annotation {10 4 join-group 1073741825}}
v 10 eval {set sim_annotation {10 6 join-group 1073741825}}
v 10 eval {set sim_annotation {10 7 join-group 1073741825}}
v 10 eval {set sim_annotation {1073741825 switch tree type}}
v 10 eval {set sim_annotation {10 5 join-group 1073741826}}
v 10 eval {set sim_annotation {10 8 join-group 1073741826}}
v 10 eval {set sim_annotation {10 9 join-group 1073741826}}
v 10 eval {set sim_annotation {1073741826 switch tree type}}
v 10 eval {set sim_annotation {10 6 join-group 1073741827}}
v 10 eval {set sim_annotation {10 10 join-group 1073741827}}
v 10 eval {set sim_annotation {1073741827 switch tree type}}
+ 10 11 4 tcp 50 ------- 11 11.2 4.6 1 0
- 10 11 4 tcp 50 ------- 11 11.2 4.6 1 0
r 10.050267 11 4 tcp 50 ------- 11 11.2 4.6 1 0
+ 15.567982 11 4 httpInval 41 ------- 40 11.3 4.7 -1 1
- 15.567982 11 4 httpInval 41 ------- 40 11.3 4.7 -1 1
r 15.618201 11 4 httpInval 41 ------- 40 11.3 4.7 -1 1
+ 16 4 5 httpInval 41 ------- 0 4.4 1073741824.0 -1 2
- 16 4 5 httpInval 41 ------- 0 4.4 1073741824.0 -1 2
+ 16 4 6 httpInval 41 ------- 0 4.5 1073741825.0 -1 3
- 16 4 6 httpInval 41 ------- 0 4.5 1073741825.0 -1 3
+ 16 4 7 httpInval 41 ------- 0 4.5 1073741825.0 -1 3
- 16 4 7 httpInval 41 ------- 0 4.5 1073741825.0 -1 3
+ 16 5 4 httpInval 41 ------- 0 5.5 1073741824.0 -1 4
- 16 5 4 httpInval 41 ------- 0 5.5 1073741824.0 -1 4
+ 16 5 8 httpInval 41 ------- 0 5.6 1073741826.0 -1 5
- 16 5 8 httpInval 41 ------- 0 5.6 1073741826.0 -1 5
+ 16 5 9 httpInval 41 ------- 0 5.6 1073741826.0 -1 5
- 16 5 9 httpInval 41 ------- 0 5.6 1073741826.0 -1 5
+ 16 6 10 httpInval 41 ------- 0 6.5 1073741827.0 -1 6
- 16 6 10 httpInval 41 ------- 0 6.5 1073741827.0 -1 6
r 16.002033 6 10 httpInval 41 ------- 0 6.5 1073741827.0 -1 6
r 16.050219 4 6 httpInval 41 ------- 0 4.5 1073741825.0 -1 3
r 16.050219 4 7 httpInval 41 ------- 0 4.5 1073741825.0 -1 3
r 16.050219 5 8 httpInval 41 ------- 0 5.6 1073741826.0 -1 5
r 16.050219 5 9 httpInval 41 ------- 0 5.6 1073741826.0 -1 5
r 16.100002 4 5 httpInval 41 ------- 0 4.4 1073741824.0 -1 2
r 16.100002 5 4 httpInval 41 ------- 0 5.5 1073741824.0 -1 4
+ 20 0 6 tcp 83 ------- 0 0.1 6.1 1 7
- 20 0 6 tcp 83 ------- 0 0.1 6.1 1 7
+ 20 1 10 tcp 83 ------- 1 1.1 10.1 1 8
- 20 1 10 tcp 83 ------- 1 1.1 10.1 1 8
+ 20 2 8 tcp 83 ------- 2 2.1 8.1 1 9
- 20 2 8 tcp 83 ------- 2 2.1 8.1 1 9
+ 20 3 5 tcp 83 ------- 3 3.1 5.1 1 10
- 20 3 5 tcp 83 ------- 3 3.1 5.1 1 10
r 20.002066 0 6 tcp 83 ------- 0 0.1 6.1 1 7
+ 20.002066 6 4 tcp 83 ------- 4 6.2 4.1 1 11
- 20.002066 6 4 tcp 83 ------- 4 6.2 4.1 1 11
r 20.002066 1 10 tcp 83 ------- 1 1.1 10.1 1 8
+ 20.002066 10 6 tcp 83 ------- 6 10.2 6.3 1 12
- 20.002066 10 6 tcp 83 ------- 6 10.2 6.3 1 12
r 20.002066 2 8 tcp 83 ------- 2 2.1 8.1 1 9
+ 20.002066 8 5 tcp 83 ------- 7 8.2 5.2 1 13
- 20.002066 8 5 tcp 83 ------- 7 8.2 5.2 1 13
r 20.002066 3 5 tcp 83 ------- 3 3.1 5.1 1 10
+ 20.002066 5 4 tcp 83 ------- 10 5.7 11.1 1 14
- 20.002066 5 4 tcp 83 ------- 10 5.7 11.1 1 14
r 20.004133 10 6 tcp 83 ------- 6 10.2 6.3 1 12
r 20.052509 6 4 tcp 83 ------- 4 6.2 4.1 1 11
+ 20.052509 4 11 tcp 83 ------- 11 4.6 11.2 1 15
- 20.052509 4 11 tcp 83 ------- 11 4.6 11.2 1 15
r 20.052509 8 5 tcp 83 ------- 7 8.2 5.2 1 13
r 20.102071 5 4 tcp 83 ------- 10 5.7 11.1 1 14
+ 20.102071 4 11 tcp 83 ------- 10 5.7 11.1 1 14
- 20.102071 4 11 tcp 83 ------- 10 5.7 11.1 1 14
r 20.102952 4 11 tcp 83 ------- 11 4.6 11.2 1 15
+ 20.102952 11 4 tcp 1064 ------- 11 11.2 4.6 2 16
- 20.102952 11 4 tcp 1064 ------- 11 11.2 4.6 2 16
r 20.152513 4 11 tcp 83 ------- 10 5.7 11.1 1 14
+ 20.152513 11 4 tcp 83 ------- 10 11.1 5.7 1 17
- 20.152513 11 4 tcp 83 ------- 10 11.1 5.7 1 17
r 20.158626 11 4 tcp 1064 ------- 11 11.2 4.6 2 16
+ 20.158626 4 6 tcp 1064 ------- 4 4.1 6.2 1 18
- 20.158626 4 6 tcp 1064 ------- 4 4.1 6.2 1 18
r 20.202956 11 4 tcp 83 ------- 10 11.1 5.7 1 17
+ 20.202956 4 5 tcp 83 ------- 10 11.1 5.7 1 17
- 20.202956 4 5 tcp 83 ------- 10 11.1 5.7 1 17
r 20.214301 4 6 tcp 1064 ------- 4 4.1 6.2 1 18
+ 20.214301 6 0 tcp 1064 ------- 0 6.1 0.1 1 19
- 20.214301 6 0 tcp 1064 ------- 0 6.1 0.1 1 19
+ 20.214301 6 10 tcp 1064 ------- 6 6.3 10.2 1 20
- 20.214301 6 10 tcp 1064 ------- 6 6.3 10.2 1 20
r 20.217152 6 0 tcp 1064 ------- 0 6.1 0.1 1 19
r 20.217152 6 10 tcp 1064 ------- 6 6.3 10.2 1 20
+ 20.217152 10 1 tcp 1064 ------- 1 10.1 1.1 1 21
- 20.217152 10 1 tcp 1064 ------- 1 10.1 1.1 1 21
r 20.220003 10 1 tcp 1064 ------- 1 10.1 1.1 1 21
r 20.30296 4 5 tcp 83 ------- 10 11.1 5.7 1 17
+ 20.30296 5 4 tcp 83 ------- 9 5.4 4.3 1 22
- 20.30296 5 4 tcp 83 ------- 9 5.4 4.3 1 22
r 20.402965 5 4 tcp 83 ------- 9 5.4 4.3 1 22
+ 20.402965 4 5 tcp 1064 ------- 9 4.3 5.4 1 23
- 20.402965 4 5 tcp 1064 ------- 9 4.3 5.4 1 23
r 20.50302 4 5 tcp 1064 ------- 9 4.3 5.4 1 23
+ 20.50302 5 3 tcp 1064 ------- 3 5.1 3.1 1 24
- 20.50302 5 3 tcp 1064 ------- 3 5.1 3.1 1 24
+ 20.50302 5 8 tcp 1064 ------- 7 5.2 8.2 1 25
- 20.50302 5 8 tcp 1064 ------- 7 5.2 8.2 1 25
r 20.505871 5 3 tcp 1064 ------- 3 5.1 3.1 1 24
r 20.558694 5 8 tcp 1064 ------- 7 5.2 8.2 1 25
+ 20.558694 8 2 tcp 1064 ------- 2 8.1 2.1 1 26
- 20.558694 8 2 tcp 1064 ------- 2 8.1 2.1 1 26
r 20.561545 8 2 tcp 1064 ------- 2 8.1 2.1 1 26
+ 21.372453 11 4 httpInval 41 ------- 40 11.3 4.7 -1 27
- 21.372453 11 4 httpInval 41 ------- 40 11.3 4.7 -1 27
r 21.422672 11 4 httpInval 41 ------- 40 11.3 4.7 -1 27
+ 21.644573 4 5 httpInval 41 ------- 0 4.4 1073741824.0 -1 28
- 21.644573 4 5 httpInval 41 ------- 0 4.4 1073741824.0 -1 28
+ 21.644573 4 6 httpInval 41 ------- 0 4.5 1073741825.0 -1 29
- 21.644573 4 6 httpInval 41 ------- 0 4.5 1073741825.0 -1 29
+ 21.644573 4 7 httpInval 41 ------- 0 4.5 1073741825.0 -1 29
- 21.644573 4 7 httpInval 41 ------- 0 4.5 1073741825.0 -1 29
r 21.694791 4 6 httpInval 41 ------- 0 4.5 1073741825.0 -1 29
r 21.694791 4 7 httpInval 41 ------- 0 4.5 1073741825.0 -1 29
r 21.744575 4 5 httpInval 41 ------- 0 4.4 1073741824.0 -1 28
+ 21.894801 6 10 httpInval 41 ------- 0 6.5 1073741827.0 -1 30
- 21.894801 6 10 httpInval 41 ------- 0 6.5 1073741827.0 -1 30
r 21.896833 6 10 httpInval 41 ------- 0 6.5 1073741827.0 -1 30
+ 22.488884 5 4 httpInval 41 ------- 0 5.5 1073741824.0 -1 31
- 22.488884 5 4 httpInval 41 ------- 0 5.5 1073741824.0 -1 31
+ 22.488884 5 8 httpInval 41 ------- 0 5.6 1073741826.0 -1 32
- 22.488884 5 8 httpInval 41 ------- 0 5.6 1073741826.0 -1 32
+ 22.488884 5 9 httpInval 41 ------- 0 5.6 1073741826.0 -1 32
- 22.488884 5 9 httpInval 41 ------- 0 5.6 1073741826.0 -1 32
r 22.539102 5 8 httpInval 41 ------- 0 5.6 1073741826.0 -1 32
r 22.539102 5 9 httpInval 41 ------- 0 5.6 1073741826.0 -1 32
r 22.588886 5 4 httpInval 41 ------- 0 5.5 1073741824.0 -1 31
v 23.017657830000001 eval {set sim_annotation {S 11 INV _o407:0}}
+ 27.250545 11 4 httpInval 72 ------- 40 11.3 4.7 -1 33
- 27.250545 11 4 httpInval 72 ------- 40 11.3 4.7 -1 33
r 27.300929 11 4 httpInval 72 ------- 40 11.3 4.7 -1 33
+ 27.508257 6 10 httpInval 41 ------- 0 6.5 1073741827.0 -1 34
- 27.508257 6 10 httpInval 41 ------- 0 6.5 1073741827.0 -1 34
r 27.51029 6 10 httpInval 41 ------- 0 6.5 1073741827.0 -1 34
+ 27.550425 4 5 httpInval 72 ------- 0 4.4 1073741824.0 -1 35
- 27.550425 4 5 httpInval 72 ------- 0 4.4 1073741824.0 -1 35
+ 27.550425 4 6 httpInval 72 ------- 0 4.5 1073741825.0 -1 36
- 27.550425 4 6 httpInval 72 ------- 0 4.5 1073741825.0 -1 36
+ 27.550425 4 7 httpInval 72 ------- 0 4.5 1073741825.0 -1 36
- 27.550425 4 7 httpInval 72 ------- 0 4.5 1073741825.0 -1 36
r 27.600809 4 6 httpInval 72 ------- 0 4.5 1073741825.0 -1 36
r 27.600809 4 7 httpInval 72 ------- 0 4.5 1073741825.0 -1 36
r 27.650429 4 5 httpInval 72 ------- 0 4.4 1073741824.0 -1 35
+ 28.670201 5 4 httpInval 72 ------- 0 5.5 1073741824.0 -1 37
- 28.670201 5 4 httpInval 72 ------- 0 5.5 1073741824.0 -1 37
+ 28.670201 5 8 httpInval 72 ------- 0 5.6 1073741826.0 -1 38
- 28.670201 5 8 httpInval 72 ------- 0 5.6 1073741826.0 -1 38
+ 28.670201 5 9 httpInval 72 ------- 0 5.6 1073741826.0 -1 38
- 28.670201 5 9 httpInval 72 ------- 0 5.6 1073741826.0 -1 38
r 28.720585 5 8 httpInval 72 ------- 0 5.6 1073741826.0 -1 38
r 28.720585 5 9 httpInval 72 ------- 0 5.6 1073741826.0 -1 38
r 28.770205 5 4 httpInval 72 ------- 0 5.5 1073741824.0 -1 37
+ 31.291471 0 6 tcp 83 ------- 0 0.1 6.1 2 39
- 31.291471 0 6 tcp 83 ------- 0 0.1 6.1 2 39
r 31.293537 0 6 tcp 83 ------- 0 0.1 6.1 2 39
+ 31.293537 6 4 tcp 90 ------- 4 6.2 4.1 2 40
- 31.293537 6 4 tcp 90 ------- 4 6.2 4.1 2 40
r 31.344017 6 4 tcp 90 ------- 4 6.2 4.1 2 40
+ 31.344017 4 11 tcp 90 ------- 11 4.6 11.2 2 41
- 31.344017 4 11 tcp 90 ------- 11 4.6 11.2 2 41
r 31.394497 4 11 tcp 90 ------- 11 4.6 11.2 2 41
+ 31.394497 11 4 tcp 1064 ------- 11 11.2 4.6 3 42
- 31.394497 11 4 tcp 1064 ------- 11 11.2 4.6 3 42
r 31.450172 11 4 tcp 1064 ------- 11 11.2 4.6 3 42
+ 31.450172 4 6 tcp 1064 ------- 4 4.1 6.2 2 43
- 31.450172 4 6 tcp 1064 ------- 4 4.1 6.2 2 43
r 31.505846 4 6 tcp 1064 ------- 4 4.1 6.2 2 43
+ 31.505846 6 0 tcp 1064 ------- 0 6.1 0.1 2 44
- 31.505846 6 0 tcp 1064 ------- 0 6.1 0.1 2 44
r 31.508698 6 0 tcp 1064 ------- 0 6.1 0.1 2 44
+ 32.455294 1 10 tcp 83 ------- 1 1.1 10.1 2 45
- 32.455294 1 10 tcp 83 ------- 1 1.1 10.1 2 45
r 32.45736 1 10 tcp 83 ------- 1 1.1 10.1 2 45
+ 32.45736 10 1 tcp 1064 ------- 1 10.1 1.1 2 46
- 32.45736 10 1 tcp 1064 ------- 1 10.1 1.1 2 46
r 32.460212 10 1 tcp 1064 ------- 1 10.1 1.1 2 46
+ 33.125657 11 4 httpInval 72 ------- 40 11.3 4.7 -1 47
- 33.125657 11 4 httpInval 72 ------- 40 11.3 4.7 -1 47
r 33.176041 11 4 httpInval 72 ------- 40 11.3 4.7 -1 47
+ 33.219804 6 10 httpInval 72 ------- 0 6.5 1073741827.0 -1 48
- 33.219804 6 10 httpInval 72 ------- 0 6.5 1073741827.0 -1 48
r 33.221861 6 10 httpInval 72 ------- 0 6.5 1073741827.0 -1 48
+ 33.764797 0 6 tcp 83 ------- 0 0.1 6.1 3 49
- 33.764797 0 6 tcp 83 ------- 0 0.1 6.1 3 49
r 33.766863 0 6 tcp 83 ------- 0 0.1 6.1 3 49
+ 33.766863 6 0 tcp 1064 ------- 0 6.1 0.1 3 50
- 33.766863 6 0 tcp 1064 ------- 0 6.1 0.1 3 50
r 33.769714 6 0 tcp 1064 ------- 0 6.1 0.1 3 50
+ 33.811912 4 5 httpInval 72 ------- 0 4.4 1073741824.0 -1 51
- 33.811912 4 5 httpInval 72 ------- 0 4.4 1073741824.0 -1 51
+ 33.811912 4 6 httpInval 72 ------- 0 4.5 1073741825.0 -1 52
- 33.811912 4 6 httpInval 72 ------- 0 4.5 1073741825.0 -1 52
+ 33.811912 4 7 httpInval 72 ------- 0 4.5 1073741825.0 -1 52
- 33.811912 4 7 httpInval 72 ------- 0 4.5 1073741825.0 -1 52
r 33.862296 4 6 httpInval 72 ------- 0 4.5 1073741825.0 -1 52
r 33.862296 4 7 httpInval 72 ------- 0 4.5 1073741825.0 -1 52
r 33.911915 4 5 httpInval 72 ------- 0 4.4 1073741824.0 -1 51
+ 34.541698 2 8 tcp 83 ------- 2 2.1 8.1 2 53
- 34.541698 2 8 tcp 83 ------- 2 2.1 8.1 2 53
r 34.543764 2 8 tcp 83 ------- 2 2.1 8.1 2 53
+ 34.543764 8 5 tcp 90 ------- 7 8.2 5.2 2 54
- 34.543764 8 5 tcp 90 ------- 7 8.2 5.2 2 54
r 34.594244 8 5 tcp 90 ------- 7 8.2 5.2 2 54
+ 34.594244 5 4 tcp 90 ------- 9 5.4 4.3 2 55
- 34.594244 5 4 tcp 90 ------- 9 5.4 4.3 2 55
r 34.694249 5 4 tcp 90 ------- 9 5.4 4.3 2 55
+ 34.694249 4 5 tcp 1064 ------- 9 4.3 5.4 2 56
- 34.694249 4 5 tcp 1064 ------- 9 4.3 5.4 2 56
r 34.794304 4 5 tcp 1064 ------- 9 4.3 5.4 2 56
+ 34.794304 5 8 tcp 1064 ------- 7 5.2 8.2 2 57
- 34.794304 5 8 tcp 1064 ------- 7 5.2 8.2 2 57
r 34.849979 5 8 tcp 1064 ------- 7 5.2 8.2 2 57
+ 34.849979 8 2 tcp 1064 ------- 2 8.1 2.1 2 58
- 34.849979 8 2 tcp 1064 ------- 2 8.1 2.1 2 58
r 34.85283 8 2 tcp 1064 ------- 2 8.1 2.1 2 58
+ 35.082219 5 4 httpInval 72 ------- 0 5.5 1073741824.0 -1 59
- 35.082219 5 4 httpInval 72 ------- 0 5.5 1073741824.0 -1 59
+ 35.082219 5 8 httpInval 72 ------- 0 5.6 1073741826.0 -1 60
- 35.082219 5 8 httpInval 72 ------- 0 5.6 1073741826.0 -1 60
+ 35.082219 5 9 httpInval 72 ------- 0 5.6 1073741826.0 -1 60
- 35.082219 5 9 httpInval 72 ------- 0 5.6 1073741826.0 -1 60
r 35.132603 5 8 httpInval 72 ------- 0 5.6 1073741826.0 -1 60
r 35.132603 5 9 httpInval 72 ------- 0 5.6 1073741826.0 -1 60
r 35.182223 5 4 httpInval 72 ------- 0 5.5 1073741824.0 -1 59
+ 37.12836 0 6 tcp 83 ------- 0 0.1 6.1 4 61
- 37.12836 0 6 tcp 83 ------- 0 0.1 6.1 4 61
r 37.130426 0 6 tcp 83 ------- 0 0.1 6.1 4 61
+ 37.130426 6 0 tcp 1064 ------- 0 6.1 0.1 4 62
- 37.130426 6 0 tcp 1064 ------- 0 6.1 0.1 4 62
r 37.133277 6 0 tcp 1064 ------- 0 6.1 0.1 4 62
v 37.570599469999998 eval {set sim_annotation {S 11 INV _o407:0}}
+ 38.557914 11 4 httpInval 72 ------- 40 11.3 4.7 -1 63
- 38.557914 11 4 httpInval 72 ------- 40 11.3 4.7 -1 63
r 38.608298 11 4 httpInval 72 ------- 40 11.3 4.7 -1 63
+ 38.741606 6 10 httpInval 72 ------- 0 6.5 1073741827.0 -1 64
- 38.741606 6 10 httpInval 72 ------- 0 6.5 1073741827.0 -1 64
r 38.743664 6 10 httpInval 72 ------- 0 6.5 1073741827.0 -1 64
+ 40.25025 4 5 httpInval 72 ------- 0 4.4 1073741824.0 -1 65
- 40.25025 4 5 httpInval 72 ------- 0 4.4 1073741824.0 -1 65
+ 40.25025 4 6 httpInval 72 ------- 0 4.5 1073741825.0 -1 66
- 40.25025 4 6 httpInval 72 ------- 0 4.5 1073741825.0 -1 66
+ 40.25025 4 7 httpInval 72 ------- 0 4.5 1073741825.0 -1 66
- 40.25025 4 7 httpInval 72 ------- 0 4.5 1073741825.0 -1 66
r 40.300634 4 6 httpInval 72 ------- 0 4.5 1073741825.0 -1 66
r 40.300634 4 7 httpInval 72 ------- 0 4.5 1073741825.0 -1 66
r 40.350254 4 5 httpInval 72 ------- 0 4.4 1073741824.0 -1 65
+ 40.702533 5 4 httpInval 72 ------- 0 5.5 1073741824.0 -1 67
- 40.702533 5 4 httpInval 72 ------- 0 5.5 1073741824.0 -1 67
+ 40.702533 5 8 httpInval 72 ------- 0 5.6 1073741826.0 -1 68
- 40.702533 5 8 httpInval 72 ------- 0 5.6 1073741826.0 -1 68
+ 40.702533 5 9 httpInval 72 ------- 0 5.6 1073741826.0 -1 68
- 40.702533 5 9 httpInval 72 ------- 0 5.6 1073741826.0 -1 68
r 40.752917 5 8 httpInval 72 ------- 0 5.6 1073741826.0 -1 68
r 40.752917 5 9 httpInval 72 ------- 0 5.6 1073741826.0 -1 68
r 40.802537 5 4 httpInval 72 ------- 0 5.5 1073741824.0 -1 67
+ 43.410294 1 10 tcp 83 ------- 1 1.1 10.1 3 69
- 43.410294 1 10 tcp 83 ------- 1 1.1 10.1 3 69
r 43.41236 1 10 tcp 83 ------- 1 1.1 10.1 3 69
+ 43.41236 10 6 tcp 90 ------- 6 10.2 6.3 2 70
- 43.41236 10 6 tcp 90 ------- 6 10.2 6.3 2 70
r 43.414432 10 6 tcp 90 ------- 6 10.2 6.3 2 70
+ 43.414432 6 4 tcp 90 ------- 4 6.2 4.1 3 71
- 43.414432 6 4 tcp 90 ------- 4 6.2 4.1 3 71
r 43.464912 6 4 tcp 90 ------- 4 6.2 4.1 3 71
+ 43.464912 4 11 tcp 90 ------- 11 4.6 11.2 3 72
- 43.464912 4 11 tcp 90 ------- 11 4.6 11.2 3 72
r 43.515392 4 11 tcp 90 ------- 11 4.6 11.2 3 72
+ 43.515392 11 4 tcp 1064 ------- 11 11.2 4.6 4 73
- 43.515392 11 4 tcp 1064 ------- 11 11.2 4.6 4 73
r 43.571067 11 4 tcp 1064 ------- 11 11.2 4.6 4 73
+ 43.571067 4 6 tcp 1064 ------- 4 4.1 6.2 3 74
- 43.571067 4 6 tcp 1064 ------- 4 4.1 6.2 3 74
r 43.626742 4 6 tcp 1064 ------- 4 4.1 6.2 3 74
+ 43.626742 6 10 tcp 1064 ------- 6 6.3 10.2 2 75
- 43.626742 6 10 tcp 1064 ------- 6 6.3 10.2 2 75
r 43.629593 6 10 tcp 1064 ------- 6 6.3 10.2 2 75
+ 43.629593 10 1 tcp 1064 ------- 1 10.1 1.1 3 76
- 43.629593 10 1 tcp 1064 ------- 1 10.1 1.1 3 76
r 43.632444 10 1 tcp 1064 ------- 1 10.1 1.1 3 76
+ 44.218546 11 4 httpInval 72 ------- 40 11.3 4.7 -1 77
- 44.218546 11 4 httpInval 72 ------- 40 11.3 4.7 -1 77
r 44.26893 11 4 httpInval 72 ------- 40 11.3 4.7 -1 77
+ 45.109899 6 10 httpInval 72 ------- 0 6.5 1073741827.0 -1 78
- 45.109899 6 10 httpInval 72 ------- 0 6.5 1073741827.0 -1 78
r 45.111957 6 10 httpInval 72 ------- 0 6.5 1073741827.0 -1 78
+ 45.539288 0 6 tcp 83 ------- 0 0.1 6.1 5 79
- 45.539288 0 6 tcp 83 ------- 0 0.1 6.1 5 79
r 45.541354 0 6 tcp 83 ------- 0 0.1 6.1 5 79
+ 45.541354 6 0 tcp 1064 ------- 0 6.1 0.1 5 80
- 45.541354 6 0 tcp 1064 ------- 0 6.1 0.1 5 80
r 45.544205 6 0 tcp 1064 ------- 0 6.1 0.1 5 80
+ 46.254649 5 4 httpInval 72 ------- 0 5.5 1073741824.0 -1 81
- 46.254649 5 4 httpInval 72 ------- 0 5.5 1073741824.0 -1 81
+ 46.254649 5 8 httpInval 72 ------- 0 5.6 1073741826.0 -1 82
- 46.254649 5 8 httpInval 72 ------- 0 5.6 1073741826.0 -1 82
+ 46.254649 5 9 httpInval 72 ------- 0 5.6 1073741826.0 -1 82
- 46.254649 5 9 httpInval 72 ------- 0 5.6 1073741826.0 -1 82
r 46.305033 5 8 httpInval 72 ------- 0 5.6 1073741826.0 -1 82
r 46.305033 5 9 httpInval 72 ------- 0 5.6 1073741826.0 -1 82
r 46.354652 5 4 httpInval 72 ------- 0 5.5 1073741824.0 -1 81
+ 46.846385 4 5 httpInval 72 ------- 0 4.4 1073741824.0 -1 83
- 46.846385 4 5 httpInval 72 ------- 0 4.4 1073741824.0 -1 83
+ 46.846385 4 6 httpInval 72 ------- 0 4.5 1073741825.0 -1 84
- 46.846385 4 6 httpInval 72 ------- 0 4.5 1073741825.0 -1 84
+ 46.846385 4 7 httpInval 72 ------- 0 4.5 1073741825.0 -1 84
- 46.846385 4 7 httpInval 72 ------- 0 4.5 1073741825.0 -1 84
r 46.896769 4 6 httpInval 72 ------- 0 4.5 1073741825.0 -1 84
r 46.896769 4 7 httpInval 72 ------- 0 4.5 1073741825.0 -1 84
r 46.946389 4 5 httpInval 72 ------- 0 4.4 1073741824.0 -1 83
+ 47.186153 1 10 tcp 83 ------- 1 1.1 10.1 4 85
- 47.186153 1 10 tcp 83 ------- 1 1.1 10.1 4 85
r 47.188219 1 10 tcp 83 ------- 1 1.1 10.1 4 85
+ 47.188219 10 1 tcp 1064 ------- 1 10.1 1.1 4 86
- 47.188219 10 1 tcp 1064 ------- 1 10.1 1.1 4 86
r 47.191071 10 1 tcp 1064 ------- 1 10.1 1.1 4 86
+ 47.98456 0 6 tcp 83 ------- 0 0.1 6.1 6 87
- 47.98456 0 6 tcp 83 ------- 0 0.1 6.1 6 87
r 47.986626 0 6 tcp 83 ------- 0 0.1 6.1 6 87
+ 47.986626 6 0 tcp 1064 ------- 0 6.1 0.1 6 88
- 47.986626 6 0 tcp 1064 ------- 0 6.1 0.1 6 88
r 47.989477 6 0 tcp 1064 ------- 0 6.1 0.1 6 88
+ 50.148738 11 4 httpInval 72 ------- 40 11.3 4.7 -1 89
- 50.148738 11 4 httpInval 72 ------- 40 11.3 4.7 -1 89
r 50.199122 11 4 httpInval 72 ------- 40 11.3 4.7 -1 89
+ 51.169606 6 10 httpInval 72 ------- 0 6.5 1073741827.0 -1 90
- 51.169606 6 10 httpInval 72 ------- 0 6.5 1073741827.0 -1 90
r 51.171664 6 10 httpInval 72 ------- 0 6.5 1073741827.0 -1 90
+ 52.458272 4 5 httpInval 72 ------- 0 4.4 1073741824.0 -1 91
- 52.458272 4 5 httpInval 72 ------- 0 4.4 1073741824.0 -1 91
+ 52.458272 4 6 httpInval 72 ------- 0 4.5 1073741825.0 -1 92
- 52.458272 4 6 httpInval 72 ------- 0 4.5 1073741825.0 -1 92
+ 52.458272 4 7 httpInval 72 ------- 0 4.5 1073741825.0 -1 92
- 52.458272 4 7 httpInval 72 ------- 0 4.5 1073741825.0 -1 92
r 52.508656 4 6 httpInval 72 ------- 0 4.5 1073741825.0 -1 92
r 52.508656 4 7 httpInval 72 ------- 0 4.5 1073741825.0 -1 92
r 52.558275 4 5 httpInval 72 ------- 0 4.4 1073741824.0 -1 91
+ 52.831066 1 10 tcp 83 ------- 1 1.1 10.1 5 93
- 52.831066 1 10 tcp 83 ------- 1 1.1 10.1 5 93
+ 52.832228 5 4 httpInval 72 ------- 0 5.5 1073741824.0 -1 94
- 52.832228 5 4 httpInval 72 ------- 0 5.5 1073741824.0 -1 94
+ 52.832228 5 8 httpInval 72 ------- 0 5.6 1073741826.0 -1 95
- 52.832228 5 8 httpInval 72 ------- 0 5.6 1073741826.0 -1 95
+ 52.832228 5 9 httpInval 72 ------- 0 5.6 1073741826.0 -1 95
- 52.832228 5 9 httpInval 72 ------- 0 5.6 1073741826.0 -1 95
r 52.833132 1 10 tcp 83 ------- 1 1.1 10.1 5 93
+ 52.833132 10 1 tcp 1064 ------- 1 10.1 1.1 5 96
- 52.833132 10 1 tcp 1064 ------- 1 10.1 1.1 5 96
r 52.835984 10 1 tcp 1064 ------- 1 10.1 1.1 5 96
r 52.882612 5 8 httpInval 72 ------- 0 5.6 1073741826.0 -1 95
r 52.882612 5 9 httpInval 72 ------- 0 5.6 1073741826.0 -1 95
r 52.932232 5 4 httpInval 72 ------- 0 5.5 1073741824.0 -1 94
+ 53.32416 3 5 tcp 83 ------- 3 3.1 5.1 2 97
- 53.32416 3 5 tcp 83 ------- 3 3.1 5.1 2 97
r 53.326226 3 5 tcp 83 ------- 3 3.1 5.1 2 97
+ 53.326226 5 4 tcp 90 ------- 9 5.4 4.3 3 98
- 53.326226 5 4 tcp 90 ------- 9 5.4 4.3 3 98
r 53.426231 5 4 tcp 90 ------- 9 5.4 4.3 3 98
+ 53.426231 4 5 tcp 1064 ------- 9 4.3 5.4 3 99
- 53.426231 4 5 tcp 1064 ------- 9 4.3 5.4 3 99
r 53.526286 4 5 tcp 1064 ------- 9 4.3 5.4 3 99
+ 53.526286 5 3 tcp 1064 ------- 3 5.1 3.1 2 100
- 53.526286 5 3 tcp 1064 ------- 3 5.1 3.1 2 100
r 53.529137 5 3 tcp 1064 ------- 3 5.1 3.1 2 100
+ 54.303758 1 10 tcp 83 ------- 1 1.1 10.1 6 101
- 54.303758 1 10 tcp 83 ------- 1 1.1 10.1 6 101
r 54.305824 1 10 tcp 83 ------- 1 1.1 10.1 6 101
+ 54.305824 10 1 tcp 1064 ------- 1 10.1 1.1 6 102
- 54.305824 10 1 tcp 1064 ------- 1 10.1 1.1 6 102
r 54.308676 10 1 tcp 1064 ------- 1 10.1 1.1 6 102
+ 54.676628 2 8 tcp 83 ------- 2 2.1 8.1 3 103
- 54.676628 2 8 tcp 83 ------- 2 2.1 8.1 3 103
r 54.678694 2 8 tcp 83 ------- 2 2.1 8.1 3 103
+ 54.678694 8 5 tcp 90 ------- 7 8.2 5.2 3 104
- 54.678694 8 5 tcp 90 ------- 7 8.2 5.2 3 104
r 54.729174 8 5 tcp 90 ------- 7 8.2 5.2 3 104
+ 54.729174 5 8 tcp 1064 ------- 7 5.2 8.2 3 105
- 54.729174 5 8 tcp 1064 ------- 7 5.2 8.2 3 105
r 54.784849 5 8 tcp 1064 ------- 7 5.2 8.2 3 105
+ 54.784849 8 2 tcp 1064 ------- 2 8.1 2.1 3 106
- 54.784849 8 2 tcp 1064 ------- 2 8.1 2.1 3 106
r 54.7877 8 2 tcp 1064 ------- 2 8.1 2.1 3 106
+ 55.216878 3 5 tcp 83 ------- 3 3.1 5.1 3 107
- 55.216878 3 5 tcp 83 ------- 3 3.1 5.1 3 107
r 55.218944 3 5 tcp 83 ------- 3 3.1 5.1 3 107
+ 55.218944 5 3 tcp 1064 ------- 3 5.1 3.1 3 108
- 55.218944 5 3 tcp 1064 ------- 3 5.1 3.1 3 108
r 55.221796 5 3 tcp 1064 ------- 3 5.1 3.1 3 108
+ 55.456284 1 10 tcp 83 ------- 1 1.1 10.1 7 109
- 55.456284 1 10 tcp 83 ------- 1 1.1 10.1 7 109
r 55.45835 1 10 tcp 83 ------- 1 1.1 10.1 7 109
+ 55.45835 10 1 tcp 1064 ------- 1 10.1 1.1 7 110
- 55.45835 10 1 tcp 1064 ------- 1 10.1 1.1 7 110
r 55.461202 10 1 tcp 1064 ------- 1 10.1 1.1 7 110
+ 55.689824 11 4 httpInval 72 ------- 40 11.3 4.7 -1 111
- 55.689824 11 4 httpInval 72 ------- 40 11.3 4.7 -1 111
r 55.740208 11 4 httpInval 72 ------- 40 11.3 4.7 -1 111
+ 55.829396 0 6 tcp 83 ------- 0 0.1 6.1 7 112
- 55.829396 0 6 tcp 83 ------- 0 0.1 6.1 7 112
r 55.831462 0 6 tcp 83 ------- 0 0.1 6.1 7 112
+ 55.831462 6 0 tcp 1064 ------- 0 6.1 0.1 7 113
- 55.831462 6 0 tcp 1064 ------- 0 6.1 0.1 7 113
r 55.834313 6 0 tcp 1064 ------- 0 6.1 0.1 7 113
+ 56.043599 2 8 tcp 83 ------- 2 2.1 8.1 4 114
- 56.043599 2 8 tcp 83 ------- 2 2.1 8.1 4 114
r 56.045665 2 8 tcp 83 ------- 2 2.1 8.1 4 114
+ 56.045665 8 2 tcp 1064 ------- 2 8.1 2.1 4 115
- 56.045665 8 2 tcp 1064 ------- 2 8.1 2.1 4 115
r 56.048517 8 2 tcp 1064 ------- 2 8.1 2.1 4 115
+ 56.914708 6 10 httpInval 72 ------- 0 6.5 1073741827.0 -1 116
- 56.914708 6 10 httpInval 72 ------- 0 6.5 1073741827.0 -1 116
r 56.916765 6 10 httpInval 72 ------- 0 6.5 1073741827.0 -1 116
+ 58.065717 0 6 tcp 83 ------- 0 0.1 6.1 8 117
- 58.065717 0 6 tcp 83 ------- 0 0.1 6.1 8 117
r 58.067783 0 6 tcp 83 ------- 0 0.1 6.1 8 117
+ 58.067783 6 0 tcp 1064 ------- 0 6.1 0.1 8 118
- 58.067783 6 0 tcp 1064 ------- 0 6.1 0.1 8 118
r 58.070634 6 0 tcp 1064 ------- 0 6.1 0.1 8 118
+ 58.451139 2 8 tcp 83 ------- 2 2.1 8.1 5 119
- 58.451139 2 8 tcp 83 ------- 2 2.1 8.1 5 119
r 58.453205 2 8 tcp 83 ------- 2 2.1 8.1 5 119
+ 58.453205 8 2 tcp 1064 ------- 2 8.1 2.1 5 120
- 58.453205 8 2 tcp 1064 ------- 2 8.1 2.1 5 120
r 58.456057 8 2 tcp 1064 ------- 2 8.1 2.1 5 120
+ 58.493908 4 5 httpInval 72 ------- 0 4.4 1073741824.0 -1 121
- 58.493908 4 5 httpInval 72 ------- 0 4.4 1073741824.0 -1 121
+ 58.493908 4 6 httpInval 72 ------- 0 4.5 1073741825.0 -1 122
- 58.493908 4 6 httpInval 72 ------- 0 4.5 1073741825.0 -1 122
+ 58.493908 4 7 httpInval 72 ------- 0 4.5 1073741825.0 -1 122
- 58.493908 4 7 httpInval 72 ------- 0 4.5 1073741825.0 -1 122
+ 58.509234 5 4 httpInval 72 ------- 0 5.5 1073741824.0 -1 123
- 58.509234 5 4 httpInval 72 ------- 0 5.5 1073741824.0 -1 123
+ 58.509234 5 8 httpInval 72 ------- 0 5.6 1073741826.0 -1 124
- 58.509234 5 8 httpInval 72 ------- 0 5.6 1073741826.0 -1 124
+ 58.509234 5 9 httpInval 72 ------- 0 5.6 1073741826.0 -1 124
- 58.509234 5 9 httpInval 72 ------- 0 5.6 1073741826.0 -1 124
r 58.544292 4 6 httpInval 72 ------- 0 4.5 1073741825.0 -1 122
r 58.544292 4 7 httpInval 72 ------- 0 4.5 1073741825.0 -1 122
r 58.559618 5 8 httpInval 72 ------- 0 5.6 1073741826.0 -1 124
r 58.559618 5 9 httpInval 72 ------- 0 5.6 1073741826.0 -1 124
r 58.593911 4 5 httpInval 72 ------- 0 4.4 1073741824.0 -1 121
r 58.609238 5 4 httpInval 72 ------- 0 5.5 1073741824.0 -1 123
+ 58.829606 1 10 tcp 83 ------- 1 1.1 10.1 8 125
- 58.829606 1 10 tcp 83 ------- 1 1.1 10.1 8 125
r 58.831672 1 10 tcp 83 ------- 1 1.1 10.1 8 125
+ 58.831672 10 1 tcp 1064 ------- 1 10.1 1.1 8 126
- 58.831672 10 1 tcp 1064 ------- 1 10.1 1.1 8 126
r 58.834524 10 1 tcp 1064 ------- 1 10.1 1.1 8 126
+ 59.576455 2 8 tcp 83 ------- 2 2.1 8.1 6 127
- 59.576455 2 8 tcp 83 ------- 2 2.1 8.1 6 127
r 59.578521 2 8 tcp 83 ------- 2 2.1 8.1 6 127
+ 59.578521 8 2 tcp 1064 ------- 2 8.1 2.1 6 128
- 59.578521 8 2 tcp 1064 ------- 2 8.1 2.1 6 128
r 59.581373 8 2 tcp 1064 ------- 2 8.1 2.1 6 128
+ 61.348152 11 4 httpInval 72 ------- 40 11.3 4.7 -1 129
- 61.348152 11 4 httpInval 72 ------- 40 11.3 4.7 -1 129
r 61.398536 11 4 httpInval 72 ------- 40 11.3 4.7 -1 129
+ 62.589675 1 10 tcp 83 ------- 1 1.1 10.1 9 130
- 62.589675 1 10 tcp 83 ------- 1 1.1 10.1 9 130
r 62.591741 1 10 tcp 83 ------- 1 1.1 10.1 9 130
+ 62.591741 10 1 tcp 1064 ------- 1 10.1 1.1 9 131
- 62.591741 10 1 tcp 1064 ------- 1 10.1 1.1 9 131
r 62.594593 10 1 tcp 1064 ------- 1 10.1 1.1 9 131
+ 62.875381 6 10 httpInval 72 ------- 0 6.5 1073741827.0 -1 132
- 62.875381 6 10 httpInval 72 ------- 0 6.5 1073741827.0 -1 132
r 62.877439 6 10 httpInval 72 ------- 0 6.5 1073741827.0 -1 132
+ 64.216559 5 4 httpInval 72 ------- 0 5.5 1073741824.0 -1 133
- 64.216559 5 4 httpInval 72 ------- 0 5.5 1073741824.0 -1 133
+ 64.216559 5 8 httpInval 72 ------- 0 5.6 1073741826.0 -1 134
- 64.216559 5 8 httpInval 72 ------- 0 5.6 1073741826.0 -1 134
+ 64.216559 5 9 httpInval 72 ------- 0 5.6 1073741826.0 -1 134
- 64.216559 5 9 httpInval 72 ------- 0 5.6 1073741826.0 -1 134
r 64.266943 5 8 httpInval 72 ------- 0 5.6 1073741826.0 -1 134
r 64.266943 5 9 httpInval 72 ------- 0 5.6 1073741826.0 -1 134
r 64.316563 5 4 httpInval 72 ------- 0 5.5 1073741824.0 -1 133
+ 64.563067 1 10 tcp 83 ------- 1 1.1 10.1 10 135
- 64.563067 1 10 tcp 83 ------- 1 1.1 10.1 10 135
r 64.565133 1 10 tcp 83 ------- 1 1.1 10.1 10 135
+ 64.565133 10 1 tcp 1064 ------- 1 10.1 1.1 10 136
- 64.565133 10 1 tcp 1064 ------- 1 10.1 1.1 10 136
r 64.567985 10 1 tcp 1064 ------- 1 10.1 1.1 10 136
+ 64.781063 4 5 httpInval 72 ------- 0 4.4 1073741824.0 -1 137
- 64.781063 4 5 httpInval 72 ------- 0 4.4 1073741824.0 -1 137
+ 64.781063 4 6 httpInval 72 ------- 0 4.5 1073741825.0 -1 138
- 64.781063 4 6 httpInval 72 ------- 0 4.5 1073741825.0 -1 138
+ 64.781063 4 7 httpInval 72 ------- 0 4.5 1073741825.0 -1 138
- 64.781063 4 7 httpInval 72 ------- 0 4.5 1073741825.0 -1 138
r 64.831447 4 6 httpInval 72 ------- 0 4.5 1073741825.0 -1 138
r 64.831447 4 7 httpInval 72 ------- 0 4.5 1073741825.0 -1 138
r 64.881066 4 5 httpInval 72 ------- 0 4.4 1073741824.0 -1 137
+ 67.034439 11 4 httpInval 41 ------- 40 11.3 4.7 -1 139
- 67.034439 11 4 httpInval 41 ------- 40 11.3 4.7 -1 139
r 67.084657 11 4 httpInval 41 ------- 40 11.3 4.7 -1 139
+ 67.112384 2 8 tcp 83 ------- 2 2.1 8.1 7 140
- 67.112384 2 8 tcp 83 ------- 2 2.1 8.1 7 140
r 67.11445 2 8 tcp 83 ------- 2 2.1 8.1 7 140
+ 67.11445 8 2 tcp 1064 ------- 2 8.1 2.1 7 141
- 67.11445 8 2 tcp 1064 ------- 2 8.1 2.1 7 141
r 67.117302 8 2 tcp 1064 ------- 2 8.1 2.1 7 141
+ 68.694154 6 10 httpInval 72 ------- 0 6.5 1073741827.0 -1 142
- 68.694154 6 10 httpInval 72 ------- 0 6.5 1073741827.0 -1 142
r 68.696212 6 10 httpInval 72 ------- 0 6.5 1073741827.0 -1 142
+ 70.345559 5 4 httpInval 41 ------- 0 5.5 1073741824.0 -1 143
- 70.345559 5 4 httpInval 41 ------- 0 5.5 1073741824.0 -1 143
+ 70.345559 5 8 httpInval 41 ------- 0 5.6 1073741826.0 -1 144
- 70.345559 5 8 httpInval 41 ------- 0 5.6 1073741826.0 -1 144
+ 70.345559 5 9 httpInval 41 ------- 0 5.6 1073741826.0 -1 144
- 70.345559 5 9 httpInval 41 ------- 0 5.6 1073741826.0 -1 144
r 70.395777 5 8 httpInval 41 ------- 0 5.6 1073741826.0 -1 144
r 70.395777 5 9 httpInval 41 ------- 0 5.6 1073741826.0 -1 144
r 70.445561 5 4 httpInval 41 ------- 0 5.5 1073741824.0 -1 143
+ 70.747653 4 5 httpInval 41 ------- 0 4.4 1073741824.0 -1 145
- 70.747653 4 5 httpInval 41 ------- 0 4.4 1073741824.0 -1 145
+ 70.747653 4 6 httpInval 41 ------- 0 4.5 1073741825.0 -1 146
- 70.747653 4 6 httpInval 41 ------- 0 4.5 1073741825.0 -1 146
+ 70.747653 4 7 httpInval 41 ------- 0 4.5 1073741825.0 -1 146
- 70.747653 4 7 httpInval 41 ------- 0 4.5 1073741825.0 -1 146
r 70.797872 4 6 httpInval 41 ------- 0 4.5 1073741825.0 -1 146
r 70.797872 4 7 httpInval 41 ------- 0 4.5 1073741825.0 -1 146
r 70.847655 4 5 httpInval 41 ------- 0 4.4 1073741824.0 -1 145
+ 72.746948 11 4 httpInval 41 ------- 40 11.3 4.7 -1 147
- 72.746948 11 4 httpInval 41 ------- 40 11.3 4.7 -1 147
r 72.797166 11 4 httpInval 41 ------- 40 11.3 4.7 -1 147
v 72.987582090000004 eval {set sim_annotation {S 11 INV _o407:0}}
+ 73.637365 2 8 tcp 83 ------- 2 2.1 8.1 8 148
- 73.637365 2 8 tcp 83 ------- 2 2.1 8.1 8 148
r 73.639431 2 8 tcp 83 ------- 2 2.1 8.1 8 148
+ 73.639431 8 2 tcp 1064 ------- 2 8.1 2.1 8 149
- 73.639431 8 2 tcp 1064 ------- 2 8.1 2.1 8 149
r 73.642283 8 2 tcp 1064 ------- 2 8.1 2.1 8 149
+ 74.164117 0 6 tcp 83 ------- 0 0.1 6.1 9 150
- 74.164117 0 6 tcp 83 ------- 0 0.1 6.1 9 150
r 74.166183 0 6 tcp 83 ------- 0 0.1 6.1 9 150
+ 74.166183 6 0 tcp 1064 ------- 0 6.1 0.1 9 151
- 74.166183 6 0 tcp 1064 ------- 0 6.1 0.1 9 151
r 74.169034 6 0 tcp 1064 ------- 0 6.1 0.1 9 151
+ 74.747129 0 6 tcp 83 ------- 0 0.1 6.1 10 152
- 74.747129 0 6 tcp 83 ------- 0 0.1 6.1 10 152
r 74.749195 0 6 tcp 83 ------- 0 0.1 6.1 10 152
+ 74.749195 6 0 tcp 1064 ------- 0 6.1 0.1 10 153