# TESTNAME: ttl-PB
# TOPOLOGY: BottleNeck
# avg-comp-page-age: 40000
# avg-page-age: 10
# avg-page-size: 1024
# avg-req-interval: 6
# client-req-size: 43
# comp-page-size: 51200
# duration: 200
# enable-log: 0
# hb-interval: 6
# max-page-age: 70
# max-page-size: 50000
# max-req-interval: 70
# min-page-age: 50
# min-page-size: 100
# min-req-interval: 50
# nam-trace-all: 1
# ns-random-seed: 188312339
# num-2nd-cache: 5
# num-comp-pages: 1
# prot: ttl-PB
# scheduler-type: Calendar
# single-page: 1
# ttl: 0.1
# upd-interval: 5
# xtrace-page: webtrace-pglog
# xtrace-req: webtrace-reqlog
+ 20 7 1 tcp 83 ------- 0 7.1 1.1 1 0
- 20 7 1 tcp 83 ------- 0 7.1 1.1 1 0
+ 20 8 2 tcp 83 ------- 2 8.1 2.1 1 1
- 20 8 2 tcp 83 ------- 2 8.1 2.1 1 1
+ 20 9 3 tcp 83 ------- 4 9.1 3.1 1 2
- 20 9 3 tcp 83 ------- 4 9.1 3.1 1 2
+ 20 10 4 tcp 83 ------- 6 10.1 4.1 1 3
- 20 10 4 tcp 83 ------- 6 10.1 4.1 1 3
+ 20 11 5 tcp 83 ------- 8 11.1 5.1 1 4
- 20 11 5 tcp 83 ------- 8 11.1 5.1 1 4
r 20.002066 7 1 tcp 83 ------- 0 7.1 1.1 1 0
+ 20.002066 1 12 tcp 83 ------- 1 1.2 6.1 1 5
- 20.002066 1 12 tcp 83 ------- 1 1.2 6.1 1 5
r 20.002066 8 2 tcp 83 ------- 2 8.1 2.1 1 1
+ 20.002066 2 12 tcp 83 ------- 3 2.2 6.2 1 6
- 20.002066 2 12 tcp 83 ------- 3 2.2 6.2 1 6
r 20.002066 9 3 tcp 83 ------- 4 9.1 3.1 1 2
+ 20.002066 3 12 tcp 83 ------- 5 3.2 6.3 1 7
- 20.002066 3 12 tcp 83 ------- 5 3.2 6.3 1 7
r 20.002066 10 4 tcp 83 ------- 6 10.1 4.1 1 3
+ 20.002066 4 12 tcp 83 ------- 7 4.2 6.4 1 8
- 20.002066 4 12 tcp 83 ------- 7 4.2 6.4 1 8
r 20.002066 11 5 tcp 83 ------- 8 11.1 5.1 1 4
+ 20.002066 5 12 tcp 83 ------- 9 5.2 6.5 1 9
- 20.002066 5 12 tcp 83 ------- 9 5.2 6.5 1 9
r 20.052509 1 12 tcp 83 ------- 1 1.2 6.1 1 5
+ 20.052509 12 6 tcp 83 ------- 1 1.2 6.1 1 5
- 20.052509 12 6 tcp 83 ------- 1 1.2 6.1 1 5
r 20.052509 2 12 tcp 83 ------- 3 2.2 6.2 1 6
+ 20.052509 12 6 tcp 83 ------- 3 2.2 6.2 1 6
r 20.052509 3 12 tcp 83 ------- 5 3.2 6.3 1 7
+ 20.052509 12 6 tcp 83 ------- 5 3.2 6.3 1 7
r 20.052509 4 12 tcp 83 ------- 7 4.2 6.4 1 8
+ 20.052509 12 6 tcp 83 ------- 7 4.2 6.4 1 8
r 20.052509 5 12 tcp 83 ------- 9 5.2 6.5 1 9
+ 20.052509 12 6 tcp 83 ------- 9 5.2 6.5 1 9
- 20.052952 12 6 tcp 83 ------- 3 2.2 6.2 1 6
- 20.053394 12 6 tcp 83 ------- 5 3.2 6.3 1 7
- 20.053837 12 6 tcp 83 ------- 7 4.2 6.4 1 8
- 20.05428 12 6 tcp 83 ------- 9 5.2 6.5 1 9
r 20.102952 12 6 tcp 83 ------- 1 1.2 6.1 1 5
+ 20.102952 6 12 tcp 83 ------- 10 6.6 0.1 1 10
- 20.102952 6 12 tcp 83 ------- 10 6.6 0.1 1 10
r 20.103394 12 6 tcp 83 ------- 3 2.2 6.2 1 6
r 20.103837 12 6 tcp 83 ------- 5 3.2 6.3 1 7
r 20.10428 12 6 tcp 83 ------- 7 4.2 6.4 1 8
r 20.104722 12 6 tcp 83 ------- 9 5.2 6.5 1 9
r 20.153394 6 12 tcp 83 ------- 10 6.6 0.1 1 10
+ 20.153394 12 1 tcp 83 ------- 10 6.6 0.1 1 10
- 20.153394 12 1 tcp 83 ------- 10 6.6 0.1 1 10
r 20.203837 12 1 tcp 83 ------- 10 6.6 0.1 1 10
+ 20.203837 1 0 tcp 83 ------- 10 6.6 0.1 1 10
- 20.203837 1 0 tcp 83 ------- 10 6.6 0.1 1 10
r 20.30428 1 0 tcp 83 ------- 10 6.6 0.1 1 10
+ 20.30428 0 1 tcp 1064 ------- 10 0.1 6.6 1 11
- 20.30428 0 1 tcp 1064 ------- 10 0.1 6.6 1 11
r 20.409954 0 1 tcp 1064 ------- 10 0.1 6.6 1 11
+ 20.409954 1 12 tcp 1064 ------- 10 0.1 6.6 1 11
- 20.409954 1 12 tcp 1064 ------- 10 0.1 6.6 1 11
r 20.465629 1 12 tcp 1064 ------- 10 0.1 6.6 1 11
+ 20.465629 12 6 tcp 1064 ------- 10 0.1 6.6 1 11
- 20.465629 12 6 tcp 1064 ------- 10 0.1 6.6 1 11
r 20.521304 12 6 tcp 1064 ------- 10 0.1 6.6 1 11
+ 20.521304 6 12 tcp 1064 ------- 1 6.1 1.2 1 12
- 20.521304 6 12 tcp 1064 ------- 1 6.1 1.2 1 12
+ 20.521304 6 12 tcp 1064 ------- 3 6.2 2.2 1 13
+ 20.521304 6 12 tcp 1064 ------- 5 6.3 3.2 1 14
+ 20.521304 6 12 tcp 1064 ------- 7 6.4 4.2 1 15
+ 20.521304 6 12 tcp 1064 ------- 9 6.5 5.2 1 16
- 20.526978 6 12 tcp 1064 ------- 3 6.2 2.2 1 13
- 20.532653 6 12 tcp 1064 ------- 5 6.3 3.2 1 14
- 20.538328 6 12 tcp 1064 ------- 7 6.4 4.2 1 15
- 20.544002 6 12 tcp 1064 ------- 9 6.5 5.2 1 16
r 20.576978 6 12 tcp 1064 ------- 1 6.1 1.2 1 12
+ 20.576978 12 1 tcp 1064 ------- 1 6.1 1.2 1 12
- 20.576978 12 1 tcp 1064 ------- 1 6.1 1.2 1 12
r 20.582653 6 12 tcp 1064 ------- 3 6.2 2.2 1 13
+ 20.582653 12 2 tcp 1064 ------- 3 6.2 2.2 1 13
- 20.582653 12 2 tcp 1064 ------- 3 6.2 2.2 1 13
r 20.588328 6 12 tcp 1064 ------- 5 6.3 3.2 1 14
+ 20.588328 12 3 tcp 1064 ------- 5 6.3 3.2 1 14
- 20.588328 12 3 tcp 1064 ------- 5 6.3 3.2 1 14
r 20.594002 6 12 tcp 1064 ------- 7 6.4 4.2 1 15
+ 20.594002 12 4 tcp 1064 ------- 7 6.4 4.2 1 15
- 20.594002 12 4 tcp 1064 ------- 7 6.4 4.2 1 15
r 20.599677 6 12 tcp 1064 ------- 9 6.5 5.2 1 16
+ 20.599677 12 5 tcp 1064 ------- 9 6.5 5.2 1 16
- 20.599677 12 5 tcp 1064 ------- 9 6.5 5.2 1 16
r 20.632653 12 1 tcp 1064 ------- 1 6.1 1.2 1 12
+ 20.632653 1 7 tcp 1064 ------- 0 1.1 7.1 1 17
- 20.632653 1 7 tcp 1064 ------- 0 1.1 7.1 1 17
r 20.635504 1 7 tcp 1064 ------- 0 1.1 7.1 1 17
r 20.638328 12 2 tcp 1064 ------- 3 6.2 2.2 1 13
+ 20.638328 2 8 tcp 1064 ------- 2 2.1 8.1 1 18
- 20.638328 2 8 tcp 1064 ------- 2 2.1 8.1 1 18
r 20.641179 2 8 tcp 1064 ------- 2 2.1 8.1 1 18
r 20.644002 12 3 tcp 1064 ------- 5 6.3 3.2 1 14
+ 20.644002 3 9 tcp 1064 ------- 4 3.1 9.1 1 19
- 20.644002 3 9 tcp 1064 ------- 4 3.1 9.1 1 19
r 20.646854 3 9 tcp 1064 ------- 4 3.1 9.1 1 19
r 20.649677 12 4 tcp 1064 ------- 7 6.4 4.2 1 15
+ 20.649677 4 10 tcp 1064 ------- 6 4.1 10.1 1 20
- 20.649677 4 10 tcp 1064 ------- 6 4.1 10.1 1 20
r 20.652528 4 10 tcp 1064 ------- 6 4.1 10.1 1 20
r 20.655352 12 5 tcp 1064 ------- 9 6.5 5.2 1 16
+ 20.655352 5 11 tcp 1064 ------- 8 5.1 11.1 1 21
- 20.655352 5 11 tcp 1064 ------- 8 5.1 11.1 1 21
r 20.658203 5 11 tcp 1064 ------- 8 5.1 11.1 1 21
v 20.790064080000001 eval {set sim_annotation {S 0 INV _o434:0}}
v 23.215554350000001 eval {set sim_annotation {S 0 INV _o434:0}}
v 29.11838479 eval {set sim_annotation {S 0 INV _o434:0}}
+ 31.291471 7 1 tcp 83 ------- 0 7.1 1.1 2 22
- 31.291471 7 1 tcp 83 ------- 0 7.1 1.1 2 22
r 31.293537 7 1 tcp 83 ------- 0 7.1 1.1 2 22
+ 31.293537 1 12 tcp 90 ------- 1 1.2 6.1 2 23
- 31.293537 1 12 tcp 90 ------- 1 1.2 6.1 2 23
r 31.344017 1 12 tcp 90 ------- 1 1.2 6.1 2 23
+ 31.344017 12 6 tcp 90 ------- 1 1.2 6.1 2 23
- 31.344017 12 6 tcp 90 ------- 1 1.2 6.1 2 23
r 31.394497 12 6 tcp 90 ------- 1 1.2 6.1 2 23
+ 31.394497 6 12 tcp 90 ------- 10 6.6 0.1 2 24
- 31.394497 6 12 tcp 90 ------- 10 6.6 0.1 2 24
r 31.444977 6 12 tcp 90 ------- 10 6.6 0.1 2 24
+ 31.444977 12 1 tcp 90 ------- 10 6.6 0.1 2 24
- 31.444977 12 1 tcp 90 ------- 10 6.6 0.1 2 24
r 31.495457 12 1 tcp 90 ------- 10 6.6 0.1 2 24
+ 31.495457 1 0 tcp 90 ------- 10 6.6 0.1 2 24
- 31.495457 1 0 tcp 90 ------- 10 6.6 0.1 2 24
r 31.595937 1 0 tcp 90 ------- 10 6.6 0.1 2 24
+ 31.595937 0 1 tcp 1064 ------- 10 0.1 6.6 2 25
- 31.595937 0 1 tcp 1064 ------- 10 0.1 6.6 2 25
r 31.701612 0 1 tcp 1064 ------- 10 0.1 6.6 2 25
+ 31.701612 1 12 tcp 1064 ------- 10 0.1 6.6 2 25
- 31.701612 1 12 tcp 1064 ------- 10 0.1 6.6 2 25
r 31.757286 1 12 tcp 1064 ------- 10 0.1 6.6 2 25
+ 31.757286 12 6 tcp 1064 ------- 10 0.1 6.6 2 25
- 31.757286 12 6 tcp 1064 ------- 10 0.1 6.6 2 25
r 31.812961 12 6 tcp 1064 ------- 10 0.1 6.6 2 25
+ 31.812961 6 12 tcp 1064 ------- 1 6.1 1.2 2 26
- 31.812961 6 12 tcp 1064 ------- 1 6.1 1.2 2 26
r 31.868636 6 12 tcp 1064 ------- 1 6.1 1.2 2 26
+ 31.868636 12 1 tcp 1064 ------- 1 6.1 1.2 2 26
- 31.868636 12 1 tcp 1064 ------- 1 6.1 1.2 2 26
r 31.92431 12 1 tcp 1064 ------- 1 6.1 1.2 2 26
+ 31.92431 1 7 tcp 1064 ------- 0 1.1 7.1 2 27
- 31.92431 1 7 tcp 1064 ------- 0 1.1 7.1 2 27
r 31.927162 1 7 tcp 1064 ------- 0 1.1 7.1 2 27
+ 32.455294 8 2 tcp 83 ------- 2 8.1 2.1 2 28
- 32.455294 8 2 tcp 83 ------- 2 8.1 2.1 2 28
r 32.45736 8 2 tcp 83 ------- 2 8.1 2.1 2 28
+ 32.45736 2 12 tcp 90 ------- 3 2.2 6.2 2 29
- 32.45736 2 12 tcp 90 ------- 3 2.2 6.2 2 29
r 32.50784 2 12 tcp 90 ------- 3 2.2 6.2 2 29
+ 32.50784 12 6 tcp 90 ------- 3 2.2 6.2 2 29
- 32.50784 12 6 tcp 90 ------- 3 2.2 6.2 2 29
r 32.55832 12 6 tcp 90 ------- 3 2.2 6.2 2 29
+ 32.55832 6 12 tcp 90 ------- 10 6.6 0.1 3 30
- 32.55832 6 12 tcp 90 ------- 10 6.6 0.1 3 30
r 32.6088 6 12 tcp 90 ------- 10 6.6 0.1 3 30
+ 32.6088 12 1 tcp 90 ------- 10 6.6 0.1 3 30
- 32.6088 12 1 tcp 90 ------- 10 6.6 0.1 3 30
r 32.65928 12 1 tcp 90 ------- 10 6.6 0.1 3 30
+ 32.65928 1 0 tcp 90 ------- 10 6.6 0.1 3 30
- 32.65928 1 0 tcp 90 ------- 10 6.6 0.1 3 30
r 32.75976 1 0 tcp 90 ------- 10 6.6 0.1 3 30
+ 32.75976 0 1 tcp 83 ------- 10 0.1 6.6 3 31
- 32.75976 0 1 tcp 83 ------- 10 0.1 6.6 3 31
r 32.860203 0 1 tcp 83 ------- 10 0.1 6.6 3 31
+ 32.860203 1 12 tcp 83 ------- 10 0.1 6.6 3 31
- 32.860203 1 12 tcp 83 ------- 10 0.1 6.6 3 31
r 32.910646 1 12 tcp 83 ------- 10 0.1 6.6 3 31
+ 32.910646 12 6 tcp 83 ------- 10 0.1 6.6 3 31
- 32.910646 12 6 tcp 83 ------- 10 0.1 6.6 3 31
r 32.961088 12 6 tcp 83 ------- 10 0.1 6.6 3 31
+ 32.961088 6 12 tcp 1064 ------- 3 6.2 2.2 2 32
- 32.961088 6 12 tcp 1064 ------- 3 6.2 2.2 2 32
r 33.016763 6 12 tcp 1064 ------- 3 6.2 2.2 2 32
+ 33.016763 12 2 tcp 1064 ------- 3 6.2 2.2 2 32
- 33.016763 12 2 tcp 1064 ------- 3 6.2 2.2 2 32
r 33.072438 12 2 tcp 1064 ------- 3 6.2 2.2 2 32
+ 33.072438 2 8 tcp 1064 ------- 2 2.1 8.1 2 33
- 33.072438 2 8 tcp 1064 ------- 2 2.1 8.1 2 33
r 33.075289 2 8 tcp 1064 ------- 2 2.1 8.1 2 33
+ 33.473326 11 5 tcp 83 ------- 8 11.1 5.1 2 34
- 33.473326 11 5 tcp 83 ------- 8 11.1 5.1 2 34
r 33.475392 11 5 tcp 83 ------- 8 11.1 5.1 2 34
+ 33.475392 5 12 tcp 90 ------- 9 5.2 6.5 2 35
- 33.475392 5 12 tcp 90 ------- 9 5.2 6.5 2 35
r 33.525872 5 12 tcp 90 ------- 9 5.2 6.5 2 35
+ 33.525872 12 6 tcp 90 ------- 9 5.2 6.5 2 35
- 33.525872 12 6 tcp 90 ------- 9 5.2 6.5 2 35
r 33.576352 12 6 tcp 90 ------- 9 5.2 6.5 2 35
+ 33.576352 6 12 tcp 90 ------- 10 6.6 0.1 4 36
- 33.576352 6 12 tcp 90 ------- 10 6.6 0.1 4 36
r 33.626832 6 12 tcp 90 ------- 10 6.6 0.1 4 36
+ 33.626832 12 1 tcp 90 ------- 10 6.6 0.1 4 36
- 33.626832 12 1 tcp 90 ------- 10 6.6 0.1 4 36
r 33.677312 12 1 tcp 90 ------- 10 6.6 0.1 4 36
+ 33.677312 1 0 tcp 90 ------- 10 6.6 0.1 4 36
- 33.677312 1 0 tcp 90 ------- 10 6.6 0.1 4 36
r 33.777792 1 0 tcp 90 ------- 10 6.6 0.1 4 36
+ 33.777792 0 1 tcp 83 ------- 10 0.1 6.6 4 37
- 33.777792 0 1 tcp 83 ------- 10 0.1 6.6 4 37
r 33.878235 0 1 tcp 83 ------- 10 0.1 6.6 4 37
+ 33.878235 1 12 tcp 83 ------- 10 0.1 6.6 4 37
- 33.878235 1 12 tcp 83 ------- 10 0.1 6.6 4 37
r 33.928678 1 12 tcp 83 ------- 10 0.1 6.6 4 37
+ 33.928678 12 6 tcp 83 ------- 10 0.1 6.6 4 37
- 33.928678 12 6 tcp 83 ------- 10 0.1 6.6 4 37
r 33.97912 12 6 tcp 83 ------- 10 0.1 6.6 4 37
+ 33.97912 6 12 tcp 1064 ------- 9 6.5 5.2 2 38
- 33.97912 6 12 tcp 1064 ------- 9 6.5 5.2 2 38
r 34.034795 6 12 tcp 1064 ------- 9 6.5 5.2 2 38
+ 34.034795 12 5 tcp 1064 ------- 9 6.5 5.2 2 38
- 34.034795 12 5 tcp 1064 ------- 9 6.5 5.2 2 38
r 34.09047 12 5 tcp 1064 ------- 9 6.5 5.2 2 38
+ 34.09047 5 11 tcp 1064 ------- 8 5.1 11.1 2 39
- 34.09047 5 11 tcp 1064 ------- 8 5.1 11.1 2 39
r 34.093321 5 11 tcp 1064 ------- 8 5.1 11.1 2 39
+ 34.541698 9 3 tcp 83 ------- 4 9.1 3.1 2 40
- 34.541698 9 3 tcp 83 ------- 4 9.1 3.1 2 40
r 34.543764 9 3 tcp 83 ------- 4 9.1 3.1 2 40
+ 34.543764 3 12 tcp 90 ------- 5 3.2 6.3 2 41
- 34.543764 3 12 tcp 90 ------- 5 3.2 6.3 2 41
r 34.594244 3 12 tcp 90 ------- 5 3.2 6.3 2 41
+ 34.594244 12 6 tcp 90 ------- 5 3.2 6.3 2 41
- 34.594244 12 6 tcp 90 ------- 5 3.2 6.3 2 41
r 34.644724 12 6 tcp 90 ------- 5 3.2 6.3 2 41
+ 34.644724 6 12 tcp 90 ------- 10 6.6 0.1 5 42
- 34.644724 6 12 tcp 90 ------- 10 6.6 0.1 5 42
r 34.695204 6 12 tcp 90 ------- 10 6.6 0.1 5 42
+ 34.695204 12 1 tcp 90 ------- 10 6.6 0.1 5 42
- 34.695204 12 1 tcp 90 ------- 10 6.6 0.1 5 42
r 34.745684 12 1 tcp 90 ------- 10 6.6 0.1 5 42
+ 34.745684 1 0 tcp 90 ------- 10 6.6 0.1 5 42
- 34.745684 1 0 tcp 90 ------- 10 6.6 0.1 5 42
r 34.846164 1 0 tcp 90 ------- 10 6.6 0.1 5 42
+ 34.846164 0 1 tcp 83 ------- 10 0.1 6.6 5 43
- 34.846164 0 1 tcp 83 ------- 10 0.1 6.6 5 43
r 34.946607 0 1 tcp 83 ------- 10 0.1 6.6 5 43
+ 34.946607 1 12 tcp 83 ------- 10 0.1 6.6 5 43
- 34.946607 1 12 tcp 83 ------- 10 0.1 6.6 5 43
r 34.99705 1 12 tcp 83 ------- 10 0.1 6.6 5 43
+ 34.99705 12 6 tcp 83 ------- 10 0.1 6.6 5 43
- 34.99705 12 6 tcp 83 ------- 10 0.1 6.6 5 43
r 35.047492 12 6 tcp 83 ------- 10 0.1 6.6 5 43
+ 35.047492 6 12 tcp 1064 ------- 5 6.3 3.2 2 44
- 35.047492 6 12 tcp 1064 ------- 5 6.3 3.2 2 44
r 35.103167 6 12 tcp 1064 ------- 5 6.3 3.2 2 44
+ 35.103167 12 3 tcp 1064 ------- 5 6.3 3.2 2 44
- 35.103167 12 3 tcp 1064 ------- 5 6.3 3.2 2 44
r 35.158842 12 3 tcp 1064 ------- 5 6.3 3.2 2 44
+ 35.158842 3 9 tcp 1064 ------- 4 3.1 9.1 2 45
- 35.158842 3 9 tcp 1064 ------- 4 3.1 9.1 2 45
r 35.161693 3 9 tcp 1064 ------- 4 3.1 9.1 2 45
+ 35.818857 8 2 tcp 83 ------- 2 8.1 2.1 3 46
- 35.818857 8 2 tcp 83 ------- 2 8.1 2.1 3 46
r 35.820923 8 2 tcp 83 ------- 2 8.1 2.1 3 46
+ 35.820923 2 12 tcp 90 ------- 3 2.2 6.2 3 47
- 35.820923 2 12 tcp 90 ------- 3 2.2 6.2 3 47
r 35.871403 2 12 tcp 90 ------- 3 2.2 6.2 3 47
+ 35.871403 12 6 tcp 90 ------- 3 2.2 6.2 3 47
- 35.871403 12 6 tcp 90 ------- 3 2.2 6.2 3 47
r 35.921883 12 6 tcp 90 ------- 3 2.2 6.2 3 47
+ 35.921883 6 12 tcp 90 ------- 10 6.6 0.1 6 48
- 35.921883 6 12 tcp 90 ------- 10 6.6 0.1 6 48
r 35.972363 6 12 tcp 90 ------- 10 6.6 0.1 6 48
+ 35.972363 12 1 tcp 90 ------- 10 6.6 0.1 6 48
- 35.972363 12 1 tcp 90 ------- 10 6.6 0.1 6 48
r 36.022843 12 1 tcp 90 ------- 10 6.6 0.1 6 48
+ 36.022843 1 0 tcp 90 ------- 10 6.6 0.1 6 48
- 36.022843 1 0 tcp 90 ------- 10 6.6 0.1 6 48
r 36.123323 1 0 tcp 90 ------- 10 6.6 0.1 6 48
+ 36.123323 0 1 tcp 83 ------- 10 0.1 6.6 6 49
- 36.123323 0 1 tcp 83 ------- 10 0.1 6.6 6 49
r 36.223766 0 1 tcp 83 ------- 10 0.1 6.6 6 49
+ 36.223766 1 12 tcp 83 ------- 10 0.1 6.6 6 49
- 36.223766 1 12 tcp 83 ------- 10 0.1 6.6 6 49
r 36.274209 1 12 tcp 83 ------- 10 0.1 6.6 6 49
+ 36.274209 12 6 tcp 83 ------- 10 0.1 6.6 6 49
- 36.274209 12 6 tcp 83 ------- 10 0.1 6.6 6 49
r 36.324651 12 6 tcp 83 ------- 10 0.1 6.6 6 49
+ 36.324651 6 12 tcp 83 ------- 3 6.2 2.2 3 50
- 36.324651 6 12 tcp 83 ------- 3 6.2 2.2 3 50
r 36.375094 6 12 tcp 83 ------- 3 6.2 2.2 3 50
+ 36.375094 12 2 tcp 83 ------- 3 6.2 2.2 3 50
- 36.375094 12 2 tcp 83 ------- 3 6.2 2.2 3 50
r 36.425537 12 2 tcp 83 ------- 3 6.2 2.2 3 50
+ 36.425537 2 8 tcp 1064 ------- 2 2.1 8.1 3 51
- 36.425537 2 8 tcp 1064 ------- 2 2.1 8.1 3 51
r 36.428388 2 8 tcp 1064 ------- 2 2.1 8.1 3 51
+ 39.594716 8 2 tcp 83 ------- 2 8.1 2.1 4 52
- 39.594716 8 2 tcp 83 ------- 2 8.1 2.1 4 52
r 39.596782 8 2 tcp 83 ------- 2 8.1 2.1 4 52
+ 39.596782 2 12 tcp 90 ------- 3 2.2 6.2 4 53
- 39.596782 2 12 tcp 90 ------- 3 2.2 6.2 4 53
r 39.647262 2 12 tcp 90 ------- 3 2.2 6.2 4 53
+ 39.647262 12 6 tcp 90 ------- 3 2.2 6.2 4 53
- 39.647262 12 6 tcp 90 ------- 3 2.2 6.2 4 53
r 39.697742 12 6 tcp 90 ------- 3 2.2 6.2 4 53
+ 39.697742 6 12 tcp 90 ------- 10 6.6 0.1 7 54
- 39.697742 6 12 tcp 90 ------- 10 6.6 0.1 7 54
r 39.748222 6 12 tcp 90 ------- 10 6.6 0.1 7 54
+ 39.748222 12 1 tcp 90 ------- 10 6.6 0.1 7 54
- 39.748222 12 1 tcp 90 ------- 10 6.6 0.1 7 54
r 39.798702 12 1 tcp 90 ------- 10 6.6 0.1 7 54
+ 39.798702 1 0 tcp 90 ------- 10 6.6 0.1 7 54
- 39.798702 1 0 tcp 90 ------- 10 6.6 0.1 7 54
r 39.899182 1 0 tcp 90 ------- 10 6.6 0.1 7 54
+ 39.899182 0 1 tcp 83 ------- 10 0.1 6.6 7 55
- 39.899182 0 1 tcp 83 ------- 10 0.1 6.6 7 55
r 39.999625 0 1 tcp 83 ------- 10 0.1 6.6 7 55
+ 39.999625 1 12 tcp 83 ------- 10 0.1 6.6 7 55
- 39.999625 1 12 tcp 83 ------- 10 0.1 6.6 7 55
r 40.050068 1 12 tcp 83 ------- 10 0.1 6.6 7 55
+ 40.050068 12 6 tcp 83 ------- 10 0.1 6.6 7 55
- 40.050068 12 6 tcp 83 ------- 10 0.1 6.6 7 55
r 40.10051 12 6 tcp 83 ------- 10 0.1 6.6 7 55
+ 40.10051 6 12 tcp 83 ------- 3 6.2 2.2 4 56
- 40.10051 6 12 tcp 83 ------- 3 6.2 2.2 4 56
r 40.150953 6 12 tcp 83 ------- 3 6.2 2.2 4 56
+ 40.150953 12 2 tcp 83 ------- 3 6.2 2.2 4 56
- 40.150953 12 2 tcp 83 ------- 3 6.2 2.2 4 56
r 40.201396 12 2 tcp 83 ------- 3 6.2 2.2 4 56
+ 40.201396 2 8 tcp 1064 ------- 2 2.1 8.1 4 57
- 40.201396 2 8 tcp 1064 ------- 2 2.1 8.1 4 57
r 40.204247 2 8 tcp 1064 ------- 2 2.1 8.1 4 57
+ 42.039988 8 2 tcp 83 ------- 2 8.1 2.1 5 58
- 42.039988 8 2 tcp 83 ------- 2 8.1 2.1 5 58
r 42.042054 8 2 tcp 83 ------- 2 8.1 2.1 5 58
+ 42.042054 2 12 tcp 90 ------- 3 2.2 6.2 5 59
- 42.042054 2 12 tcp 90 ------- 3 2.2 6.2 5 59
r 42.092534 2 12 tcp 90 ------- 3 2.2 6.2 5 59
+ 42.092534 12 6 tcp 90 ------- 3 2.2 6.2 5 59
- 42.092534 12 6 tcp 90 ------- 3 2.2 6.2 5 59
r 42.143014 12 6 tcp 90 ------- 3 2.2 6.2 5 59
+ 42.143014 6 12 tcp 90 ------- 10 6.6 0.1 8 60
- 42.143014 6 12 tcp 90 ------- 10 6.6 0.1 8 60
r 42.193494 6 12 tcp 90 ------- 10 6.6 0.1 8 60
+ 42.193494 12 1 tcp 90 ------- 10 6.6 0.1 8 60
- 42.193494 12 1 tcp 90 ------- 10 6.6 0.1 8 60
r 42.243974 12 1 tcp 90 ------- 10 6.6 0.1 8 60
+ 42.243974 1 0 tcp 90 ------- 10 6.6 0.1 8 60
- 42.243974 1 0 tcp 90 ------- 10 6.6 0.1 8 60
+ 42.246471 7 1 tcp 83 ------- 0 7.1 1.1 3 61
- 42.246471 7 1 tcp 83 ------- 0 7.1 1.1 3 61
r 42.248537 7 1 tcp 83 ------- 0 7.1 1.1 3 61
+ 42.248537 1 12 tcp 90 ------- 1 1.2 6.1 3 62
- 42.248537 1 12 tcp 90 ------- 1 1.2 6.1 3 62
r 42.299017 1 12 tcp 90 ------- 1 1.2 6.1 3 62
+ 42.299017 12 6 tcp 90 ------- 1 1.2 6.1 3 62
- 42.299017 12 6 tcp 90 ------- 1 1.2 6.1 3 62
r 42.344454 1 0 tcp 90 ------- 10 6.6 0.1 8 60
+ 42.344454 0 1 tcp 83 ------- 10 0.1 6.6 8 63
- 42.344454 0 1 tcp 83 ------- 10 0.1 6.6 8 63
r 42.349497 12 6 tcp 90 ------- 1 1.2 6.1 3 62
r 42.444897 0 1 tcp 83 ------- 10 0.1 6.6 8 63
+ 42.444897 1 12 tcp 83 ------- 10 0.1 6.6 8 63
- 42.444897 1 12 tcp 83 ------- 10 0.1 6.6 8 63
r 42.49534 1 12 tcp 83 ------- 10 0.1 6.6 8 63
+ 42.49534 12 6 tcp 83 ------- 10 0.1 6.6 8 63
- 42.49534 12 6 tcp 83 ------- 10 0.1 6.6 8 63
r 42.545782 12 6 tcp 83 ------- 10 0.1 6.6 8 63
+ 42.545782 6 12 tcp 83 ------- 3 6.2 2.2 5 64
- 42.545782 6 12 tcp 83 ------- 3 6.2 2.2 5 64
+ 42.545782 6 12 tcp 83 ------- 1 6.1 1.2 3 65
- 42.546225 6 12 tcp 83 ------- 1 6.1 1.2 3 65
r 42.596225 6 12 tcp 83 ------- 3 6.2 2.2 5 64
+ 42.596225 12 2 tcp 83 ------- 3 6.2 2.2 5 64
- 42.596225 12 2 tcp 83 ------- 3 6.2 2.2 5 64
r 42.596668 6 12 tcp 83 ------- 1 6.1 1.2 3 65
+ 42.596668 12 1 tcp 83 ------- 1 6.1 1.2 3 65
- 42.596668 12 1 tcp 83 ------- 1 6.1 1.2 3 65
r 42.646668 12 2 tcp 83 ------- 3 6.2 2.2 5 64
+ 42.646668 2 8 tcp 1064 ------- 2 2.1 8.1 5 66
- 42.646668 2 8 tcp 1064 ------- 2 2.1 8.1 5 66
r 42.64711 12 1 tcp 83 ------- 1 6.1 1.2 3 65
+ 42.64711 1 7 tcp 1064 ------- 0 1.1 7.1 3 67
- 42.64711 1 7 tcp 1064 ------- 0 1.1 7.1 3 67
r 42.649519 2 8 tcp 1064 ------- 2 2.1 8.1 5 66
r 42.649962 1 7 tcp 1064 ------- 0 1.1 7.1 3 67
+ 42.952626 9 3 tcp 83 ------- 4 9.1 3.1 3 68
- 42.952626 9 3 tcp 83 ------- 4 9.1 3.1 3 68
r 42.954692 9 3 tcp 83 ------- 4 9.1 3.1 3 68
+ 42.954692 3 12 tcp 90 ------- 5 3.2 6.3 3 69
- 42.954692 3 12 tcp 90 ------- 5 3.2 6.3 3 69
r 43.005172 3 12 tcp 90 ------- 5 3.2 6.3 3 69
+ 43.005172 12 6 tcp 90 ------- 5 3.2 6.3 3 69
- 43.005172 12 6 tcp 90 ------- 5 3.2 6.3 3 69
r 43.055652 12 6 tcp 90 ------- 5 3.2 6.3 3 69
+ 43.055652 6 12 tcp 83 ------- 5 6.3 3.2 3 70
- 43.055652 6 12 tcp 83 ------- 5 6.3 3.2 3 70
r 43.106095 6 12 tcp 83 ------- 5 6.3 3.2 3 70
+ 43.106095 12 3 tcp 83 ------- 5 6.3 3.2 3 70
- 43.106095 12 3 tcp 83 ------- 5 6.3 3.2 3 70
r 43.156538 12 3 tcp 83 ------- 5 6.3 3.2 3 70
+ 43.156538 3 9 tcp 1064 ------- 4 3.1 9.1 3 71
- 43.156538 3 9 tcp 1064 ------- 4 3.1 9.1 3 71
r 43.159389 3 9 tcp 1064 ------- 4 3.1 9.1 3 71
+ 44.425318 9 3 tcp 83 ------- 4 9.1 3.1 4 72
- 44.425318 9 3 tcp 83 ------- 4 9.1 3.1 4 72
r 44.427384 9 3 tcp 83 ------- 4 9.1 3.1 4 72
+ 44.427384 3 9 tcp 1064 ------- 4 3.1 9.1 4 73
- 44.427384 3 9 tcp 1064 ------- 4 3.1 9.1 4 73
r 44.430236 3 9 tcp 1064 ------- 4 3.1 9.1 4 73
+ 46.318036 9 3 tcp 83 ------- 4 9.1 3.1 5 74
- 46.318036 9 3 tcp 83 ------- 4 9.1 3.1 5 74
r 46.320102 9 3 tcp 83 ------- 4 9.1 3.1 5 74
+ 46.320102 3 12 tcp 90 ------- 5 3.2 6.3 4 75
- 46.320102 3 12 tcp 90 ------- 5 3.2 6.3 4 75
r 46.370582 3 12 tcp 90 ------- 5 3.2 6.3 4 75
+ 46.370582 12 6 tcp 90 ------- 5 3.2 6.3 4 75
- 46.370582 12 6 tcp 90 ------- 5 3.2 6.3 4 75
r 46.421062 12 6 tcp 90 ------- 5 3.2 6.3 4 75
+ 46.421062 6 12 tcp 90 ------- 10 6.6 0.1 9 76
- 46.421062 6 12 tcp 90 ------- 10 6.6 0.1 9 76
r 46.471542 6 12 tcp 90 ------- 10 6.6 0.1 9 76
+ 46.471542 12 1 tcp 90 ------- 10 6.6 0.1 9 76
- 46.471542 12 1 tcp 90 ------- 10 6.6 0.1 9 76
r 46.522022 12 1 tcp 90 ------- 10 6.6 0.1 9 76
+ 46.522022 1 0 tcp 90 ------- 10 6.6 0.1 9 76
- 46.522022 1 0 tcp 90 ------- 10 6.6 0.1 9 76
r 46.622502 1 0 tcp 90 ------- 10 6.6 0.1 9 76
+ 46.622502 0 1 tcp 83 ------- 10 0.1 6.6 9 77
- 46.622502 0 1 tcp 83 ------- 10 0.1 6.6 9 77
r 46.722945 0 1 tcp 83 ------- 10 0.1 6.6 9 77
+ 46.722945 1 12 tcp 83 ------- 10 0.1 6.6 9 77
- 46.722945 1 12 tcp 83 ------- 10 0.1 6.6 9 77
r 46.773388 1 12 tcp 83 ------- 10 0.1 6.6 9 77
+ 46.773388 12 6 tcp 83 ------- 10 0.1 6.6 9 77
- 46.773388 12 6 tcp 83 ------- 10 0.1 6.6 9 77
r 46.82383 12 6 tcp 83 ------- 10 0.1 6.6 9 77
+ 46.82383 6 12 tcp 83 ------- 5 6.3 3.2 4 78
- 46.82383 6 12 tcp 83 ------- 5 6.3 3.2 4 78
r 46.874273 6 12 tcp 83 ------- 5 6.3 3.2 4 78
+ 46.874273 12 3 tcp 83 ------- 5 6.3 3.2 4 78
- 46.874273 12 3 tcp 83 ------- 5 6.3 3.2 4 78
r 46.924716 12 3 tcp 83 ------- 5 6.3 3.2 4 78
+ 46.924716 3 9 tcp 1064 ------- 4 3.1 9.1 5 79
- 46.924716 3 9 tcp 1064 ------- 4 3.1 9.1 5 79
r 46.927567 3 9 tcp 1064 ------- 4 3.1 9.1 5 79
+ 47.470562 9 3 tcp 83 ------- 4 9.1 3.1 6 80
- 47.470562 9 3 tcp 83 ------- 4 9.1 3.1 6 80
r 47.472628 9 3 tcp 83 ------- 4 9.1 3.1 6 80
+ 47.472628 3 9 tcp 1064 ------- 4 3.1 9.1 6 81
- 47.472628 3 9 tcp 1064 ------- 4 3.1 9.1 6 81
r 47.47548 3 9 tcp 1064 ------- 4 3.1 9.1 6 81
+ 47.684901 8 2 tcp 83 ------- 2 8.1 2.1 6 82
- 47.684901 8 2 tcp 83 ------- 2 8.1 2.1 6 82
r 47.686967 8 2 tcp 83 ------- 2 8.1 2.1 6 82
+ 47.686967 2 12 tcp 90 ------- 3 2.2 6.2 6 83
- 47.686967 2 12 tcp 90 ------- 3 2.2 6.2 6 83
r 47.737447 2 12 tcp 90 ------- 3 2.2 6.2 6 83
+ 47.737447 12 6 tcp 90 ------- 3 2.2 6.2 6 83
- 47.737447 12 6 tcp 90 ------- 3 2.2 6.2 6 83
r 47.787927 12 6 tcp 90 ------- 3 2.2 6.2 6 83
+ 47.787927 6 12 tcp 83 ------- 3 6.2 2.2 6 84
- 47.787927 6 12 tcp 83 ------- 3 6.2 2.2 6 84
r 47.83837 6 12 tcp 83 ------- 3 6.2 2.2 6 84
+ 47.83837 12 2 tcp 83 ------- 3 6.2 2.2 6 84
- 47.83837 12 2 tcp 83 ------- 3 6.2 2.2 6 84
r 47.888813 12 2 tcp 83 ------- 3 6.2 2.2 6 84
+ 47.888813 2 8 tcp 1064 ------- 2 2.1 8.1 6 85
- 47.888813 2 8 tcp 1064 ------- 2 2.1 8.1 6 85
r 47.891664 2 8 tcp 1064 ------- 2 2.1 8.1 6 85
+ 48.837533 9 3 tcp 83 ------- 4 9.1 3.1 7 86
- 48.837533 9 3 tcp 83 ------- 4 9.1 3.1 7 86
r 48.839599 9 3 tcp 83 ------- 4 9.1 3.1 7 86
+ 48.839599 3 9 tcp 1064 ------- 4 3.1 9.1 7 87
- 48.839599 3 9 tcp 1064 ------- 4 3.1 9.1 7 87
r 48.842451 3 9 tcp 1064 ------- 4 3.1 9.1 7 87
+ 50.091307 7 1 tcp 83 ------- 0 7.1 1.1 4 88
- 50.091307 7 1 tcp 83 ------- 0 7.1 1.1 4 88
r 50.093373 7 1 tcp 83 ------- 0 7.1 1.1 4 88
+ 50.093373 1 12 tcp 90 ------- 1 1.2 6.1 4 89
- 50.093373 1 12 tcp 90 ------- 1 1.2 6.1 4 89
r 50.143853 1 12 tcp 90 ------- 1 1.2 6.1 4 89
+ 50.143853 12 6 tcp 90 ------- 1 1.2 6.1 4 89
- 50.143853 12 6 tcp 90 ------- 1 1.2 6.1 4 89
r 50.194333 12 6 tcp 90 ------- 1 1.2 6.1 4 89
+ 50.194333 6 12 tcp 90 ------- 10 6.6 0.1 10 90
- 50.194333 6 12 tcp 90 ------- 10 6.6 0.1 10 90
r 50.244813 6 12 tcp 90 ------- 10 6.6 0.1 10 90
+ 50.244813 12 1 tcp 90 ------- 10 6.6 0.1 10 90
- 50.244813 12 1 tcp 90 ------- 10 6.6 0.1 10 90
r 50.295293 12 1 tcp 90 ------- 10 6.6 0.1 10 90
+ 50.295293 1 0 tcp 90 ------- 10 6.6 0.1 10 90
- 50.295293 1 0 tcp 90 ------- 10 6.6 0.1 10 90
r 50.395773 1 0 tcp 90 ------- 10 6.6 0.1 10 90
+ 50.395773 0 1 tcp 83 ------- 10 0.1 6.6 10 91
- 50.395773 0 1 tcp 83 ------- 10 0.1 6.6 10 91
r 50.496216 0 1 tcp 83 ------- 10 0.1 6.6 10 91
+ 50.496216 1 12 tcp 83 ------- 10 0.1 6.6 10 91
- 50.496216 1 12 tcp 83 ------- 10 0.1 6.6 10 91
r 50.546658 1 12 tcp 83 ------- 10 0.1 6.6 10 91
+ 50.546658 12 6 tcp 83 ------- 10 0.1 6.6 10 91
- 50.546658 12 6 tcp 83 ------- 10 0.1 6.6 10 91
r 50.597101 12 6 tcp 83 ------- 10 0.1 6.6 10 91
+ 50.597101 6 12 tcp 83 ------- 1 6.1 1.2 4 92
- 50.597101 6 12 tcp 83 ------- 1 6.1 1.2 4 92
r 50.647544 6 12 tcp 83 ------- 1 6.1 1.2 4 92
+ 50.647544 12 1 tcp 83 ------- 1 6.1 1.2 4 92
- 50.647544 12 1 tcp 83 ------- 1 6.1 1.2 4 92
r 50.697986 12 1 tcp 83 ------- 1 6.1 1.2 4 92
+ 50.697986 1 7 tcp 1064 ------- 0 1.1 7.1 4 93
- 50.697986 1 7 tcp 1064 ------- 0 1.1 7.1 4 93
r 50.700838 1 7 tcp 1064 ------- 0 1.1 7.1 4 93
+ 52.210855 9 3 tcp 83 ------- 4 9.1 3.1 8 94
- 52.210855 9 3 tcp 83 ------- 4 9.1 3.1 8 94
r 52.212921 9 3 tcp 83 ------- 4 9.1 3.1 8 94
+ 52.212921 3 12 tcp 90 ------- 5 3.2 6.3 5 95
- 52.212921 3 12 tcp 90 ------- 5 3.2 6.3 5 95
r 52.263401 3 12 tcp 90 ------- 5 3.2 6.3 5 95
+ 52.263401 12 6 tcp 90 ------- 5 3.2 6.3 5 95
- 52.263401 12 6 tcp 90 ------- 5 3.2 6.3 5 95
r 52.313881 12 6 tcp 90 ------- 5 3.2 6.3 5 95
+ 52.313881 6 12 tcp 83 ------- 5 6.3 3.2 5 96
- 52.313881 6 12 tcp 83 ------- 5 6.3 3.2 5 96
+ 52.327628 7 1 tcp 83 ------- 0 7.1 1.1 5 97
- 52.327628 7 1 tcp 83 ------- 0 7.1 1.1 5 97
r 52.329694 7 1 tcp 83 ------- 0 7.1 1.1 5 97
+ 52.329694 1 7 tcp 1064 ------- 0 1.1 7.1 5 98
- 52.329694 1 7 tcp 1064 ------- 0 1.1 7.1 5 98
r 52.332545 1 7 tcp 1064 ------- 0 1.1 7.1 5 98
r 52.364324 6 12 tcp 83 ------- 5 6.3 3.2 5 96
+ 52.364324 12 3 tcp 83 ------- 5 6.3 3.2 5 96
- 52.364324 12 3 tcp 83 ------- 5 6.3 3.2 5 96
r 52.414767 12 3 tcp 83 ------- 5 6.3 3.2 5 96
+ 52.414767 3 9 tcp 1064 ------- 4 3.1 9.1 8 99
- 52.414767 3 9 tcp 1064 ------- 4 3.1 9.1 8 99
r 52.417618 3 9 tcp 1064 ------- 4 3.1 9.1 8 99
+ 53.32416 10 4 tcp 83 ------- 6 10.1 4.1 2 100
- 53.32416 10 4 tcp 83 ------- 6 10.1 4.1 2 100
r 53.326226 10 4 tcp 83 ------- 6 10.1 4.1 2 100
+ 53.326226 4 12 tcp 90 ------- 7 4.2 6.4 2 101
- 53.326226 4 12 tcp 90 ------- 7 4.2 6.4 2 101
r 53.376706 4 12 tcp 90 ------- 7 4.2 6.4 2 101
+ 53.376706 12 6 tcp 90 ------- 7 4.2 6.4 2 101
- 53.376706 12 6 tcp 90 ------- 7 4.2 6.4 2 101
r 53.427186 12 6 tcp 90 ------- 7 4.2 6.4 2 101
+ 53.427186 6 12 tcp 90 ------- 10 6.6 0.1 11 102
- 53.427186 6 12 tcp 90 ------- 10 6.6 0.1 11 102
r 53.477666 6 12 tcp 90 ------- 10 6.6 0.1 11 102
+ 53.477666 12 1 tcp 90 ------- 10 6.6 0.1 11 102
- 53.477666 12 1 tcp 90 ------- 10 6.6 0.1 11 102
r 53.528146 12 1 tcp 90 ------- 10 6.6 0.1 11 102
+ 53.528146 1 0 tcp 90 ------- 10 6.6 0.1 11 102
- 53.528146 1 0 tcp 90 ------- 10 6.6 0.1 11 102
+ 53.608256 11 5 tcp 83 ------- 8 11.1 5.1 3 103
- 53.608256 11 5 tcp 83 ------- 8 11.1 5.1 3 103
r 53.610322 11 5 tcp 83 ------- 8 11.1 5.1 3 103
+ 53.610322 5 12 tcp 90 ------- 9 5.2 6.5 3 104
- 53.610322 5 12 tcp 90 ------- 9 5.2 6.5 3 104
r 53.628626 1 0 tcp 90 ------- 10 6.6 0.1 11 102
+ 53.628626 0 1 tcp 83 ------- 10 0.1 6.6 11 105
- 53.628626 0 1 tcp 83 ------- 10 0.1 6.6 11 105
r 53.660802 5 12 tcp 90 ------- 9 5.2 6.5 3 104
+ 53.660802 12 6 tcp 90 ------- 9 5.2 6.5 3 104
- 53.660802 12 6 tcp 90 ------- 9 5.2 6.5 3 104
r 53.711282 12 6 tcp 90 ------- 9 5.2 6.5 3 104
r 53.729069 0 1 tcp 83 ------- 10 0.1 6.6 11 105
+ 53.729069 1 12 tcp 83 ------- 10 0.1 6.6 11 105
- 53.729069 1 12 tcp 83 ------- 10 0.1 6.6 11 105
r 53.779512 1 12 tcp 83 ------- 10 0.1 6.6 11 105
+ 53.779512 12 6 tcp 83 ------- 10 0.1 6.6 11 105
- 53.779512 12 6 tcp 83 ------- 10 0.1 6.6 11 105
r 53.829954 12 6 tcp 83 ------- 10 0.1 6.6 11 105
+ 53.829954 6 12 tcp 1064 ------- 7 6.4 4.2 2 106
- 53.829954 6 12 tcp 1064 ------- 7 6.4 4.2 2 106
+ 53.829954 6 12 tcp 83 ------- 9 6.5 5.2 3 107
- 53.835629 6 12 tcp 83 ------- 9 6.5 5.2 3 107
r 53.885629 6 12 tcp 1064 ------- 7 6.4 4.2 2 106
+ 53.885629 12 4 tcp 1064 ------- 7 6.4 4.2 2 106
- 53.885629 12 4 tcp 1064 ------- 7 6.4 4.2 2 106
r 53.886072 6 12 tcp 83 ------- 9 6.5 5.2 3 107
+ 53.886072 12 5 tcp 83 ------- 9 6.5 5.2 3 107
- 53.886072 12 5 tcp 83 ------- 9 6.5 5.2 3 107
r 53.936514 12 5 tcp 83 ------- 9 6.5 5.2 3 107
+ 53.936514 5 11 tcp 1064 ------- 8 5.1 11.1 3 108
- 53.936514 5 11 tcp 1064 ------- 8 5.1 11.1 3 108
r 53.939366 5 11 tcp 1064 ------- 8 5.1 11.1 3 108
r 53.941304 12 4 tcp 1064 ------- 7 6.4 4.2 2 106
+ 53.941304 4 10 tcp 1064 ------- 6 4.1 10.1 2 109
- 53.941304 4 10 tcp 1064 ------- 6 4.1 10.1 2 109
r 53.944155 4 10 tcp 1064 ------- 6 4.1 10.1 2 109
+ 54.449476 10 4 tcp 83 ------- 6 10.1 4.1 3 110
- 54.449476 10 4 tcp 83 ------- 6 10.1 4.1 3 110
r 54.451542 10 4 tcp 83 ------- 6 10.1 4.1 3 110
+ 54.451542 4 10 tcp 1064 ------- 6 4.1 10.1 3 111
- 54.451542 4 10 tcp 1064 ------- 6 4.1 10.1 3 111
r 54.454394 4 10 tcp 1064 ------- 6 4.1 10.1 3 111
+ 54.618395 9 3 tcp 83 ------- 4 9.1 3.1 9 112
- 54.618395 9 3 tcp 83 ------- 4 9.1 3.1 9 112
r 54.620461 9 3 tcp 83 ------- 4 9.1 3.1 9 112
+ 54.620461 3 9 tcp 1064 ------- 4 3.1 9.1 9 113
- 54.620461 3 9 tcp 1064 ------- 4 3.1 9.1 9 113
r 54.623313 3 9 tcp 1064 ------- 4 3.1 9.1 9 113
+ 56.591787 9 3 tcp 83 ------- 4 9.1 3.1 10 114
- 56.591787 9 3 tcp 83 ------- 4 9.1 3.1 10 114
r 56.593853 9 3 tcp 83 ------- 4 9.1 3.1 10 114
+ 56.593853 3 12 tcp 90 ------- 5 3.2 6.3 6 115
- 56.593853 3 12 tcp 90 ------- 5 3.2 6.3 6 115
r 56.644333 3 12 tcp 90 ------- 5 3.2 6.3 6 115
+ 56.644333 12 6 tcp 90 ------- 5 3.2 6.3 6 115
- 56.644333 12 6 tcp 90 ------- 5 3.2 6.3 6 115
r 56.694813 12 6 tcp 90 ------- 5 3.2 6.3 6 115
+ 56.694813 6 12 tcp 90 ------- 10 6.6 0.1 12 116
- 56.694813 6 12 tcp 90 ------- 10 6.6 0.1 12 116
r 56.745293 6 12 tcp 90 ------- 10 6.6 0.1 12 116
+ 56.745293 12 1 tcp 90 ------- 10 6.6 0.1 12 116
- 56.745293 12 1 tcp 90 ------- 10 6.6 0.1 12 116
r 56.795773 12 1 tcp 90 ------- 10 6.6 0.1 12 116
+ 56.795773 1 0 tcp 90 ------- 10 6.6 0.1 12 116
- 56.795773 1 0 tcp 90 ------- 10 6.6 0.1 12 116
r 56.896253 1 0 tcp 90 ------- 10 6.6 0.1 12 116
+ 56.896253 0 1 tcp 83 ------- 10 0.1 6.6 12 117
- 56.896253 0 1 tcp 83 ------- 10 0.1 6.6 12 117