# TESTNAME: ttl-PBtr
# TOPOLOGY: BottleNeck
# avg-comp-page-age: 40000
# avg-page-age: 10
# avg-page-size: 1024
# avg-req-interval: 6
# client-req-size: 43
# comp-page-size: 51200
# duration: 302
# enable-log: 0
# hb-interval: 6
# max-page-age: 70
# max-page-size: 50000
# max-req-interval: 70
# min-page-age: 50
# min-page-size: 100
# min-req-interval: 50
# nam-trace-all: 1
# ns-random-seed: 188312339
# num-2nd-cache: 5
# num-comp-pages: 1
# prot: ttl-PBtr
# scheduler-type: Calendar
# single-page: 1
# ttl: 0.1
# upd-interval: 5
# xtrace-page: webtrace-pglog
# xtrace-req: webtrace-reqlog
v 18.248431149999998 eval {set sim_annotation {S 0 INV _o434:30}}
v 18.79552412 eval {set sim_annotation {S 0 INV _o434:30}}
+ 20 8 2 tcp 40 ------- 2 8.1 2.1 0 0
- 20 8 2 tcp 40 ------- 2 8.1 2.1 0 0
r 20.002032 8 2 tcp 40 ------- 2 8.1 2.1 0 0
+ 20.002032 2 8 ack 40 ------- 2 2.1 8.1 0 1
- 20.002032 2 8 ack 40 ------- 2 2.1 8.1 0 1
r 20.004064 2 8 ack 40 ------- 2 2.1 8.1 0 1
+ 20.004064 8 2 tcp 40 ------- 2 8.1 2.1 1 2
- 20.004064 8 2 tcp 40 ------- 2 8.1 2.1 1 2
+ 20.004064 8 2 tcp 83 ------- 2 8.1 2.1 1 3
- 20.004096 8 2 tcp 83 ------- 2 8.1 2.1 1 3
r 20.006096 8 2 tcp 40 ------- 2 8.1 2.1 1 2
r 20.006162 8 2 tcp 83 ------- 2 8.1 2.1 1 3
+ 20.006162 2 12 tcp 40 ------- 3 2.2 6.2 0 4
- 20.006162 2 12 tcp 40 ------- 3 2.2 6.2 0 4
r 20.056376 2 12 tcp 40 ------- 3 2.2 6.2 0 4
+ 20.056376 12 6 tcp 40 ------- 3 2.2 6.2 0 4
- 20.056376 12 6 tcp 40 ------- 3 2.2 6.2 0 4
+ 20.1 2 8 ack 40 ------- 2 2.1 8.1 1 5
- 20.1 2 8 ack 40 ------- 2 2.1 8.1 1 5
r 20.102032 2 8 ack 40 ------- 2 2.1 8.1 1 5
r 20.106589 12 6 tcp 40 ------- 3 2.2 6.2 0 4
+ 20.106589 6 12 ack 40 ------- 3 6.2 2.2 0 6
- 20.106589 6 12 ack 40 ------- 3 6.2 2.2 0 6
r 20.156802 6 12 ack 40 ------- 3 6.2 2.2 0 6
+ 20.156802 12 2 ack 40 ------- 3 6.2 2.2 0 6
- 20.156802 12 2 ack 40 ------- 3 6.2 2.2 0 6
r 20.207016 12 2 ack 40 ------- 3 6.2 2.2 0 6
+ 20.207016 2 12 tcp 40 ------- 3 2.2 6.2 1 7
- 20.207016 2 12 tcp 40 ------- 3 2.2 6.2 1 7
+ 20.207016 2 12 tcp 83 ------- 3 2.2 6.2 1 8
- 20.207229 2 12 tcp 83 ------- 3 2.2 6.2 1 8
r 20.257229 2 12 tcp 40 ------- 3 2.2 6.2 1 7
+ 20.257229 12 6 tcp 40 ------- 3 2.2 6.2 1 7
- 20.257229 12 6 tcp 40 ------- 3 2.2 6.2 1 7
r 20.257672 2 12 tcp 83 ------- 3 2.2 6.2 1 8
+ 20.257672 12 6 tcp 83 ------- 3 2.2 6.2 1 8
- 20.257672 12 6 tcp 83 ------- 3 2.2 6.2 1 8
r 20.307442 12 6 tcp 40 ------- 3 2.2 6.2 1 7
r 20.308114 12 6 tcp 83 ------- 3 2.2 6.2 1 8
+ 20.308114 6 12 tcp 40 ------- 10 6.6 0.1 0 9
- 20.308114 6 12 tcp 40 ------- 10 6.6 0.1 0 9
r 20.358328 6 12 tcp 40 ------- 10 6.6 0.1 0 9
+ 20.358328 12 1 tcp 40 ------- 10 6.6 0.1 0 9
- 20.358328 12 1 tcp 40 ------- 10 6.6 0.1 0 9
+ 20.4 6 12 ack 40 ------- 3 6.2 2.2 1 10
- 20.4 6 12 ack 40 ------- 3 6.2 2.2 1 10
r 20.408541 12 1 tcp 40 ------- 10 6.6 0.1 0 9
+ 20.408541 1 0 tcp 40 ------- 10 6.6 0.1 0 9
- 20.408541 1 0 tcp 40 ------- 10 6.6 0.1 0 9
r 20.450213 6 12 ack 40 ------- 3 6.2 2.2 1 10
+ 20.450213 12 2 ack 40 ------- 3 6.2 2.2 1 10
- 20.450213 12 2 ack 40 ------- 3 6.2 2.2 1 10
r 20.500427 12 2 ack 40 ------- 3 6.2 2.2 1 10
r 20.508754 1 0 tcp 40 ------- 10 6.6 0.1 0 9
+ 20.508754 0 1 ack 40 ------- 10 0.1 6.6 0 11
- 20.508754 0 1 ack 40 ------- 10 0.1 6.6 0 11
r 20.608968 0 1 ack 40 ------- 10 0.1 6.6 0 11
+ 20.608968 1 12 ack 40 ------- 10 0.1 6.6 0 11
- 20.608968 1 12 ack 40 ------- 10 0.1 6.6 0 11
r 20.659181 1 12 ack 40 ------- 10 0.1 6.6 0 11
+ 20.659181 12 6 ack 40 ------- 10 0.1 6.6 0 11
- 20.659181 12 6 ack 40 ------- 10 0.1 6.6 0 11
r 20.709394 12 6 ack 40 ------- 10 0.1 6.6 0 11
+ 20.709394 6 12 tcp 40 ------- 10 6.6 0.1 1 12
- 20.709394 6 12 tcp 40 ------- 10 6.6 0.1 1 12
+ 20.709394 6 12 tcp 83 ------- 10 6.6 0.1 1 13
- 20.709608 6 12 tcp 83 ------- 10 6.6 0.1 1 13
r 20.759608 6 12 tcp 40 ------- 10 6.6 0.1 1 12
+ 20.759608 12 1 tcp 40 ------- 10 6.6 0.1 1 12
- 20.759608 12 1 tcp 40 ------- 10 6.6 0.1 1 12
r 20.76005 6 12 tcp 83 ------- 10 6.6 0.1 1 13
+ 20.76005 12 1 tcp 83 ------- 10 6.6 0.1 1 13
- 20.76005 12 1 tcp 83 ------- 10 6.6 0.1 1 13
r 20.809821 12 1 tcp 40 ------- 10 6.6 0.1 1 12
+ 20.809821 1 0 tcp 40 ------- 10 6.6 0.1 1 12
- 20.809821 1 0 tcp 40 ------- 10 6.6 0.1 1 12
r 20.810493 12 1 tcp 83 ------- 10 6.6 0.1 1 13
+ 20.810493 1 0 tcp 83 ------- 10 6.6 0.1 1 13
- 20.810493 1 0 tcp 83 ------- 10 6.6 0.1 1 13
v 20.833535550000001 eval {set sim_annotation {S 0 INV _o434:30}}
r 20.910034 1 0 tcp 40 ------- 10 6.6 0.1 1 12
r 20.910936 1 0 tcp 83 ------- 10 6.6 0.1 1 13
+ 20.910936 0 1 ack 576 ------- 10 0.1 6.6 1 14
- 20.910936 0 1 ack 576 ------- 10 0.1 6.6 1 14
r 21.014008 0 1 ack 576 ------- 10 0.1 6.6 1 14
+ 21.014008 1 12 ack 576 ------- 10 0.1 6.6 1 14
- 21.014008 1 12 ack 576 ------- 10 0.1 6.6 1 14
r 21.06708 1 12 ack 576 ------- 10 0.1 6.6 1 14
+ 21.06708 12 6 ack 576 ------- 10 0.1 6.6 1 14
- 21.06708 12 6 ack 576 ------- 10 0.1 6.6 1 14
r 21.120152 12 6 ack 576 ------- 10 0.1 6.6 1 14
+ 21.120152 6 12 tcp 40 ------- 10 6.6 0.1 44 15
- 21.120152 6 12 tcp 40 ------- 10 6.6 0.1 44 15
r 21.170365 6 12 tcp 40 ------- 10 6.6 0.1 44 15
+ 21.170365 12 1 tcp 40 ------- 10 6.6 0.1 44 15
- 21.170365 12 1 tcp 40 ------- 10 6.6 0.1 44 15
r 21.220578 12 1 tcp 40 ------- 10 6.6 0.1 44 15
+ 21.220578 1 0 tcp 40 ------- 10 6.6 0.1 44 15
- 21.220578 1 0 tcp 40 ------- 10 6.6 0.1 44 15
r 21.320792 1 0 tcp 40 ------- 10 6.6 0.1 44 15
+ 21.320792 0 1 ack 576 ------- 10 0.1 6.6 537 16
- 21.320792 0 1 ack 576 ------- 10 0.1 6.6 537 16
r 21.423864 0 1 ack 576 ------- 10 0.1 6.6 537 16
+ 21.423864 1 12 ack 576 ------- 10 0.1 6.6 537 16
- 21.423864 1 12 ack 576 ------- 10 0.1 6.6 537 16
r 21.476936 1 12 ack 576 ------- 10 0.1 6.6 537 16
+ 21.476936 12 6 ack 576 ------- 10 0.1 6.6 537 16
- 21.476936 12 6 ack 576 ------- 10 0.1 6.6 537 16
r 21.530008 12 6 ack 576 ------- 10 0.1 6.6 537 16
+ 21.530008 6 12 tcp 40 ------- 10 6.6 0.1 44 17
- 21.530008 6 12 tcp 40 ------- 10 6.6 0.1 44 17
r 21.580221 6 12 tcp 40 ------- 10 6.6 0.1 44 17
+ 21.580221 12 1 tcp 40 ------- 10 6.6 0.1 44 17
- 21.580221 12 1 tcp 40 ------- 10 6.6 0.1 44 17
r 21.630434 12 1 tcp 40 ------- 10 6.6 0.1 44 17
+ 21.630434 1 0 tcp 40 ------- 10 6.6 0.1 44 17
- 21.630434 1 0 tcp 40 ------- 10 6.6 0.1 44 17
r 21.730648 1 0 tcp 40 ------- 10 6.6 0.1 44 17
+ 21.730648 0 1 ack 465 ------- 10 0.1 6.6 1073 18
- 21.730648 0 1 ack 465 ------- 10 0.1 6.6 1073 18
r 21.833128 0 1 ack 465 ------- 10 0.1 6.6 1073 18
+ 21.833128 1 12 ack 465 ------- 10 0.1 6.6 1073 18
- 21.833128 1 12 ack 465 ------- 10 0.1 6.6 1073 18
r 21.885608 1 12 ack 465 ------- 10 0.1 6.6 1073 18
+ 21.885608 12 6 ack 465 ------- 10 0.1 6.6 1073 18
- 21.885608 12 6 ack 465 ------- 10 0.1 6.6 1073 18
r 21.938088 12 6 ack 465 ------- 10 0.1 6.6 1073 18
+ 21.938088 6 12 ack 576 ------- 3 6.2 2.2 1 19
- 21.938088 6 12 ack 576 ------- 3 6.2 2.2 1 19
r 21.99116 6 12 ack 576 ------- 3 6.2 2.2 1 19
+ 21.99116 12 2 ack 576 ------- 3 6.2 2.2 1 19
- 21.99116 12 2 ack 576 ------- 3 6.2 2.2 1 19
+ 22 6 12 tcp 40 ------- 10 6.6 0.1 44 20
- 22 6 12 tcp 40 ------- 10 6.6 0.1 44 20
r 22.044232 12 2 ack 576 ------- 3 6.2 2.2 1 19
+ 22.044232 2 12 tcp 40 ------- 3 2.2 6.2 44 21
- 22.044232 2 12 tcp 40 ------- 3 2.2 6.2 44 21
r 22.050213 6 12 tcp 40 ------- 10 6.6 0.1 44 20
+ 22.050213 12 1 tcp 40 ------- 10 6.6 0.1 44 20
- 22.050213 12 1 tcp 40 ------- 10 6.6 0.1 44 20
r 22.094445 2 12 tcp 40 ------- 3 2.2 6.2 44 21
+ 22.094445 12 6 tcp 40 ------- 3 2.2 6.2 44 21
- 22.094445 12 6 tcp 40 ------- 3 2.2 6.2 44 21
r 22.100427 12 1 tcp 40 ------- 10 6.6 0.1 44 20
+ 22.100427 1 0 tcp 40 ------- 10 6.6 0.1 44 20
- 22.100427 1 0 tcp 40 ------- 10 6.6 0.1 44 20
r 22.144658 12 6 tcp 40 ------- 3 2.2 6.2 44 21
+ 22.144658 6 12 ack 576 ------- 3 6.2 2.2 537 22
- 22.144658 6 12 ack 576 ------- 3 6.2 2.2 537 22
r 22.19773 6 12 ack 576 ------- 3 6.2 2.2 537 22
+ 22.19773 12 2 ack 576 ------- 3 6.2 2.2 537 22
- 22.19773 12 2 ack 576 ------- 3 6.2 2.2 537 22
r 22.20064 1 0 tcp 40 ------- 10 6.6 0.1 44 20
r 22.250802 12 2 ack 576 ------- 3 6.2 2.2 537 22
+ 22.250802 2 12 tcp 40 ------- 3 2.2 6.2 44 23
- 22.250802 2 12 tcp 40 ------- 3 2.2 6.2 44 23
r 22.301016 2 12 tcp 40 ------- 3 2.2 6.2 44 23
+ 22.301016 12 6 tcp 40 ------- 3 2.2 6.2 44 23
- 22.301016 12 6 tcp 40 ------- 3 2.2 6.2 44 23
r 22.351229 12 6 tcp 40 ------- 3 2.2 6.2 44 23
+ 22.351229 6 12 ack 465 ------- 3 6.2 2.2 1073 24
- 22.351229 6 12 ack 465 ------- 3 6.2 2.2 1073 24
r 22.403709 6 12 ack 465 ------- 3 6.2 2.2 1073 24
+ 22.403709 12 2 ack 465 ------- 3 6.2 2.2 1073 24
- 22.403709 12 2 ack 465 ------- 3 6.2 2.2 1073 24
r 22.456189 12 2 ack 465 ------- 3 6.2 2.2 1073 24
+ 22.456189 2 8 ack 576 ------- 2 2.1 8.1 1 25
- 22.456189 2 8 ack 576 ------- 2 2.1 8.1 1 25
r 22.45865 2 8 ack 576 ------- 2 2.1 8.1 1 25
+ 22.45865 8 2 tcp 40 ------- 2 8.1 2.1 44 26
- 22.45865 8 2 tcp 40 ------- 2 8.1 2.1 44 26
r 22.460682 8 2 tcp 40 ------- 2 8.1 2.1 44 26
+ 22.460682 2 8 ack 576 ------- 2 2.1 8.1 537 27
- 22.460682 2 8 ack 576 ------- 2 2.1 8.1 537 27
r 22.463143 2 8 ack 576 ------- 2 2.1 8.1 537 27
+ 22.463143 8 2 tcp 40 ------- 2 8.1 2.1 44 28
- 22.463143 8 2 tcp 40 ------- 2 8.1 2.1 44 28
r 22.465175 8 2 tcp 40 ------- 2 8.1 2.1 44 28
+ 22.465175 2 8 ack 465 ------- 2 2.1 8.1 1073 29
- 22.465175 2 8 ack 465 ------- 2 2.1 8.1 1073 29
r 22.467547 2 8 ack 465 ------- 2 2.1 8.1 1073 29
+ 22.5 2 12 tcp 40 ------- 3 2.2 6.2 44 30
- 22.5 2 12 tcp 40 ------- 3 2.2 6.2 44 30
+ 22.5 8 2 tcp 40 ------- 2 8.1 2.1 44 31
- 22.5 8 2 tcp 40 ------- 2 8.1 2.1 44 31
r 22.502032 8 2 tcp 40 ------- 2 8.1 2.1 44 31
r 22.550213 2 12 tcp 40 ------- 3 2.2 6.2 44 30
+ 22.550213 12 6 tcp 40 ------- 3 2.2 6.2 44 30
- 22.550213 12 6 tcp 40 ------- 3 2.2 6.2 44 30
r 22.600427 12 6 tcp 40 ------- 3 2.2 6.2 44 30
v 23.302319669999999 eval {set sim_annotation {S 0 INV _o434:10}}
v 23.38617477 eval {set sim_annotation {S 0 INV _o434:20}}
v 26.980543709999999 eval {set sim_annotation {S 0 INV _o434:10}}
v 27.735694859999999 eval {set sim_annotation {S 0 INV _o434:20}}
v 29.042600759999999 eval {set sim_annotation {S 0 INV _o434:0}}
+ 31 9 3 tcp 40 ------- 4 9.1 3.1 0 32
- 31 9 3 tcp 40 ------- 4 9.1 3.1 0 32
r 31.002032 9 3 tcp 40 ------- 4 9.1 3.1 0 32
+ 31.002032 3 9 ack 40 ------- 4 3.1 9.1 0 33
- 31.002032 3 9 ack 40 ------- 4 3.1 9.1 0 33
r 31.004064 3 9 ack 40 ------- 4 3.1 9.1 0 33
+ 31.004064 9 3 tcp 40 ------- 4 9.1 3.1 1 34
- 31.004064 9 3 tcp 40 ------- 4 9.1 3.1 1 34
+ 31.004064 9 3 tcp 83 ------- 4 9.1 3.1 1 35
- 31.004096 9 3 tcp 83 ------- 4 9.1 3.1 1 35
r 31.006096 9 3 tcp 40 ------- 4 9.1 3.1 1 34
r 31.006162 9 3 tcp 83 ------- 4 9.1 3.1 1 35
+ 31.006162 3 12 tcp 40 ------- 5 3.2 6.3 0 36
- 31.006162 3 12 tcp 40 ------- 5 3.2 6.3 0 36
r 31.056376 3 12 tcp 40 ------- 5 3.2 6.3 0 36
+ 31.056376 12 6 tcp 40 ------- 5 3.2 6.3 0 36
- 31.056376 12 6 tcp 40 ------- 5 3.2 6.3 0 36
+ 31.1 3 9 ack 40 ------- 4 3.1 9.1 1 37
- 31.1 3 9 ack 40 ------- 4 3.1 9.1 1 37
r 31.102032 3 9 ack 40 ------- 4 3.1 9.1 1 37
r 31.106589 12 6 tcp 40 ------- 5 3.2 6.3 0 36
+ 31.106589 6 12 ack 40 ------- 5 6.3 3.2 0 38
- 31.106589 6 12 ack 40 ------- 5 6.3 3.2 0 38
r 31.156802 6 12 ack 40 ------- 5 6.3 3.2 0 38
+ 31.156802 12 3 ack 40 ------- 5 6.3 3.2 0 38
- 31.156802 12 3 ack 40 ------- 5 6.3 3.2 0 38
r 31.207016 12 3 ack 40 ------- 5 6.3 3.2 0 38
+ 31.207016 3 12 tcp 40 ------- 5 3.2 6.3 1 39
- 31.207016 3 12 tcp 40 ------- 5 3.2 6.3 1 39
+ 31.207016 3 12 tcp 83 ------- 5 3.2 6.3 1 40
- 31.207229 3 12 tcp 83 ------- 5 3.2 6.3 1 40
r 31.257229 3 12 tcp 40 ------- 5 3.2 6.3 1 39
+ 31.257229 12 6 tcp 40 ------- 5 3.2 6.3 1 39
- 31.257229 12 6 tcp 40 ------- 5 3.2 6.3 1 39
r 31.257672 3 12 tcp 83 ------- 5 3.2 6.3 1 40
+ 31.257672 12 6 tcp 83 ------- 5 3.2 6.3 1 40
- 31.257672 12 6 tcp 83 ------- 5 3.2 6.3 1 40
r 31.307442 12 6 tcp 40 ------- 5 3.2 6.3 1 39
r 31.308114 12 6 tcp 83 ------- 5 3.2 6.3 1 40
+ 31.308114 6 12 tcp 83 ---A--- 10 6.6 0.1 44 41
- 31.308114 6 12 tcp 83 ---A--- 10 6.6 0.1 44 41
r 31.358557 6 12 tcp 83 ---A--- 10 6.6 0.1 44 41
+ 31.358557 12 1 tcp 83 ---A--- 10 6.6 0.1 44 41
- 31.358557 12 1 tcp 83 ---A--- 10 6.6 0.1 44 41
+ 31.4 6 12 ack 40 ------- 5 6.3 3.2 1 42
- 31.4 6 12 ack 40 ------- 5 6.3 3.2 1 42
r 31.409 12 1 tcp 83 ---A--- 10 6.6 0.1 44 41
+ 31.409 1 0 tcp 83 ---A--- 10 6.6 0.1 44 41
- 31.409 1 0 tcp 83 ---A--- 10 6.6 0.1 44 41
r 31.450213 6 12 ack 40 ------- 5 6.3 3.2 1 42
+ 31.450213 12 3 ack 40 ------- 5 6.3 3.2 1 42
- 31.450213 12 3 ack 40 ------- 5 6.3 3.2 1 42
r 31.500427 12 3 ack 40 ------- 5 6.3 3.2 1 42
r 31.509442 1 0 tcp 83 ---A--- 10 6.6 0.1 44 41
+ 31.509442 0 1 ack 576 ---A--- 10 0.1 6.6 1498 43
- 31.509442 0 1 ack 576 ---A--- 10 0.1 6.6 1498 43
v 31.585327289999999 eval {set sim_annotation {S 0 INV _o434:0}}
r 31.612514 0 1 ack 576 ---A--- 10 0.1 6.6 1498 43
+ 31.612514 1 12 ack 576 ---A--- 10 0.1 6.6 1498 43
- 31.612514 1 12 ack 576 ---A--- 10 0.1 6.6 1498 43
r 31.665586 1 12 ack 576 ---A--- 10 0.1 6.6 1498 43
+ 31.665586 12 6 ack 576 ---A--- 10 0.1 6.6 1498 43
- 31.665586 12 6 ack 576 ---A--- 10 0.1 6.6 1498 43
r 31.718658 12 6 ack 576 ---A--- 10 0.1 6.6 1498 43
+ 31.718658 6 12 tcp 40 ------- 10 6.6 0.1 87 44
- 31.718658 6 12 tcp 40 ------- 10 6.6 0.1 87 44
r 31.768872 6 12 tcp 40 ------- 10 6.6 0.1 87 44
+ 31.768872 12 1 tcp 40 ------- 10 6.6 0.1 87 44
- 31.768872 12 1 tcp 40 ------- 10 6.6 0.1 87 44
r 31.819085 12 1 tcp 40 ------- 10 6.6 0.1 87 44
+ 31.819085 1 0 tcp 40 ------- 10 6.6 0.1 87 44
- 31.819085 1 0 tcp 40 ------- 10 6.6 0.1 87 44
r 31.919298 1 0 tcp 40 ------- 10 6.6 0.1 87 44
+ 31.919298 0 1 ack 576 ------- 10 0.1 6.6 2034 45
- 31.919298 0 1 ack 576 ------- 10 0.1 6.6 2034 45
r 32.02237 0 1 ack 576 ------- 10 0.1 6.6 2034 45
+ 32.02237 1 12 ack 576 ------- 10 0.1 6.6 2034 45
- 32.02237 1 12 ack 576 ------- 10 0.1 6.6 2034 45
r 32.075442 1 12 ack 576 ------- 10 0.1 6.6 2034 45
+ 32.075442 12 6 ack 576 ------- 10 0.1 6.6 2034 45
- 32.075442 12 6 ack 576 ------- 10 0.1 6.6 2034 45
r 32.128514 12 6 ack 576 ------- 10 0.1 6.6 2034 45
+ 32.128514 6 12 tcp 40 ------- 10 6.6 0.1 87 46
- 32.128514 6 12 tcp 40 ------- 10 6.6 0.1 87 46
r 32.178728 6 12 tcp 40 ------- 10 6.6 0.1 87 46
+ 32.178728 12 1 tcp 40 ------- 10 6.6 0.1 87 46
- 32.178728 12 1 tcp 40 ------- 10 6.6 0.1 87 46
r 32.228941 12 1 tcp 40 ------- 10 6.6 0.1 87 46
+ 32.228941 1 0 tcp 40 ------- 10 6.6 0.1 87 46
- 32.228941 1 0 tcp 40 ------- 10 6.6 0.1 87 46
r 32.329154 1 0 tcp 40 ------- 10 6.6 0.1 87 46
+ 32.329154 0 1 ack 293 ------- 10 0.1 6.6 2570 47
- 32.329154 0 1 ack 293 ------- 10 0.1 6.6 2570 47
r 32.430717 0 1 ack 293 ------- 10 0.1 6.6 2570 47
+ 32.430717 1 12 ack 293 ------- 10 0.1 6.6 2570 47
- 32.430717 1 12 ack 293 ------- 10 0.1 6.6 2570 47
r 32.48228 1 12 ack 293 ------- 10 0.1 6.6 2570 47
+ 32.48228 12 6 ack 293 ------- 10 0.1 6.6 2570 47
- 32.48228 12 6 ack 293 ------- 10 0.1 6.6 2570 47
r 32.533842 12 6 ack 293 ------- 10 0.1 6.6 2570 47
+ 32.533842 6 12 ack 576 ------- 5 6.3 3.2 1 48
- 32.533842 6 12 ack 576 ------- 5 6.3 3.2 1 48
r 32.586914 6 12 ack 576 ------- 5 6.3 3.2 1 48
+ 32.586914 12 3 ack 576 ------- 5 6.3 3.2 1 48
- 32.586914 12 3 ack 576 ------- 5 6.3 3.2 1 48
+ 32.6 6 12 tcp 40 ------- 10 6.6 0.1 87 49
- 32.6 6 12 tcp 40 ------- 10 6.6 0.1 87 49
r 32.639986 12 3 ack 576 ------- 5 6.3 3.2 1 48
+ 32.639986 3 12 tcp 40 ------- 5 3.2 6.3 44 50
- 32.639986 3 12 tcp 40 ------- 5 3.2 6.3 44 50
r 32.650213 6 12 tcp 40 ------- 10 6.6 0.1 87 49
+ 32.650213 12 1 tcp 40 ------- 10 6.6 0.1 87 49
- 32.650213 12 1 tcp 40 ------- 10 6.6 0.1 87 49
r 32.6902 3 12 tcp 40 ------- 5 3.2 6.3 44 50
+ 32.6902 12 6 tcp 40 ------- 5 3.2 6.3 44 50
- 32.6902 12 6 tcp 40 ------- 5 3.2 6.3 44 50
r 32.700427 12 1 tcp 40 ------- 10 6.6 0.1 87 49
+ 32.700427 1 0 tcp 40 ------- 10 6.6 0.1 87 49
- 32.700427 1 0 tcp 40 ------- 10 6.6 0.1 87 49
r 32.740413 12 6 tcp 40 ------- 5 3.2 6.3 44 50
+ 32.740413 6 12 ack 576 ------- 5 6.3 3.2 537 51
- 32.740413 6 12 ack 576 ------- 5 6.3 3.2 537 51
r 32.793485 6 12 ack 576 ------- 5 6.3 3.2 537 51
+ 32.793485 12 3 ack 576 ------- 5 6.3 3.2 537 51
- 32.793485 12 3 ack 576 ------- 5 6.3 3.2 537 51
r 32.80064 1 0 tcp 40 ------- 10 6.6 0.1 87 49
r 32.846557 12 3 ack 576 ------- 5 6.3 3.2 537 51
+ 32.846557 3 12 tcp 40 ------- 5 3.2 6.3 44 52
- 32.846557 3 12 tcp 40 ------- 5 3.2 6.3 44 52
r 32.89677 3 12 tcp 40 ------- 5 3.2 6.3 44 52
+ 32.89677 12 6 tcp 40 ------- 5 3.2 6.3 44 52
- 32.89677 12 6 tcp 40 ------- 5 3.2 6.3 44 52
r 32.946984 12 6 tcp 40 ------- 5 3.2 6.3 44 52
+ 32.946984 6 12 ack 293 ------- 5 6.3 3.2 1073 53
- 32.946984 6 12 ack 293 ------- 5 6.3 3.2 1073 53
r 32.998546 6 12 ack 293 ------- 5 6.3 3.2 1073 53
+ 32.998546 12 3 ack 293 ------- 5 6.3 3.2 1073 53
- 32.998546 12 3 ack 293 ------- 5 6.3 3.2 1073 53
r 33.050109 12 3 ack 293 ------- 5 6.3 3.2 1073 53
+ 33.050109 3 9 ack 576 ------- 4 3.1 9.1 1 54
- 33.050109 3 9 ack 576 ------- 4 3.1 9.1 1 54
r 33.05257 3 9 ack 576 ------- 4 3.1 9.1 1 54
+ 33.05257 9 3 tcp 40 ------- 4 9.1 3.1 44 55
- 33.05257 9 3 tcp 40 ------- 4 9.1 3.1 44 55
r 33.054602 9 3 tcp 40 ------- 4 9.1 3.1 44 55
+ 33.054602 3 9 ack 576 ------- 4 3.1 9.1 537 56
- 33.054602 3 9 ack 576 ------- 4 3.1 9.1 537 56
r 33.057063 3 9 ack 576 ------- 4 3.1 9.1 537 56
+ 33.057063 9 3 tcp 40 ------- 4 9.1 3.1 44 57
- 33.057063 9 3 tcp 40 ------- 4 9.1 3.1 44 57
r 33.059095 9 3 tcp 40 ------- 4 9.1 3.1 44 57
+ 33.059095 3 9 ack 293 ------- 4 3.1 9.1 1073 58
- 33.059095 3 9 ack 293 ------- 4 3.1 9.1 1073 58
r 33.061329 3 9 ack 293 ------- 4 3.1 9.1 1073 58
+ 33.1 3 12 tcp 40 ------- 5 3.2 6.3 44 59
- 33.1 3 12 tcp 40 ------- 5 3.2 6.3 44 59
+ 33.1 9 3 tcp 40 ------- 4 9.1 3.1 44 60
- 33.1 9 3 tcp 40 ------- 4 9.1 3.1 44 60
r 33.102032 9 3 tcp 40 ------- 4 9.1 3.1 44 60
r 33.150213 3 12 tcp 40 ------- 5 3.2 6.3 44 59
+ 33.150213 12 6 tcp 40 ------- 5 3.2 6.3 44 59
- 33.150213 12 6 tcp 40 ------- 5 3.2 6.3 44 59
r 33.200427 12 6 tcp 40 ------- 5 3.2 6.3 44 59
v 38.131864739999997 eval {set sim_annotation {S 0 INV _o434:30}}
v 40.423025860000003 eval {set sim_annotation {S 0 INV _o434:0}}
v 43.112625100000002 eval {set sim_annotation {S 0 INV _o434:10}}
v 46.650538419999997 eval {set sim_annotation {S 0 INV _o434:10}}
v 47.661344460000002 eval {set sim_annotation {S 0 INV _o434:20}}
+ 48 10 4 tcp 40 ------- 6 10.1 4.1 0 61
- 48 10 4 tcp 40 ------- 6 10.1 4.1 0 61
r 48.002032 10 4 tcp 40 ------- 6 10.1 4.1 0 61
+ 48.002032 4 10 ack 40 ------- 6 4.1 10.1 0 62
- 48.002032 4 10 ack 40 ------- 6 4.1 10.1 0 62
r 48.004064 4 10 ack 40 ------- 6 4.1 10.1 0 62
+ 48.004064 10 4 tcp 40 ------- 6 10.1 4.1 1 63
- 48.004064 10 4 tcp 40 ------- 6 10.1 4.1 1 63
+ 48.004064 10 4 tcp 83 ------- 6 10.1 4.1 1 64
- 48.004096 10 4 tcp 83 ------- 6 10.1 4.1 1 64
r 48.006096 10 4 tcp 40 ------- 6 10.1 4.1 1 63
r 48.006162 10 4 tcp 83 ------- 6 10.1 4.1 1 64
+ 48.006162 4 12 tcp 40 ------- 7 4.2 6.4 0 65
- 48.006162 4 12 tcp 40 ------- 7 4.2 6.4 0 65
r 48.056376 4 12 tcp 40 ------- 7 4.2 6.4 0 65
+ 48.056376 12 6 tcp 40 ------- 7 4.2 6.4 0 65
- 48.056376 12 6 tcp 40 ------- 7 4.2 6.4 0 65
+ 48.1 4 10 ack 40 ------- 6 4.1 10.1 1 66
- 48.1 4 10 ack 40 ------- 6 4.1 10.1 1 66
r 48.102032 4 10 ack 40 ------- 6 4.1 10.1 1 66
r 48.106589 12 6 tcp 40 ------- 7 4.2 6.4 0 65
+ 48.106589 6 12 ack 40 ------- 7 6.4 4.2 0 67
- 48.106589 6 12 ack 40 ------- 7 6.4 4.2 0 67
r 48.156802 6 12 ack 40 ------- 7 6.4 4.2 0 67
+ 48.156802 12 4 ack 40 ------- 7 6.4 4.2 0 67
- 48.156802 12 4 ack 40 ------- 7 6.4 4.2 0 67
r 48.207016 12 4 ack 40 ------- 7 6.4 4.2 0 67
+ 48.207016 4 12 tcp 40 ------- 7 4.2 6.4 1 68
- 48.207016 4 12 tcp 40 ------- 7 4.2 6.4 1 68
+ 48.207016 4 12 tcp 83 ------- 7 4.2 6.4 1 69
- 48.207229 4 12 tcp 83 ------- 7 4.2 6.4 1 69
r 48.257229 4 12 tcp 40 ------- 7 4.2 6.4 1 68
+ 48.257229 12 6 tcp 40 ------- 7 4.2 6.4 1 68
- 48.257229 12 6 tcp 40 ------- 7 4.2 6.4 1 68
r 48.257672 4 12 tcp 83 ------- 7 4.2 6.4 1 69
+ 48.257672 12 6 tcp 83 ------- 7 4.2 6.4 1 69
- 48.257672 12 6 tcp 83 ------- 7 4.2 6.4 1 69
r 48.307442 12 6 tcp 40 ------- 7 4.2 6.4 1 68
r 48.308114 12 6 tcp 83 ------- 7 4.2 6.4 1 69
+ 48.308114 6 12 tcp 83 ---A--- 10 6.6 0.1 87 70
- 48.308114 6 12 tcp 83 ---A--- 10 6.6 0.1 87 70
r 48.358557 6 12 tcp 83 ---A--- 10 6.6 0.1 87 70
+ 48.358557 12 1 tcp 83 ---A--- 10 6.6 0.1 87 70
- 48.358557 12 1 tcp 83 ---A--- 10 6.6 0.1 87 70
+ 48.4 6 12 ack 40 ------- 7 6.4 4.2 1 71
- 48.4 6 12 ack 40 ------- 7 6.4 4.2 1 71
r 48.409 12 1 tcp 83 ---A--- 10 6.6 0.1 87 70
+ 48.409 1 0 tcp 83 ---A--- 10 6.6 0.1 87 70
- 48.409 1 0 tcp 83 ---A--- 10 6.6 0.1 87 70
r 48.450213 6 12 ack 40 ------- 7 6.4 4.2 1 71
+ 48.450213 12 4 ack 40 ------- 7 6.4 4.2 1 71
- 48.450213 12 4 ack 40 ------- 7 6.4 4.2 1 71
r 48.500427 12 4 ack 40 ------- 7 6.4 4.2 1 71
r 48.509442 1 0 tcp 83 ---A--- 10 6.6 0.1 87 70
+ 48.509442 0 1 ack 576 ---A--- 10 0.1 6.6 2823 72
- 48.509442 0 1 ack 576 ---A--- 10 0.1 6.6 2823 72
r 48.612514 0 1 ack 576 ---A--- 10 0.1 6.6 2823 72
+ 48.612514 1 12 ack 576 ---A--- 10 0.1 6.6 2823 72
- 48.612514 1 12 ack 576 ---A--- 10 0.1 6.6 2823 72
r 48.665586 1 12 ack 576 ---A--- 10 0.1 6.6 2823 72
+ 48.665586 12 6 ack 576 ---A--- 10 0.1 6.6 2823 72
- 48.665586 12 6 ack 576 ---A--- 10 0.1 6.6 2823 72
r 48.718658 12 6 ack 576 ---A--- 10 0.1 6.6 2823 72
+ 48.718658 6 12 tcp 40 ------- 10 6.6 0.1 130 73
- 48.718658 6 12 tcp 40 ------- 10 6.6 0.1 130 73
r 48.768872 6 12 tcp 40 ------- 10 6.6 0.1 130 73
+ 48.768872 12 1 tcp 40 ------- 10 6.6 0.1 130 73
- 48.768872 12 1 tcp 40 ------- 10 6.6 0.1 130 73
r 48.819085 12 1 tcp 40 ------- 10 6.6 0.1 130 73
+ 48.819085 1 0 tcp 40 ------- 10 6.6 0.1 130 73
- 48.819085 1 0 tcp 40 ------- 10 6.6 0.1 130 73
r 48.919298 1 0 tcp 40 ------- 10 6.6 0.1 130 73
+ 48.919298 0 1 ack 518 ------- 10 0.1 6.6 3359 74
- 48.919298 0 1 ack 518 ------- 10 0.1 6.6 3359 74
v 49.009611700000001 eval {set sim_annotation {S 0 INV _o434:10}}
r 49.022061 0 1 ack 518 ------- 10 0.1 6.6 3359 74
+ 49.022061 1 12 ack 518 ------- 10 0.1 6.6 3359 74
- 49.022061 1 12 ack 518 ------- 10 0.1 6.6 3359 74
r 49.074824 1 12 ack 518 ------- 10 0.1 6.6 3359 74
+ 49.074824 12 6 ack 518 ------- 10 0.1 6.6 3359 74
- 49.074824 12 6 ack 518 ------- 10 0.1 6.6 3359 74
v 49.125985049999997 eval {set sim_annotation {S 0 INV _o434:30}}
r 49.127586 12 6 ack 518 ------- 10 0.1 6.6 3359 74
+ 49.127586 6 12 ack 576 ------- 7 6.4 4.2 1 75
- 49.127586 6 12 ack 576 ------- 7 6.4 4.2 1 75
r 49.180658 6 12 ack 576 ------- 7 6.4 4.2 1 75
+ 49.180658 12 4 ack 576 ------- 7 6.4 4.2 1 75
- 49.180658 12 4 ack 576 ------- 7 6.4 4.2 1 75
+ 49.2 6 12 tcp 40 ------- 10 6.6 0.1 130 76
- 49.2 6 12 tcp 40 ------- 10 6.6 0.1 130 76
r 49.23373 12 4 ack 576 ------- 7 6.4 4.2 1 75
+ 49.23373 4 12 tcp 40 ------- 7 4.2 6.4 44 77
- 49.23373 4 12 tcp 40 ------- 7 4.2 6.4 44 77
r 49.250213 6 12 tcp 40 ------- 10 6.6 0.1 130 76
+ 49.250213 12 1 tcp 40 ------- 10 6.6 0.1 130 76
- 49.250213 12 1 tcp 40 ------- 10 6.6 0.1 130 76
r 49.283944 4 12 tcp 40 ------- 7 4.2 6.4 44 77
+ 49.283944 12 6 tcp 40 ------- 7 4.2 6.4 44 77
- 49.283944 12 6 tcp 40 ------- 7 4.2 6.4 44 77
r 49.300427 12 1 tcp 40 ------- 10 6.6 0.1 130 76
+ 49.300427 1 0 tcp 40 ------- 10 6.6 0.1 130 76
- 49.300427 1 0 tcp 40 ------- 10 6.6 0.1 130 76
r 49.334157 12 6 tcp 40 ------- 7 4.2 6.4 44 77
+ 49.334157 6 12 ack 518 ------- 7 6.4 4.2 537 78
- 49.334157 6 12 ack 518 ------- 7 6.4 4.2 537 78
r 49.38692 6 12 ack 518 ------- 7 6.4 4.2 537 78
+ 49.38692 12 4 ack 518 ------- 7 6.4 4.2 537 78
- 49.38692 12 4 ack 518 ------- 7 6.4 4.2 537 78
r 49.40064 1 0 tcp 40 ------- 10 6.6 0.1 130 76
r 49.439682 12 4 ack 518 ------- 7 6.4 4.2 537 78
+ 49.439682 4 10 ack 576 ------- 6 4.1 10.1 1 79
- 49.439682 4 10 ack 576 ------- 6 4.1 10.1 1 79
r 49.442143 4 10 ack 576 ------- 6 4.1 10.1 1 79
+ 49.442143 10 4 tcp 40 ------- 6 10.1 4.1 44 80
- 49.442143 10 4 tcp 40 ------- 6 10.1 4.1 44 80
r 49.444175 10 4 tcp 40 ------- 6 10.1 4.1 44 80
+ 49.444175 4 10 ack 518 ------- 6 4.1 10.1 537 81
- 49.444175 4 10 ack 518 ------- 6 4.1 10.1 537 81
r 49.44659 4 10 ack 518 ------- 6 4.1 10.1 537 81
+ 49.5 10 4 tcp 40 ------- 6 10.1 4.1 44 82
- 49.5 10 4 tcp 40 ------- 6 10.1 4.1 44 82
+ 49.5 4 12 tcp 40 ------- 7 4.2 6.4 44 83
- 49.5 4 12 tcp 40 ------- 7 4.2 6.4 44 83
r 49.502032 10 4 tcp 40 ------- 6 10.1 4.1 44 82
r 49.550213 4 12 tcp 40 ------- 7 4.2 6.4 44 83
+ 49.550213 12 6 tcp 40 ------- 7 4.2 6.4 44 83
- 49.550213 12 6 tcp 40 ------- 7 4.2 6.4 44 83
r 49.600427 12 6 tcp 40 ------- 7 4.2 6.4 44 83
v 53.41728234 eval {set sim_annotation {S 0 INV _o434:20}}
v 53.748139510000001 eval {set sim_annotation {S 0 INV _o434:30}}
v 57.728444629999998 eval {set sim_annotation {S 0 INV _o434:20}}
v 59.602952500000001 eval {set sim_annotation {S 0 INV _o434:10}}
v 60.039721880000002 eval {set sim_annotation {S 0 INV _o434:0}}
v 63.093353569999998 eval {set sim_annotation {S 0 INV _o434:30}}
v 64.729915300000002 eval {set sim_annotation {S 0 INV _o434:10}}
v 64.816396179999998 eval {set sim_annotation {S 0 INV _o434:0}}
+ 70 11 5 tcp 40 ------- 8 11.1 5.1 0 84
- 70 11 5 tcp 40 ------- 8 11.1 5.1 0 84
r 70.002032 11 5 tcp 40 ------- 8 11.1 5.1 0 84
+ 70.002032 5 11 ack 40 ------- 8 5.1 11.1 0 85
- 70.002032 5 11 ack 40 ------- 8 5.1 11.1 0 85
r 70.004064 5 11 ack 40 ------- 8 5.1 11.1 0 85
+ 70.004064 11 5 tcp 40 ------- 8 11.1 5.1 1 86
- 70.004064 11 5 tcp 40 ------- 8 11.1 5.1 1 86
+ 70.004064 11 5 tcp 83 ------- 8 11.1 5.1 1 87
- 70.004096 11 5 tcp 83 ------- 8 11.1 5.1 1 87
r 70.006096 11 5 tcp 40 ------- 8 11.1 5.1 1 86
r 70.006162 11 5 tcp 83 ------- 8 11.1 5.1 1 87
+ 70.006162 5 12 tcp 40 ------- 9 5.2 6.5 0 88
- 70.006162 5 12 tcp 40 ------- 9 5.2 6.5 0 88
r 70.056376 5 12 tcp 40 ------- 9 5.2 6.5 0 88
+ 70.056376 12 6 tcp 40 ------- 9 5.2 6.5 0 88
- 70.056376 12 6 tcp 40 ------- 9 5.2 6.5 0 88
v 70.075922210000002 eval {set sim_annotation {S 0 INV _o434:30}}
+ 70.1 5 11 ack 40 ------- 8 5.1 11.1 1 89
- 70.1 5 11 ack 40 ------- 8 5.1 11.1 1 89
r 70.102032 5 11 ack 40 ------- 8 5.1 11.1 1 89
r 70.106589 12 6 tcp 40 ------- 9 5.2 6.5 0 88
+ 70.106589 6 12 ack 40 ------- 9 6.5 5.2 0 90
- 70.106589 6 12 ack 40 ------- 9 6.5 5.2 0 90
r 70.156802 6 12 ack 40 ------- 9 6.5 5.2 0 90
+ 70.156802 12 5 ack 40 ------- 9 6.5 5.2 0 90
- 70.156802 12 5 ack 40 ------- 9 6.5 5.2 0 90
r 70.207016 12 5 ack 40 ------- 9 6.5 5.2 0 90
+ 70.207016 5 12 tcp 40 ------- 9 5.2 6.5 1 91
- 70.207016 5 12 tcp 40 ------- 9 5.2 6.5 1 91
+ 70.207016 5 12 tcp 83 ------- 9 5.2 6.5 1 92
- 70.207229 5 12 tcp 83 ------- 9 5.2 6.5 1 92
r 70.257229 5 12 tcp 40 ------- 9 5.2 6.5 1 91
+ 70.257229 12 6 tcp 40 ------- 9 5.2 6.5 1 91
- 70.257229 12 6 tcp 40 ------- 9 5.2 6.5 1 91
r 70.257672 5 12 tcp 83 ------- 9 5.2 6.5 1 92
+ 70.257672 12 6 tcp 83 ------- 9 5.2 6.5 1 92
- 70.257672 12 6 tcp 83 ------- 9 5.2 6.5 1 92
r 70.307442 12 6 tcp 40 ------- 9 5.2 6.5 1 91
r 70.308114 12 6 tcp 83 ------- 9 5.2 6.5 1 92
+ 70.308114 6 12 tcp 83 ---A--- 10 6.6 0.1 130 93
- 70.308114 6 12 tcp 83 ---A--- 10 6.6 0.1 130 93
r 70.358557 6 12 tcp 83 ---A--- 10 6.6 0.1 130 93
+ 70.358557 12 1 tcp 83 ---A--- 10 6.6 0.1 130 93
- 70.358557 12 1 tcp 83 ---A--- 10 6.6 0.1 130 93
+ 70.4 6 12 ack 40 ------- 9 6.5 5.2 1 94
- 70.4 6 12 ack 40 ------- 9 6.5 5.2 1 94
r 70.409 12 1 tcp 83 ---A--- 10 6.6 0.1 130 93
+ 70.409 1 0 tcp 83 ---A--- 10 6.6 0.1 130 93
- 70.409 1 0 tcp 83 ---A--- 10 6.6 0.1 130 93
r 70.450213 6 12 ack 40 ------- 9 6.5 5.2 1 94
+ 70.450213 12 5 ack 40 ------- 9 6.5 5.2 1 94
- 70.450213 12 5 ack 40 ------- 9 6.5 5.2 1 94
r 70.500427 12 5 ack 40 ------- 9 6.5 5.2 1 94
r 70.509442 1 0 tcp 83 ---A--- 10 6.6 0.1 130 93
+ 70.509442 0 1 ack 576 ---A--- 10 0.1 6.6 3837 95
- 70.509442 0 1 ack 576 ---A--- 10 0.1 6.6 3837 95
r 70.612514 0 1 ack 576 ---A--- 10 0.1 6.6 3837 95
+ 70.612514 1 12 ack 576 ---A--- 10 0.1 6.6 3837 95
- 70.612514 1 12 ack 576 ---A--- 10 0.1 6.6 3837 95
r 70.665586 1 12 ack 576 ---A--- 10 0.1 6.6 3837 95
+ 70.665586 12 6 ack 576 ---A--- 10 0.1 6.6 3837 95
- 70.665586 12 6 ack 576 ---A--- 10 0.1 6.6 3837 95
r 70.718658 12 6 ack 576 ---A--- 10 0.1 6.6 3837 95
+ 70.718658 6 12 tcp 40 ------- 10 6.6 0.1 173 96
- 70.718658 6 12 tcp 40 ------- 10 6.6 0.1 173 96
r 70.768872 6 12 tcp 40 ------- 10 6.6 0.1 173 96
+ 70.768872 12 1 tcp 40 ------- 10 6.6 0.1 173 96
- 70.768872 12 1 tcp 40 ------- 10 6.6 0.1 173 96
r 70.819085 12 1 tcp 40 ------- 10 6.6 0.1 173 96
+ 70.819085 1 0 tcp 40 ------- 10 6.6 0.1 173 96
- 70.819085 1 0 tcp 40 ------- 10 6.6 0.1 173 96
r 70.919298 1 0 tcp 40 ------- 10 6.6 0.1 173 96
+ 70.919298 0 1 ack 576 ------- 10 0.1 6.6 4373 97
- 70.919298 0 1 ack 576 ------- 10 0.1 6.6 4373 97
+ 70.919298 0 1 ack 576 ------- 10 0.1 6.6 4909 98
- 70.92237 0 1 ack 576 ------- 10 0.1 6.6 4909 98
+ 71 11 5 tcp 83 ---A--- 8 11.1 5.1 44 99
- 71 11 5 tcp 83 ---A--- 8 11.1 5.1 44 99
r 71.002066 11 5 tcp 83 ---A--- 8 11.1 5.1 44 99
+ 71.002066 5 12 tcp 83 ---A--- 9 5.2 6.5 44 100
- 71.002066 5 12 tcp 83 ---A--- 9 5.2 6.5 44 100
r 71.02237 0 1 ack 576 ------- 10 0.1 6.6 4373 97
+ 71.02237 1 12 ack 576 ------- 10 0.1 6.6 4373 97
- 71.02237 1 12 ack 576 ------- 10 0.1 6.6 4373 97
r 71.025442 0 1 ack 576 ------- 10 0.1 6.6 4909 98
+ 71.025442 1 12 ack 576 ------- 10 0.1 6.6 4909 98
- 71.025442 1 12 ack 576 ------- 10 0.1 6.6 4909 98
r 71.052509 5 12 tcp 83 ---A--- 9 5.2 6.5 44 100
+ 71.052509 12 6 tcp 83 ---A--- 9 5.2 6.5 44 100
- 71.052509 12 6 tcp 83 ---A--- 9 5.2 6.5 44 100
r 71.075442 1 12 ack 576 ------- 10 0.1 6.6 4373 97
+ 71.075442 12 6 ack 576 ------- 10 0.1 6.6 4373 97
- 71.075442 12 6 ack 576 ------- 10 0.1 6.6 4373 97
r 71.078514 1 12 ack 576 ------- 10 0.1 6.6 4909 98
+ 71.078514 12 6 ack 576 ------- 10 0.1 6.6 4909 98
- 71.078514 12 6 ack 576 ------- 10 0.1 6.6 4909 98
+ 71.1 5 11 ack 40 ------- 8 5.1 11.1 1 101
- 71.1 5 11 ack 40 ------- 8 5.1 11.1 1 101
r 71.102032 5 11 ack 40 ------- 8 5.1 11.1 1 101
r 71.102952 12 6 tcp 83 ---A--- 9 5.2 6.5 44 100
+ 71.102952 6 12 tcp 83 ---A--- 10 6.6 0.1 173 102
- 71.102952 6 12 tcp 83 ---A--- 10 6.6 0.1 173 102