+ 0.5 0 1 sctp 56 -------I 0 0.0 1.0 1 -1 2 65535 65535
- 0.5 0 1 sctp 56 -------I 0 0.0 1.0 1 -1 2 65535 65535
r 0.700896 0 1 sctp 56 -------I 0 0.0 1.0 1 -1 2 65535 65535
+ 0.700896 1 0 sctp 56 -------I 0 1.0 0.0 1 -1 3 65535 65535
- 0.700896 1 0 sctp 56 -------I 0 1.0 0.0 1 -1 3 65535 65535
r 0.901792 1 0 sctp 56 -------I 0 1.0 0.0 1 -1 3 65535 65535
+ 0.901792 0 1 sctp 36 -------I 0 0.0 1.0 1 -1 4 65535 65535
- 0.901792 0 1 sctp 36 -------I 0 0.0 1.0 1 -1 4 65535 65535
r 1.102368 0 1 sctp 36 -------I 0 0.0 1.0 1 -1 4 65535 65535
+ 1.102368 1 0 sctp 36 -------I 0 1.0 0.0 1 -1 5 65535 65535
- 1.102368 1 0 sctp 36 -------I 0 1.0 0.0 1 -1 5 65535 65535
r 1.302944 1 0 sctp 36 -------I 0 1.0 0.0 1 -1 5 65535 65535
+ 1.302944 0 1 sctp 56 -------H 0 0.0 1.0 1 -1 6 65535 65535
- 1.302944 0 1 sctp 56 -------H 0 0.0 1.0 1 -1 6 65535 65535
r 1.50384 0 1 sctp 56 -------H 0 0.0 1.0 1 -1 6 65535 65535
+ 1.50384 1 0 sctp 56 -------B 0 1.0 0.0 1 -1 7 65535 65535
- 1.50384 1 0 sctp 56 -------B 0 1.0 0.0 1 -1 7 65535 65535
r 1.704736 1 0 sctp 56 -------B 0 1.0 0.0 1 -1 7 65535 65535
+ 1.704736 0 1 sctp 1500 -------D 0 0.0 1.0 1 1 8 0 0
- 1.704736 0 1 sctp 1500 -------D 0 0.0 1.0 1 1 8 0 0
+ 1.704736 0 1 sctp 1500 -------D 0 0.0 1.0 1 2 9 0 1
+ 1.704736 0 1 sctp 1500 -------D 0 0.0 1.0 1 3 10 0 2
- 1.728736 0 1 sctp 1500 -------D 0 0.0 1.0 1 2 9 0 1
- 1.752736 0 1 sctp 1500 -------D 0 0.0 1.0 1 3 10 0 2
r 1.928736 0 1 sctp 1500 -------D 0 0.0 1.0 1 1 8 0 0
+ 1.928736 1 0 sctp 48 -------S 0 1.0 0.0 1 1 11 65535 65535
- 1.928736 1 0 sctp 48 -------S 0 1.0 0.0 1 1 11 65535 65535
r 1.952736 0 1 sctp 1500 -------D 0 0.0 1.0 1 2 9 0 1
+ 1.952736 1 0 sctp 48 -------S 0 1.0 0.0 1 2 12 65535 65535
- 1.952736 1 0 sctp 48 -------S 0 1.0 0.0 1 2 12 65535 65535
r 1.976736 0 1 sctp 1500 -------D 0 0.0 1.0 1 3 10 0 2
+ 1.976736 1 0 sctp 48 -------S 0 1.0 0.0 1 3 13 65535 65535
- 1.976736 1 0 sctp 48 -------S 0 1.0 0.0 1 3 13 65535 65535
r 2.129504 1 0 sctp 48 -------S 0 1.0 0.0 1 1 11 65535 65535
+ 2.129504 0 1 sctp 1500 -------D 0 0.0 1.0 1 4 14 0 3
- 2.129504 0 1 sctp 1500 -------D 0 0.0 1.0 1 4 14 0 3
+ 2.129504 0 1 sctp 1500 -------D 0 0.0 1.0 1 5 15 0 4
r 2.153504 1 0 sctp 48 -------S 0 1.0 0.0 1 2 12 65535 65535
+ 2.153504 0 1 sctp 1500 -------D 0 0.0 1.0 1 6 16 0 5
+ 2.153504 0 1 sctp 1500 -------D 0 0.0 1.0 1 7 17 0 6
- 2.153504 0 1 sctp 1500 -------D 0 0.0 1.0 1 5 15 0 4
r 2.177504 1 0 sctp 48 -------S 0 1.0 0.0 1 3 13 65535 65535
+ 2.177504 0 1 sctp 1500 -------D 0 0.0 1.0 1 8 18 0 7
+ 2.177504 0 1 sctp 1500 -------D 0 0.0 1.0 1 9 19 0 8
- 2.177504 0 1 sctp 1500 -------D 0 0.0 1.0 1 6 16 0 5
- 2.201504 0 1 sctp 1500 -------D 0 0.0 1.0 1 7 17 0 6
- 2.225504 0 1 sctp 1500 -------D 0 0.0 1.0 1 8 18 0 7
- 2.249504 0 1 sctp 1500 -------D 0 0.0 1.0 1 9 19 0 8
r 2.353504 0 1 sctp 1500 -------D 0 0.0 1.0 1 4 14 0 3
+ 2.353504 1 0 sctp 48 -------S 0 1.0 0.0 1 4 20 65535 65535
- 2.353504 1 0 sctp 48 -------S 0 1.0 0.0 1 4 20 65535 65535
r 2.377504 0 1 sctp 1500 -------D 0 0.0 1.0 1 5 15 0 4
+ 2.377504 1 0 sctp 48 -------S 0 1.0 0.0 1 5 21 65535 65535
- 2.377504 1 0 sctp 48 -------S 0 1.0 0.0 1 5 21 65535 65535
r 2.401504 0 1 sctp 1500 -------D 0 0.0 1.0 1 6 16 0 5
+ 2.401504 1 0 sctp 48 -------S 0 1.0 0.0 1 6 22 65535 65535
- 2.401504 1 0 sctp 48 -------S 0 1.0 0.0 1 6 22 65535 65535
r 2.425504 0 1 sctp 1500 -------D 0 0.0 1.0 1 7 17 0 6
+ 2.425504 1 0 sctp 48 -------S 0 1.0 0.0 1 7 23 65535 65535
- 2.425504 1 0 sctp 48 -------S 0 1.0 0.0 1 7 23 65535 65535
r 2.449504 0 1 sctp 1500 -------D 0 0.0 1.0 1 8 18 0 7
+ 2.449504 1 0 sctp 48 -------S 0 1.0 0.0 1 8 24 65535 65535
- 2.449504 1 0 sctp 48 -------S 0 1.0 0.0 1 8 24 65535 65535
r 2.473504 0 1 sctp 1500 -------D 0 0.0 1.0 1 9 19 0 8
+ 2.473504 1 0 sctp 48 -------S 0 1.0 0.0 1 9 25 65535 65535
- 2.473504 1 0 sctp 48 -------S 0 1.0 0.0 1 9 25 65535 65535
r 2.554272 1 0 sctp 48 -------S 0 1.0 0.0 1 4 20 65535 65535
+ 2.554272 0 1 sctp 1500 -------D 0 0.0 1.0 1 10 26 0 9
- 2.554272 0 1 sctp 1500 -------D 0 0.0 1.0 1 10 26 0 9
+ 2.554272 0 1 sctp 1500 -------D 0 0.0 1.0 1 11 27 0 10
r 2.578272 1 0 sctp 48 -------S 0 1.0 0.0 1 5 21 65535 65535
+ 2.578272 0 1 sctp 1500 -------D 0 0.0 1.0 1 12 28 0 11
+ 2.578272 0 1 sctp 1500 -------D 0 0.0 1.0 1 13 29 0 12
- 2.578272 0 1 sctp 1500 -------D 0 0.0 1.0 1 11 27 0 10
r 2.602272 1 0 sctp 48 -------S 0 1.0 0.0 1 6 22 65535 65535
+ 2.602272 0 1 sctp 1500 -------D 0 0.0 1.0 1 14 30 0 13
+ 2.602272 0 1 sctp 1500 -------D 0 0.0 1.0 1 15 31 0 14
- 2.602272 0 1 sctp 1500 -------D 0 0.0 1.0 1 12 28 0 11
r 2.626272 1 0 sctp 48 -------S 0 1.0 0.0 1 7 23 65535 65535
+ 2.626272 0 1 sctp 1500 -------D 0 0.0 1.0 1 16 32 0 15
+ 2.626272 0 1 sctp 1500 -------D 0 0.0 1.0 1 17 33 0 16
- 2.626272 0 1 sctp 1500 -------D 0 0.0 1.0 1 13 29 0 12
r 2.650272 1 0 sctp 48 -------S 0 1.0 0.0 1 8 24 65535 65535
d 2.650272 0 1 sctp 1500 -------D 0 0.0 1.0 1 18 34 0 17
d 2.650272 0 1 sctp 1500 -------D 0 0.0 1.0 1 19 35 0 18
- 2.650272 0 1 sctp 1500 -------D 0 0.0 1.0 1 14 30 0 13
r 2.674272 1 0 sctp 48 -------S 0 1.0 0.0 1 9 25 65535 65535
+ 2.674272 0 1 sctp 1500 -------D 0 0.0 1.0 1 20 36 0 19
d 2.674272 0 1 sctp 1500 -------D 0 0.0 1.0 1 21 37 0 20
- 2.674272 0 1 sctp 1500 -------D 0 0.0 1.0 1 15 31 0 14
- 2.698272 0 1 sctp 1500 -------D 0 0.0 1.0 1 16 32 0 15
- 2.722272 0 1 sctp 1500 -------D 0 0.0 1.0 1 17 33 0 16
- 2.746272 0 1 sctp 1500 -------D 0 0.0 1.0 1 20 36 0 19
r 2.778272 0 1 sctp 1500 -------D 0 0.0 1.0 1 10 26 0 9
+ 2.778272 1 0 sctp 48 -------S 0 1.0 0.0 1 10 38 65535 65535
- 2.778272 1 0 sctp 48 -------S 0 1.0 0.0 1 10 38 65535 65535
r 2.802272 0 1 sctp 1500 -------D 0 0.0 1.0 1 11 27 0 10
+ 2.802272 1 0 sctp 48 -------S 0 1.0 0.0 1 11 39 65535 65535
- 2.802272 1 0 sctp 48 -------S 0 1.0 0.0 1 11 39 65535 65535
r 2.826272 0 1 sctp 1500 -------D 0 0.0 1.0 1 12 28 0 11
+ 2.826272 1 0 sctp 48 -------S 0 1.0 0.0 1 12 40 65535 65535
- 2.826272 1 0 sctp 48 -------S 0 1.0 0.0 1 12 40 65535 65535
r 2.850272 0 1 sctp 1500 -------D 0 0.0 1.0 1 13 29 0 12
+ 2.850272 1 0 sctp 48 -------S 0 1.0 0.0 1 13 41 65535 65535
- 2.850272 1 0 sctp 48 -------S 0 1.0 0.0 1 13 41 65535 65535
r 2.874272 0 1 sctp 1500 -------D 0 0.0 1.0 1 14 30 0 13
+ 2.874272 1 0 sctp 48 -------S 0 1.0 0.0 1 14 42 65535 65535
- 2.874272 1 0 sctp 48 -------S 0 1.0 0.0 1 14 42 65535 65535
r 2.898272 0 1 sctp 1500 -------D 0 0.0 1.0 1 15 31 0 14
+ 2.898272 1 0 sctp 48 -------S 0 1.0 0.0 1 15 43 65535 65535
- 2.898272 1 0 sctp 48 -------S 0 1.0 0.0 1 15 43 65535 65535
r 2.922272 0 1 sctp 1500 -------D 0 0.0 1.0 1 16 32 0 15
+ 2.922272 1 0 sctp 48 -------S 0 1.0 0.0 1 16 44 65535 65535
- 2.922272 1 0 sctp 48 -------S 0 1.0 0.0 1 16 44 65535 65535
r 2.946272 0 1 sctp 1500 -------D 0 0.0 1.0 1 17 33 0 16
+ 2.946272 1 0 sctp 48 -------S 0 1.0 0.0 1 17 45 65535 65535
- 2.946272 1 0 sctp 48 -------S 0 1.0 0.0 1 17 45 65535 65535
r 2.970272 0 1 sctp 1500 -------D 0 0.0 1.0 1 20 36 0 19
+ 2.970272 1 0 sctp 52 -------S 0 1.0 0.0 1 17 46 65535 65535
- 2.970272 1 0 sctp 52 -------S 0 1.0 0.0 1 17 46 65535 65535
r 2.97904 1 0 sctp 48 -------S 0 1.0 0.0 1 10 38 65535 65535
+ 2.97904 0 1 sctp 1500 -------D 0 0.0 1.0 1 22 47 0 21
- 2.97904 0 1 sctp 1500 -------D 0 0.0 1.0 1 22 47 0 21
+ 2.97904 0 1 sctp 1500 -------D 0 0.0 1.0 1 23 48 0 22
r 3.00304 1 0 sctp 48 -------S 0 1.0 0.0 1 11 39 65535 65535
+ 3.00304 0 1 sctp 1500 -------D 0 0.0 1.0 1 24 49 0 23
+ 3.00304 0 1 sctp 1500 -------D 0 0.0 1.0 1 25 50 0 24
- 3.00304 0 1 sctp 1500 -------D 0 0.0 1.0 1 23 48 0 22
r 3.02704 1 0 sctp 48 -------S 0 1.0 0.0 1 12 40 65535 65535
+ 3.02704 0 1 sctp 1500 -------D 0 0.0 1.0 1 26 51 0 25
+ 3.02704 0 1 sctp 1500 -------D 0 0.0 1.0 1 27 52 0 26
- 3.02704 0 1 sctp 1500 -------D 0 0.0 1.0 1 24 49 0 23
r 3.05104 1 0 sctp 48 -------S 0 1.0 0.0 1 13 41 65535 65535
+ 3.05104 0 1 sctp 1500 -------D 0 0.0 1.0 1 28 53 0 27
+ 3.05104 0 1 sctp 1500 -------D 0 0.0 1.0 1 29 54 0 28
- 3.05104 0 1 sctp 1500 -------D 0 0.0 1.0 1 25 50 0 24
r 3.07504 1 0 sctp 48 -------S 0 1.0 0.0 1 14 42 65535 65535
+ 3.07504 0 1 sctp 1500 -------D 0 0.0 1.0 1 30 55 0 29
+ 3.07504 0 1 sctp 1500 -------D 0 0.0 1.0 1 31 56 0 30
- 3.07504 0 1 sctp 1500 -------D 0 0.0 1.0 1 26 51 0 25
r 3.09904 1 0 sctp 48 -------S 0 1.0 0.0 1 15 43 65535 65535
+ 3.09904 0 1 sctp 1500 -------D 0 0.0 1.0 1 32 57 0 31
+ 3.09904 0 1 sctp 1500 -------D 0 0.0 1.0 1 33 58 0 32
- 3.09904 0 1 sctp 1500 -------D 0 0.0 1.0 1 27 52 0 26
r 3.12304 1 0 sctp 48 -------S 0 1.0 0.0 1 16 44 65535 65535
+ 3.12304 0 1 sctp 1500 -------D 0 0.0 1.0 1 34 59 0 33
+ 3.12304 0 1 sctp 1500 -------D 0 0.0 1.0 1 35 60 0 34
- 3.12304 0 1 sctp 1500 -------D 0 0.0 1.0 1 28 53 0 27
r 3.14704 1 0 sctp 48 -------S 0 1.0 0.0 1 17 45 65535 65535
+ 3.14704 0 1 sctp 1500 -------D 0 0.0 1.0 1 36 61 0 35
+ 3.14704 0 1 sctp 1500 -------D 0 0.0 1.0 1 37 62 0 36
- 3.14704 0 1 sctp 1500 -------D 0 0.0 1.0 1 29 54 0 28
- 3.17104 0 1 sctp 1500 -------D 0 0.0 1.0 1 30 55 0 29
r 3.171104 1 0 sctp 52 -------S 0 1.0 0.0 1 17 46 65535 65535
+ 3.171104 0 1 sctp 1500 -------D 0 0.0 1.0 1 38 63 0 37
- 3.19504 0 1 sctp 1500 -------D 0 0.0 1.0 1 31 56 0 30
r 3.20304 0 1 sctp 1500 -------D 0 0.0 1.0 1 22 47 0 21
+ 3.20304 1 0 sctp 56 -------S 0 1.0 0.0 1 17 64 65535 65535
- 3.20304 1 0 sctp 56 -------S 0 1.0 0.0 1 17 64 65535 65535
- 3.21904 0 1 sctp 1500 -------D 0 0.0 1.0 1 32 57 0 31
r 3.22704 0 1 sctp 1500 -------D 0 0.0 1.0 1 23 48 0 22
+ 3.22704 1 0 sctp 56 -------S 0 1.0 0.0 1 17 65 65535 65535
- 3.22704 1 0 sctp 56 -------S 0 1.0 0.0 1 17 65 65535 65535
- 3.24304 0 1 sctp 1500 -------D 0 0.0 1.0 1 33 58 0 32
r 3.25104 0 1 sctp 1500 -------D 0 0.0 1.0 1 24 49 0 23
+ 3.25104 1 0 sctp 56 -------S 0 1.0 0.0 1 17 66 65535 65535
- 3.25104 1 0 sctp 56 -------S 0 1.0 0.0 1 17 66 65535 65535
- 3.26704 0 1 sctp 1500 -------D 0 0.0 1.0 1 34 59 0 33
r 3.27504 0 1 sctp 1500 -------D 0 0.0 1.0 1 25 50 0 24
+ 3.27504 1 0 sctp 56 -------S 0 1.0 0.0 1 17 67 65535 65535
- 3.27504 1 0 sctp 56 -------S 0 1.0 0.0 1 17 67 65535 65535
- 3.29104 0 1 sctp 1500 -------D 0 0.0 1.0 1 35 60 0 34
r 3.29904 0 1 sctp 1500 -------D 0 0.0 1.0 1 26 51 0 25
+ 3.29904 1 0 sctp 56 -------S 0 1.0 0.0 1 17 68 65535 65535
- 3.29904 1 0 sctp 56 -------S 0 1.0 0.0 1 17 68 65535 65535
- 3.31504 0 1 sctp 1500 -------D 0 0.0 1.0 1 36 61 0 35
r 3.32304 0 1 sctp 1500 -------D 0 0.0 1.0 1 27 52 0 26
+ 3.32304 1 0 sctp 56 -------S 0 1.0 0.0 1 17 69 65535 65535
- 3.32304 1 0 sctp 56 -------S 0 1.0 0.0 1 17 69 65535 65535
- 3.33904 0 1 sctp 1500 -------D 0 0.0 1.0 1 37 62 0 36
r 3.34704 0 1 sctp 1500 -------D 0 0.0 1.0 1 28 53 0 27
+ 3.34704 1 0 sctp 56 -------S 0 1.0 0.0 1 17 70 65535 65535
- 3.34704 1 0 sctp 56 -------S 0 1.0 0.0 1 17 70 65535 65535
- 3.36304 0 1 sctp 1500 -------D 0 0.0 1.0 1 38 63 0 37
r 3.37104 0 1 sctp 1500 -------D 0 0.0 1.0 1 29 54 0 28
+ 3.37104 1 0 sctp 56 -------S 0 1.0 0.0 1 17 71 65535 65535
- 3.37104 1 0 sctp 56 -------S 0 1.0 0.0 1 17 71 65535 65535
r 3.39504 0 1 sctp 1500 -------D 0 0.0 1.0 1 30 55 0 29
+ 3.39504 1 0 sctp 56 -------S 0 1.0 0.0 1 17 72 65535 65535
- 3.39504 1 0 sctp 56 -------S 0 1.0 0.0 1 17 72 65535 65535
r 3.403936 1 0 sctp 56 -------S 0 1.0 0.0 1 17 64 65535 65535
+ 3.403936 0 1 sctp 1500 -------D 0 0.0 1.0 1 39 73 0 38
- 3.403936 0 1 sctp 1500 -------D 0 0.0 1.0 1 39 73 0 38
r 3.41904 0 1 sctp 1500 -------D 0 0.0 1.0 1 31 56 0 30
+ 3.41904 1 0 sctp 56 -------S 0 1.0 0.0 1 17 74 65535 65535
- 3.41904 1 0 sctp 56 -------S 0 1.0 0.0 1 17 74 65535 65535
r 3.427936 1 0 sctp 56 -------S 0 1.0 0.0 1 17 65 65535 65535
+ 3.427936 0 1 sctp 1500 -------D 0 0.0 1.0 1 18 75 0 17
- 3.427936 0 1 sctp 1500 -------D 0 0.0 1.0 1 18 75 0 17
r 3.44304 0 1 sctp 1500 -------D 0 0.0 1.0 1 32 57 0 31
+ 3.44304 1 0 sctp 56 -------S 0 1.0 0.0 1 17 76 65535 65535
- 3.44304 1 0 sctp 56 -------S 0 1.0 0.0 1 17 76 65535 65535
r 3.451936 1 0 sctp 56 -------S 0 1.0 0.0 1 17 66 65535 65535
+ 3.451936 0 1 sctp 1500 -------D 0 0.0 1.0 1 19 77 0 18
- 3.451936 0 1 sctp 1500 -------D 0 0.0 1.0 1 19 77 0 18
r 3.46704 0 1 sctp 1500 -------D 0 0.0 1.0 1 33 58 0 32
+ 3.46704 1 0 sctp 56 -------S 0 1.0 0.0 1 17 78 65535 65535
- 3.46704 1 0 sctp 56 -------S 0 1.0 0.0 1 17 78 65535 65535
r 3.475936 1 0 sctp 56 -------S 0 1.0 0.0 1 17 67 65535 65535
r 3.49104 0 1 sctp 1500 -------D 0 0.0 1.0 1 34 59 0 33
+ 3.49104 1 0 sctp 56 -------S 0 1.0 0.0 1 17 79 65535 65535
- 3.49104 1 0 sctp 56 -------S 0 1.0 0.0 1 17 79 65535 65535
r 3.499936 1 0 sctp 56 -------S 0 1.0 0.0 1 17 68 65535 65535
r 3.51504 0 1 sctp 1500 -------D 0 0.0 1.0 1 35 60 0 34
+ 3.51504 1 0 sctp 56 -------S 0 1.0 0.0 1 17 80 65535 65535
- 3.51504 1 0 sctp 56 -------S 0 1.0 0.0 1 17 80 65535 65535
r 3.523936 1 0 sctp 56 -------S 0 1.0 0.0 1 17 69 65535 65535
r 3.53904 0 1 sctp 1500 -------D 0 0.0 1.0 1 36 61 0 35
+ 3.53904 1 0 sctp 56 -------S 0 1.0 0.0 1 17 81 65535 65535
- 3.53904 1 0 sctp 56 -------S 0 1.0 0.0 1 17 81 65535 65535
r 3.547936 1 0 sctp 56 -------S 0 1.0 0.0 1 17 70 65535 65535
r 3.56304 0 1 sctp 1500 -------D 0 0.0 1.0 1 37 62 0 36
+ 3.56304 1 0 sctp 56 -------S 0 1.0 0.0 1 17 82 65535 65535
- 3.56304 1 0 sctp 56 -------S 0 1.0 0.0 1 17 82 65535 65535
r 3.571936 1 0 sctp 56 -------S 0 1.0 0.0 1 17 71 65535 65535
r 3.58704 0 1 sctp 1500 -------D 0 0.0 1.0 1 38 63 0 37
+ 3.58704 1 0 sctp 56 -------S 0 1.0 0.0 1 17 83 65535 65535
- 3.58704 1 0 sctp 56 -------S 0 1.0 0.0 1 17 83 65535 65535
r 3.595936 1 0 sctp 56 -------S 0 1.0 0.0 1 17 72 65535 65535
r 3.619936 1 0 sctp 56 -------S 0 1.0 0.0 1 17 74 65535 65535
r 3.627936 0 1 sctp 1500 -------D 0 0.0 1.0 1 39 73 0 38
+ 3.627936 1 0 sctp 56 -------S 0 1.0 0.0 1 17 84 65535 65535
- 3.627936 1 0 sctp 56 -------S 0 1.0 0.0 1 17 84 65535 65535
r 3.643936 1 0 sctp 56 -------S 0 1.0 0.0 1 17 76 65535 65535
+ 3.643936 0 1 sctp 1500 -------D 0 0.0 1.0 1 21 85 0 20
- 3.643936 0 1 sctp 1500 -------D 0 0.0 1.0 1 21 85 0 20
r 3.651936 0 1 sctp 1500 -------D 0 0.0 1.0 1 18 75 0 17
+ 3.651936 1 0 sctp 56 -------S 0 1.0 0.0 1 18 86 65535 65535
- 3.651936 1 0 sctp 56 -------S 0 1.0 0.0 1 18 86 65535 65535
r 3.667936 1 0 sctp 56 -------S 0 1.0 0.0 1 17 78 65535 65535
+ 3.667936 0 1 sctp 1500 -------D 0 0.0 1.0 1 40 87 0 39
- 3.667936 0 1 sctp 1500 -------D 0 0.0 1.0 1 40 87 0 39
r 3.675936 0 1 sctp 1500 -------D 0 0.0 1.0 1 19 77 0 18
+ 3.675936 1 0 sctp 52 -------S 0 1.0 0.0 1 20 88 65535 65535
- 3.675936 1 0 sctp 52 -------S 0 1.0 0.0 1 20 88 65535 65535
r 3.691936 1 0 sctp 56 -------S 0 1.0 0.0 1 17 79 65535 65535
+ 3.691936 0 1 sctp 1500 -------D 0 0.0 1.0 1 41 89 0 40
- 3.691936 0 1 sctp 1500 -------D 0 0.0 1.0 1 41 89 0 40
r 3.715936 1 0 sctp 56 -------S 0 1.0 0.0 1 17 80 65535 65535
+ 3.715936 0 1 sctp 1500 -------D 0 0.0 1.0 1 42 90 0 41
- 3.715936 0 1 sctp 1500 -------D 0 0.0 1.0 1 42 90 0 41
r 3.739936 1 0 sctp 56 -------S 0 1.0 0.0 1 17 81 65535 65535
+ 3.739936 0 1 sctp 1500 -------D 0 0.0 1.0 1 43 91 0 42
- 3.739936 0 1 sctp 1500 -------D 0 0.0 1.0 1 43 91 0 42
r 3.763936 1 0 sctp 56 -------S 0 1.0 0.0 1 17 82 65535 65535
+ 3.763936 0 1 sctp 1500 -------D 0 0.0 1.0 1 44 92 0 43
- 3.763936 0 1 sctp 1500 -------D 0 0.0 1.0 1 44 92 0 43
r 3.787936 1 0 sctp 56 -------S 0 1.0 0.0 1 17 83 65535 65535
+ 3.787936 0 1 sctp 1500 -------D 0 0.0 1.0 1 45 93 0 44
- 3.787936 0 1 sctp 1500 -------D 0 0.0 1.0 1 45 93 0 44
r 3.828832 1 0 sctp 56 -------S 0 1.0 0.0 1 17 84 65535 65535
+ 3.828832 0 1 sctp 1500 -------D 0 0.0 1.0 1 46 94 0 45
- 3.828832 0 1 sctp 1500 -------D 0 0.0 1.0 1 46 94 0 45
r 3.852832 1 0 sctp 56 -------S 0 1.0 0.0 1 18 86 65535 65535
+ 3.852832 0 1 sctp 1500 -------D 0 0.0 1.0 1 47 95 0 46
- 3.852832 0 1 sctp 1500 -------D 0 0.0 1.0 1 47 95 0 46
r 3.867936 0 1 sctp 1500 -------D 0 0.0 1.0 1 21 85 0 20
+ 3.867936 1 0 sctp 48 -------S 0 1.0 0.0 1 39 96 65535 65535
- 3.867936 1 0 sctp 48 -------S 0 1.0 0.0 1 39 96 65535 65535
r 3.876768 1 0 sctp 52 -------S 0 1.0 0.0 1 20 88 65535 65535
+ 3.876768 0 1 sctp 1500 -------D 0 0.0 1.0 1 48 97 0 47
- 3.876832 0 1 sctp 1500 -------D 0 0.0 1.0 1 48 97 0 47
r 3.891936 0 1 sctp 1500 -------D 0 0.0 1.0 1 40 87 0 39
+ 3.891936 1 0 sctp 48 -------S 0 1.0 0.0 1 40 98 65535 65535
- 3.891936 1 0 sctp 48 -------S 0 1.0 0.0 1 40 98 65535 65535
r 3.915936 0 1 sctp 1500 -------D 0 0.0 1.0 1 41 89 0 40
+ 3.915936 1 0 sctp 48 -------S 0 1.0 0.0 1 41 99 65535 65535
- 3.915936 1 0 sctp 48 -------S 0 1.0 0.0 1 41 99 65535 65535
r 3.939936 0 1 sctp 1500 -------D 0 0.0 1.0 1 42 90 0 41
+ 3.939936 1 0 sctp 48 -------S 0 1.0 0.0 1 42 100 65535 65535
- 3.939936 1 0 sctp 48 -------S 0 1.0 0.0 1 42 100 65535 65535
r 3.963936 0 1 sctp 1500 -------D 0 0.0 1.0 1 43 91 0 42
+ 3.963936 1 0 sctp 48 -------S 0 1.0 0.0 1 43 101 65535 65535
- 3.963936 1 0 sctp 48 -------S 0 1.0 0.0 1 43 101 65535 65535
r 3.987936 0 1 sctp 1500 -------D 0 0.0 1.0 1 44 92 0 43
+ 3.987936 1 0 sctp 48 -------S 0 1.0 0.0 1 44 102 65535 65535
- 3.987936 1 0 sctp 48 -------S 0 1.0 0.0 1 44 102 65535 65535
r 4.011936 0 1 sctp 1500 -------D 0 0.0 1.0 1 45 93 0 44
+ 4.011936 1 0 sctp 48 -------S 0 1.0 0.0 1 45 103 65535 65535
- 4.011936 1 0 sctp 48 -------S 0 1.0 0.0 1 45 103 65535 65535
r 4.052832 0 1 sctp 1500 -------D 0 0.0 1.0 1 46 94 0 45
+ 4.052832 1 0 sctp 48 -------S 0 1.0 0.0 1 46 104 65535 65535
- 4.052832 1 0 sctp 48 -------S 0 1.0 0.0 1 46 104 65535 65535
r 4.068704 1 0 sctp 48 -------S 0 1.0 0.0 1 39 96 65535 65535
+ 4.068704 0 1 sctp 1500 -------D 0 0.0 1.0 1 49 105 0 48
- 4.068704 0 1 sctp 1500 -------D 0 0.0 1.0 1 49 105 0 48
+ 4.068704 0 1 sctp 1500 -------D 0 0.0 1.0 1 50 106 0 49
r 4.076832 0 1 sctp 1500 -------D 0 0.0 1.0 1 47 95 0 46
+ 4.076832 1 0 sctp 48 -------S 0 1.0 0.0 1 47 107 65535 65535
- 4.076832 1 0 sctp 48 -------S 0 1.0 0.0 1 47 107 65535 65535
r 4.092704 1 0 sctp 48 -------S 0 1.0 0.0 1 40 98 65535 65535
+ 4.092704 0 1 sctp 1500 -------D 0 0.0 1.0 1 51 108 0 50
- 4.092704 0 1 sctp 1500 -------D 0 0.0 1.0 1 50 106 0 49
r 4.100832 0 1 sctp 1500 -------D 0 0.0 1.0 1 48 97 0 47
+ 4.100832 1 0 sctp 48 -------S 0 1.0 0.0 1 48 109 65535 65535
- 4.100832 1 0 sctp 48 -------S 0 1.0 0.0 1 48 109 65535 65535
r 4.116704 1 0 sctp 48 -------S 0 1.0 0.0 1 41 99 65535 65535
+ 4.116704 0 1 sctp 1500 -------D 0 0.0 1.0 1 52 110 0 51
- 4.116704 0 1 sctp 1500 -------D 0 0.0 1.0 1 51 108 0 50
r 4.140704 1 0 sctp 48 -------S 0 1.0 0.0 1 42 100 65535 65535
+ 4.140704 0 1 sctp 1500 -------D 0 0.0 1.0 1 53 111 0 52
- 4.140704 0 1 sctp 1500 -------D 0 0.0 1.0 1 52 110 0 51
r 4.164704 1 0 sctp 48 -------S 0 1.0 0.0 1 43 101 65535 65535
+ 4.164704 0 1 sctp 1500 -------D 0 0.0 1.0 1 54 112 0 53
- 4.164704 0 1 sctp 1500 -------D 0 0.0 1.0 1 53 111 0 52
r 4.188704 1 0 sctp 48 -------S 0 1.0 0.0 1 44 102 65535 65535
+ 4.188704 0 1 sctp 1500 -------D 0 0.0 1.0 1 55 113 0 54
- 4.188704 0 1 sctp 1500 -------D 0 0.0 1.0 1 54 112 0 53
r 4.212704 1 0 sctp 48 -------S 0 1.0 0.0 1 45 103 65535 65535
+ 4.212704 0 1 sctp 1500 -------D 0 0.0 1.0 1 56 114 0 55
- 4.212704 0 1 sctp 1500 -------D 0 0.0 1.0 1 55 113 0 54
- 4.236704 0 1 sctp 1500 -------D 0 0.0 1.0 1 56 114 0 55
r 4.2536 1 0 sctp 48 -------S 0 1.0 0.0 1 46 104 65535 65535
+ 4.2536 0 1 sctp 1500 -------D 0 0.0 1.0 1 57 115 0 56
- 4.260704 0 1 sctp 1500 -------D 0 0.0 1.0 1 57 115 0 56
r 4.2776 1 0 sctp 48 -------S 0 1.0 0.0 1 47 107 65535 65535
+ 4.2776 0 1 sctp 1500 -------D 0 0.0 1.0 1 58 116 0 57
- 4.284704 0 1 sctp 1500 -------D 0 0.0 1.0 1 58 116 0 57
r 4.292704 0 1 sctp 1500 -------D 0 0.0 1.0 1 49 105 0 48
+ 4.292704 1 0 sctp 48 -------S 0 1.0 0.0 1 49 117 65535 65535
- 4.292704 1 0 sctp 48 -------S 0 1.0 0.0 1 49 117 65535 65535
r 4.3016 1 0 sctp 48 -------S 0 1.0 0.0 1 48 109 65535 65535
+ 4.3016 0 1 sctp 1500 -------D 0 0.0 1.0 1 59 118 0 58
- 4.308704 0 1 sctp 1500 -------D 0 0.0 1.0 1 59 118 0 58
r 4.316704 0 1 sctp 1500 -------D 0 0.0 1.0 1 50 106 0 49
+ 4.316704 1 0 sctp 48 -------S 0 1.0 0.0 1 50 119 65535 65535
- 4.316704 1 0 sctp 48 -------S 0 1.0 0.0 1 50 119 65535 65535
r 4.340704 0 1 sctp 1500 -------D 0 0.0 1.0 1 51 108 0 50
+ 4.340704 1 0 sctp 48 -------S 0 1.0 0.0 1 51 120 65535 65535
- 4.340704 1 0 sctp 48 -------S 0 1.0 0.0 1 51 120 65535 65535
r 4.364704 0 1 sctp 1500 -------D 0 0.0 1.0 1 52 110 0 51
+ 4.364704 1 0 sctp 48 -------S 0 1.0 0.0 1 52 121 65535 65535
- 4.364704 1 0 sctp 48 -------S 0 1.0 0.0 1 52 121 65535 65535
r 4.388704 0 1 sctp 1500 -------D 0 0.0 1.0 1 53 111 0 52
+ 4.388704 1 0 sctp 48 -------S 0 1.0 0.0 1 53 122 65535 65535
- 4.388704 1 0 sctp 48 -------S 0 1.0 0.0 1 53 122 65535 65535
r 4.412704 0 1 sctp 1500 -------D 0 0.0 1.0 1 54 112 0 53
+ 4.412704 1 0 sctp 48 -------S 0 1.0 0.0 1 54 123 65535 65535
- 4.412704 1 0 sctp 48 -------S 0 1.0 0.0 1 54 123 65535 65535
r 4.436704 0 1 sctp 1500 -------D 0 0.0 1.0 1 55 113 0 54
+ 4.436704 1 0 sctp 48 -------S 0 1.0 0.0 1 55 124 65535 65535
- 4.436704 1 0 sctp 48 -------S 0 1.0 0.0 1 55 124 65535 65535
r 4.460704 0 1 sctp 1500 -------D 0 0.0 1.0 1 56 114 0 55
+ 4.460704 1 0 sctp 48 -------S 0 1.0 0.0 1 56 125 65535 65535
- 4.460704 1 0 sctp 48 -------S 0 1.0 0.0 1 56 125 65535 65535
r 4.484704 0 1 sctp 1500 -------D 0 0.0 1.0 1 57 115 0 56
+ 4.484704 1 0 sctp 48 -------S 0 1.0 0.0 1 57 126 65535 65535
- 4.484704 1 0 sctp 48 -------S 0 1.0 0.0 1 57 126 65535 65535
r 4.493472 1 0 sctp 48 -------S 0 1.0 0.0 1 49 117 65535 65535
+ 4.493472 0 1 sctp 1500 -------D 0 0.0 1.0 1 60 127 0 59
- 4.493472 0 1 sctp 1500 -------D 0 0.0 1.0 1 60 127 0 59
r 4.508704 0 1 sctp 1500 -------D 0 0.0 1.0 1 58 116 0 57
+ 4.508704 1 0 sctp 48 -------S 0 1.0 0.0 1 58 128 65535 65535
- 4.508704 1 0 sctp 48 -------S 0 1.0 0.0 1 58 128 65535 65535
r 4.517472 1 0 sctp 48 -------S 0 1.0 0.0 1 50 119 65535 65535
+ 4.517472 0 1 sctp 1500 -------D 0 0.0 1.0 1 61 129 0 60
+ 4.517472 0 1 sctp 1500 -------D 0 0.0 1.0 1 62 130 0 61
- 4.517472 0 1 sctp 1500 -------D 0 0.0 1.0 1 61 129 0 60
r 4.532704 0 1 sctp 1500 -------D 0 0.0 1.0 1 59 118 0 58
+ 4.532704 1 0 sctp 48 -------S 0 1.0 0.0 1 59 131 65535 65535
- 4.532704 1 0 sctp 48 -------S 0 1.0 0.0 1 59 131 65535 65535
r 4.541472 1 0 sctp 48 -------S 0 1.0 0.0 1 51 120 65535 65535
+ 4.541472 0 1 sctp 1500 -------D 0 0.0 1.0 1 63 132 0 62
- 4.541472 0 1 sctp 1500 -------D 0 0.0 1.0 1 62 130 0 61
r 4.565472 1 0 sctp 48 -------S 0 1.0 0.0 1 52 121 65535 65535
+ 4.565472 0 1 sctp 1500 -------D 0 0.0 1.0 1 64 133 0 63
- 4.565472 0 1 sctp 1500 -------D 0 0.0 1.0 1 63 132 0 62
r 4.589472 1 0 sctp 48 -------S 0 1.0 0.0 1 53 122 65535 65535
+ 4.589472 0 1 sctp 1500 -------D 0 0.0 1.0 1 65 134 0 64
- 4.589472 0 1 sctp 1500 -------D 0 0.0 1.0 1 64 133 0 63
r 4.613472 1 0 sctp 48 -------S 0 1.0 0.0 1 54 123 65535 65535
+ 4.613472 0 1 sctp 1500 -------D 0 0.0 1.0 1 66 135 0 65
- 4.613472 0 1 sctp 1500 -------D 0 0.0 1.0 1 65 134 0 64
r 4.637472 1 0 sctp 48 -------S 0 1.0 0.0 1 55 124 65535 65535
+ 4.637472 0 1 sctp 1500 -------D 0 0.0 1.0 1 67 136 0 66
- 4.637472 0 1 sctp 1500 -------D 0 0.0 1.0 1 66 135 0 65
r 4.661472 1 0 sctp 48 -------S 0 1.0 0.0 1 56 125 65535 65535
+ 4.661472 0 1 sctp 1500 -------D 0 0.0 1.0 1 68 137 0 67
- 4.661472 0 1 sctp 1500 -------D 0 0.0 1.0 1 67 136 0 66
r 4.685472 1 0 sctp 48 -------S 0 1.0 0.0 1 57 126 65535 65535
+ 4.685472 0 1 sctp 1500 -------D 0 0.0 1.0 1 69 138 0 68
- 4.685472 0 1 sctp 1500 -------D 0 0.0 1.0 1 68 137 0 67
r 4.709472 1 0 sctp 48 -------S 0 1.0 0.0 1 58 128 65535 65535
+ 4.709472 0 1 sctp 1500 -------D 0 0.0 1.0 1 70 139 0 69
- 4.709472 0 1 sctp 1500 -------D 0 0.0 1.0 1 69 138 0 68
r 4.717472 0 1 sctp 1500 -------D 0 0.0 1.0 1 60 127 0 59
+ 4.717472 1 0 sctp 48 -------S 0 1.0 0.0 1 60 140 65535 65535
- 4.717472 1 0 sctp 48 -------S 0 1.0 0.0 1 60 140 65535 65535
r 4.733472 1 0 sctp 48 -------S 0 1.0 0.0 1 59 131 65535 65535
+ 4.733472 0 1 sctp 1500 -------D 0 0.0 1.0 1 71 141 0 70
- 4.733472 0 1 sctp 1500 -------D 0 0.0 1.0 1 70 139 0 69
r 4.741472 0 1 sctp 1500 -------D 0 0.0 1.0 1 61 129 0 60
+ 4.741472 1 0 sctp 48 -------S 0 1.0 0.0 1 61 142 65535 65535
- 4.741472 1 0 sctp 48 -------S 0 1.0 0.0 1 61 142 65535 65535
- 4.757472 0 1 sctp 1500 -------D 0 0.0 1.0 1 71 141 0 70
r 4.765472 0 1 sctp 1500 -------D 0 0.0 1.0 1 62 130 0 61
+ 4.765472 1 0 sctp 48 -------S 0 1.0 0.0 1 62 143 65535 65535
- 4.765472 1 0 sctp 48 -------S 0 1.0 0.0 1 62 143 65535 65535
r 4.789472 0 1 sctp 1500 -------D 0 0.0 1.0 1 63 132 0 62
+ 4.789472 1 0 sctp 48 -------S 0 1.0 0.0 1 63 144 65535 65535
- 4.789472 1 0 sctp 48 -------S 0 1.0 0.0 1 63 144 65535 65535
r 4.813472 0 1 sctp 1500 -------D 0 0.0 1.0 1 64 133 0 63
+ 4.813472 1 0 sctp 48 -------S 0 1.0 0.0 1 64 145 65535 65535
- 4.813472 1 0 sctp 48 -------S 0 1.0 0.0 1 64 145 65535 65535
r 4.837472 0 1 sctp 1500 -------D 0 0.0 1.0 1 65 134 0 64
+ 4.837472 1 0 sctp 48 -------S 0 1.0 0.0 1 65 146 65535 65535
- 4.837472 1 0 sctp 48 -------S 0 1.0 0.0 1 65 146 65535 65535
r 4.861472 0 1 sctp 1500 -------D 0 0.0 1.0 1 66 135 0 65
+ 4.861472 1 0 sctp 48 -------S 0 1.0 0.0 1 66 147 65535 65535
- 4.861472 1 0 sctp 48 -------S 0 1.0 0.0 1 66 147 65535 65535
r 4.885472 0 1 sctp 1500 -------D 0 0.0 1.0 1 67 136 0 66
+ 4.885472 1 0 sctp 48 -------S 0 1.0 0.0 1 67 148 65535 65535
- 4.885472 1 0 sctp 48 -------S 0 1.0 0.0 1 67 148 65535 65535
r 4.909472 0 1 sctp 1500 -------D 0 0.0 1.0 1 68 137 0 67
+ 4.909472 1 0 sctp 48 -------S 0 1.0 0.0 1 68 149 65535 65535
- 4.909472 1 0 sctp 48 -------S 0 1.0 0.0 1 68 149 65535 65535
r 4.91824 1 0 sctp 48 -------S 0 1.0 0.0 1 60 140 65535 65535
+ 4.91824 0 1 sctp 1500 -------D 0 0.0 1.0 1 72 150 0 71
- 4.91824 0 1 sctp 1500 -------D 0 0.0 1.0 1 72 150 0 71
r 4.933472 0 1 sctp 1500 -------D 0 0.0 1.0 1 69 138 0 68
+ 4.933472 1 0 sctp 48 -------S 0 1.0 0.0 1 69 151 65535 65535
- 4.933472 1 0 sctp 48 -------S 0 1.0 0.0 1 69 151 65535 65535
r 4.94224 1 0 sctp 48 -------S 0 1.0 0.0 1 61 142 65535 65535
+ 4.94224 0 1 sctp 1500 -------D 0 0.0 1.0 1 73 152 0 72
- 4.94224 0 1 sctp 1500 -------D 0 0.0 1.0 1 73 152 0 72
r 4.957472 0 1 sctp 1500 -------D 0 0.0 1.0 1 70 139 0 69
+ 4.957472 1 0 sctp 48 -------S 0 1.0 0.0 1 70 153 65535 65535
- 4.957472 1 0 sctp 48 -------S 0 1.0 0.0 1 70 153 65535 65535
r 4.96624 1 0 sctp 48 -------S 0 1.0 0.0 1 62 143 65535 65535
+ 4.96624 0 1 sctp 1500 -------D 0 0.0 1.0 1 74 154 0 73
+ 4.96624 0 1 sctp 1500 -------D 0 0.0 1.0 1 75 155 0 74
- 4.96624 0 1 sctp 1500 -------D 0 0.0 1.0 1 74 154 0 73
r 4.981472 0 1 sctp 1500 -------D 0 0.0 1.0 1 71 141 0 70
+ 4.981472 1 0 sctp 48 -------S 0 1.0 0.0 1 71 156 65535 65535
- 4.981472 1 0 sctp 48 -------S 0 1.0 0.0 1 71 156 65535 65535
r 4.99024 1 0 sctp 48 -------S 0 1.0 0.0 1 63 144 65535 65535
+ 4.99024 0 1 sctp 1500 -------D 0 0.0 1.0 1 76 157 0 75
- 4.99024 0 1 sctp 1500 -------D 0 0.0 1.0 1 75 155 0 74
r 5.01424 1 0 sctp 48 -------S 0 1.0 0.0 1 64 145 65535 65535
+ 5.01424 0 1 sctp 1500 -------D 0 0.0 1.0 1 77 158 0 76
- 5.01424 0 1 sctp 1500 -------D 0 0.0 1.0 1 76 157 0 75
r 5.03824 1 0 sctp 48 -------S 0 1.0 0.0 1 65 146 65535 65535
+ 5.03824 0 1 sctp 1500 -------D 0 0.0 1.0 1 78 159 0 77
- 5.03824 0 1 sctp 1500 -------D 0 0.0 1.0 1 77 158 0 76
r 5.06224 1 0 sctp 48 -------S 0 1.0 0.0 1 66 147 65535 65535
+ 5.06224 0 1 sctp 1500 -------D 0 0.0 1.0 1 79 160 0 78
- 5.06224 0 1 sctp 1500 -------D 0 0.0 1.0 1 78 159 0 77
r 5.08624 1 0 sctp 48 -------S 0 1.0 0.0 1 67 148 65535 65535
+ 5.08624 0 1 sctp 1500 -------D 0 0.0 1.0 1 80 161 0 79
- 5.08624 0 1 sctp 1500 -------D 0 0.0 1.0 1 79 160 0 78
r 5.11024 1 0 sctp 48 -------S 0 1.0 0.0 1 68 149 65535 65535
+ 5.11024 0 1 sctp 1500 -------D 0 0.0 1.0 1 81 162 0 80
- 5.11024 0 1 sctp 1500 -------D 0 0.0 1.0 1 80 161 0 79
r 5.13424 1 0 sctp 48 -------S 0 1.0 0.0 1 69 151 65535 65535
+ 5.13424 0 1 sctp 1500 -------D 0 0.0 1.0 1 82 163 0 81
- 5.13424 0 1 sctp 1500 -------D 0 0.0 1.0 1 81 162 0 80
r 5.14224 0 1 sctp 1500 -------D 0 0.0 1.0 1 72 150 0 71
+ 5.14224 1 0 sctp 48 -------S 0 1.0 0.0 1 72 164 65535 65535
- 5.14224 1 0 sctp 48 -------S 0 1.0 0.0 1 72 164 65535 65535
r 5.15824 1 0 sctp 48 -------S 0 1.0 0.0 1 70 153 65535 65535
+ 5.15824 0 1 sctp 1500 -------D 0 0.0 1.0 1 83 165 0 82
- 5.15824 0 1 sctp 1500 -------D 0 0.0 1.0 1 82 163 0 81
r 5.16624 0 1 sctp 1500 -------D 0 0.0 1.0 1 73 152 0 72
+ 5.16624 1 0 sctp 48 -------S 0 1.0 0.0 1 73 166 65535 65535
- 5.16624 1 0 sctp 48 -------S 0 1.0 0.0 1 73 166 65535 65535
r 5.18224 1 0 sctp 48 -------S 0 1.0 0.0 1 71 156 65535 65535
+ 5.18224 0 1 sctp 1500 -------D 0 0.0 1.0 1 84 167 0 83
- 5.18224 0 1 sctp 1500 -------D 0 0.0 1.0 1 83 165 0 82
r 5.19024 0 1 sctp 1500 -------D 0 0.0 1.0 1 74 154 0 73
+ 5.19024 1 0 sctp 48 -------S 0 1.0 0.0 1 74 168 65535 65535
- 5.19024 1 0 sctp 48 -------S 0 1.0 0.0 1 74 168 65535 65535
- 5.20624 0 1 sctp 1500 -------D 0 0.0 1.0 1 84 167 0 83
r 5.21424 0 1 sctp 1500 -------D 0 0.0 1.0 1 75 155 0 74
+ 5.21424 1 0 sctp 48 -------S 0 1.0 0.0 1 75 169 65535 65535
- 5.21424 1 0 sctp 48 -------S 0 1.0 0.0 1 75 169 65535 65535
r 5.23824 0 1 sctp 1500 -------D 0 0.0 1.0 1 76 157 0 75
+ 5.23824 1 0 sctp 48 -------S 0 1.0 0.0 1 76 170 65535 65535
- 5.23824 1 0 sctp 48 -------S 0 1.0 0.0 1 76 170 65535 65535
r 5.26224 0 1 sctp 1500 -------D 0 0.0 1.0 1 77 158 0 76
+ 5.26224 1 0 sctp 48 -------S 0 1.0 0.0 1 77 171 65535 65535
- 5.26224 1 0 sctp 48 -------S 0 1.0 0.0 1 77 171 65535 65535
r 5.28624 0 1 sctp 1500 -------D 0 0.0 1.0 1 78 159 0 77
+ 5.28624 1 0 sctp 48 -------S 0 1.0 0.0 1 78 172 65535 65535
- 5.28624 1 0 sctp 48 -------S 0 1.0 0.0 1 78 172 65535 65535
r 5.31024 0 1 sctp 1500 -------D 0 0.0 1.0 1 79 160 0 78
+ 5.31024 1 0 sctp 48 -------S 0 1.0 0.0 1 79 173 65535 65535
- 5.31024 1 0 sctp 48 -------S 0 1.0 0.0 1 79 173 65535 65535
r 5.33424 0 1 sctp 1500 -------D 0 0.0 1.0 1 80 161 0 79
+ 5.33424 1 0 sctp 48 -------S 0 1.0 0.0 1 80 174 65535 65535
- 5.33424 1 0 sctp 48 -------S 0 1.0 0.0 1 80 174 65535 65535
r 5.343008 1 0 sctp 48 -------S 0 1.0 0.0 1 72 164 65535 65535
+ 5.343008 0 1 sctp 1500 -------D 0 0.0 1.0 1 85 175 0 84
- 5.343008 0 1 sctp 1500 -------D 0 0.0 1.0 1 85 175 0 84
r 5.35824 0 1 sctp 1500 -------D 0 0.0 1.0 1 81 162 0 80
+ 5.35824 1 0 sctp 48 -------S 0 1.0 0.0 1 81 176 65535 65535