+ 0 1 4 sctp 56 -------I 0 1.0 4.0 1 -1 4 65535 65535
- 0 1 4 sctp 56 -------I 0 1.0 4.0 1 -1 4 65535 65535
r 0.035045 1 4 sctp 56 -------I 0 1.0 4.0 1 -1 4 65535 65535
+ 0.035045 4 1 sctp 56 -------I 0 4.0 1.0 1 -1 5 65535 65535
- 0.035045 4 1 sctp 56 -------I 0 4.0 1.0 1 -1 5 65535 65535
r 0.07009 4 1 sctp 56 -------I 0 4.0 1.0 1 -1 5 65535 65535
+ 0.07009 1 4 sctp 36 -------I 0 1.0 4.0 1 -1 6 65535 65535
- 0.07009 1 4 sctp 36 -------I 0 1.0 4.0 1 -1 6 65535 65535
r 0.105118 1 4 sctp 36 -------I 0 1.0 4.0 1 -1 6 65535 65535
+ 0.105118 4 1 sctp 36 -------I 0 4.0 1.0 1 -1 7 65535 65535
- 0.105118 4 1 sctp 36 -------I 0 4.0 1.0 1 -1 7 65535 65535
r 0.140147 4 1 sctp 36 -------I 0 4.0 1.0 1 -1 7 65535 65535
+ 0.140147 1 4 sctp 56 -------H 0 1.0 4.0 1 -1 8 65535 65535
- 0.140147 1 4 sctp 56 -------H 0 1.0 4.0 1 -1 8 65535 65535
+ 0.140147 2 5 sctp 56 -------H 0 2.0 5.0 1 -1 9 65535 65535
- 0.140147 2 5 sctp 56 -------H 0 2.0 5.0 1 -1 9 65535 65535
r 0.175192 1 4 sctp 56 -------H 0 1.0 4.0 1 -1 8 65535 65535
+ 0.175192 4 1 sctp 56 -------B 0 4.0 1.0 1 -1 10 65535 65535
- 0.175192 4 1 sctp 56 -------B 0 4.0 1.0 1 -1 10 65535 65535
r 0.185192 2 5 sctp 56 -------H 0 2.0 5.0 1 -1 9 65535 65535
+ 0.185192 5 2 sctp 56 -------B 0 5.0 2.0 1 -1 11 65535 65535
- 0.185192 5 2 sctp 56 -------B 0 5.0 2.0 1 -1 11 65535 65535
r 0.210237 4 1 sctp 56 -------B 0 4.0 1.0 1 -1 10 65535 65535
r 0.230237 5 2 sctp 56 -------B 0 5.0 2.0 1 -1 11 65535 65535
+ 0.230237 1 4 sctp 1500 -------D 0 1.0 4.0 1 1 12 0 0
- 0.230237 1 4 sctp 1500 -------D 0 1.0 4.0 1 1 12 0 0
+ 0.230237 1 4 sctp 1500 -------D 0 1.0 4.0 1 2 13 0 1
+ 0.230237 1 4 sctp 1500 -------D 0 1.0 4.0 1 3 14 0 2
+ 0.230237 2 5 sctp 1500 -------D 0 2.0 5.0 1 4 15 0 3
- 0.230237 2 5 sctp 1500 -------D 0 2.0 5.0 1 4 15 0 3
+ 0.230237 2 5 sctp 1500 -------D 0 2.0 5.0 1 5 16 0 4
+ 0.230237 2 5 sctp 1500 -------D 0 2.0 5.0 1 6 17 0 5
- 0.231437 1 4 sctp 1500 -------D 0 1.0 4.0 1 2 13 0 1
- 0.231437 2 5 sctp 1500 -------D 0 2.0 5.0 1 5 16 0 4
- 0.232637 1 4 sctp 1500 -------D 0 1.0 4.0 1 3 14 0 2
- 0.232637 2 5 sctp 1500 -------D 0 2.0 5.0 1 6 17 0 5
r 0.266437 1 4 sctp 1500 -------D 0 1.0 4.0 1 1 12 0 0
r 0.267637 1 4 sctp 1500 -------D 0 1.0 4.0 1 2 13 0 1
+ 0.267637 4 1 sctp 48 -------S 0 4.0 1.0 1 2 18 65535 65535
- 0.267637 4 1 sctp 48 -------S 0 4.0 1.0 1 2 18 65535 65535
r 0.268837 1 4 sctp 1500 -------D 0 1.0 4.0 1 3 14 0 2
r 0.276437 2 5 sctp 1500 -------D 0 2.0 5.0 1 4 15 0 3
+ 0.276437 5 2 sctp 48 -------S 0 5.0 2.0 1 4 19 65535 65535
- 0.276437 5 2 sctp 48 -------S 0 5.0 2.0 1 4 19 65535 65535
r 0.277637 2 5 sctp 1500 -------D 0 2.0 5.0 1 5 16 0 4
r 0.278837 2 5 sctp 1500 -------D 0 2.0 5.0 1 6 17 0 5
+ 0.278837 5 2 sctp 48 -------S 0 5.0 2.0 1 6 20 65535 65535
- 0.278837 5 2 sctp 48 -------S 0 5.0 2.0 1 6 20 65535 65535
r 0.302675 4 1 sctp 48 -------S 0 4.0 1.0 1 2 18 65535 65535
+ 0.302675 1 4 sctp 1500 -------D 0 1.0 4.0 1 7 21 0 6
- 0.302675 1 4 sctp 1500 -------D 0 1.0 4.0 1 7 21 0 6
+ 0.302675 1 4 sctp 1500 -------D 0 1.0 4.0 1 8 22 0 7
+ 0.302675 1 4 sctp 1500 -------D 0 1.0 4.0 1 9 23 0 8
- 0.303875 1 4 sctp 1500 -------D 0 1.0 4.0 1 8 22 0 7
- 0.305075 1 4 sctp 1500 -------D 0 1.0 4.0 1 9 23 0 8
r 0.321475 5 2 sctp 48 -------S 0 5.0 2.0 1 4 19 65535 65535
+ 0.321475 2 5 sctp 1500 -------D 0 2.0 5.0 1 10 24 0 9
- 0.321475 2 5 sctp 1500 -------D 0 2.0 5.0 1 10 24 0 9
+ 0.321475 2 5 sctp 1500 -------D 0 2.0 5.0 1 11 25 0 10
+ 0.321475 1 4 sctp 1500 -------D 0 1.0 4.0 1 12 26 0 11
- 0.321475 1 4 sctp 1500 -------D 0 1.0 4.0 1 12 26 0 11
+ 0.321475 1 4 sctp 1500 -------D 0 1.0 4.0 1 13 27 0 12
- 0.322675 2 5 sctp 1500 -------D 0 2.0 5.0 1 11 25 0 10
- 0.322675 1 4 sctp 1500 -------D 0 1.0 4.0 1 13 27 0 12
r 0.323875 5 2 sctp 48 -------S 0 5.0 2.0 1 6 20 65535 65535
+ 0.323875 2 5 sctp 1500 -------D 0 2.0 5.0 1 14 28 0 13
- 0.323875 2 5 sctp 1500 -------D 0 2.0 5.0 1 14 28 0 13
+ 0.323875 2 5 sctp 1500 -------D 0 2.0 5.0 1 15 29 0 14
+ 0.323875 2 5 sctp 1500 -------D 0 2.0 5.0 1 16 30 0 15
- 0.325075 2 5 sctp 1500 -------D 0 2.0 5.0 1 15 29 0 14
- 0.326275 2 5 sctp 1500 -------D 0 2.0 5.0 1 16 30 0 15
r 0.338875 1 4 sctp 1500 -------D 0 1.0 4.0 1 7 21 0 6
r 0.340075 1 4 sctp 1500 -------D 0 1.0 4.0 1 8 22 0 7
+ 0.340075 4 1 sctp 48 -------S 0 4.0 1.0 1 8 31 65535 65535
- 0.340075 4 1 sctp 48 -------S 0 4.0 1.0 1 8 31 65535 65535
r 0.341275 1 4 sctp 1500 -------D 0 1.0 4.0 1 9 23 0 8
r 0.357675 1 4 sctp 1500 -------D 0 1.0 4.0 1 12 26 0 11
+ 0.357675 4 1 sctp 52 -------S 0 4.0 1.0 1 9 32 65535 65535
- 0.357675 4 1 sctp 52 -------S 0 4.0 1.0 1 9 32 65535 65535
r 0.358875 1 4 sctp 1500 -------D 0 1.0 4.0 1 13 27 0 12
r 0.367675 2 5 sctp 1500 -------D 0 2.0 5.0 1 10 24 0 9
+ 0.367675 5 2 sctp 52 -------S 0 5.0 2.0 1 10 33 65535 65535
- 0.367675 5 2 sctp 52 -------S 0 5.0 2.0 1 10 33 65535 65535
r 0.368875 2 5 sctp 1500 -------D 0 2.0 5.0 1 11 25 0 10
r 0.370075 2 5 sctp 1500 -------D 0 2.0 5.0 1 14 28 0 13
+ 0.370075 5 2 sctp 48 -------S 0 5.0 2.0 1 14 34 65535 65535
- 0.370075 5 2 sctp 48 -------S 0 5.0 2.0 1 14 34 65535 65535
r 0.371275 2 5 sctp 1500 -------D 0 2.0 5.0 1 15 29 0 14
r 0.372475 2 5 sctp 1500 -------D 0 2.0 5.0 1 16 30 0 15
+ 0.372475 5 2 sctp 48 -------S 0 5.0 2.0 1 16 35 65535 65535
- 0.372475 5 2 sctp 48 -------S 0 5.0 2.0 1 16 35 65535 65535
r 0.375114 4 1 sctp 48 -------S 0 4.0 1.0 1 8 31 65535 65535
+ 0.375114 1 4 sctp 1500 -------D 0 1.0 4.0 1 17 36 0 16
- 0.375114 1 4 sctp 1500 -------D 0 1.0 4.0 1 17 36 0 16
+ 0.375114 1 4 sctp 1500 -------D 0 1.0 4.0 1 18 37 0 17
+ 0.375114 1 4 sctp 1500 -------D 0 1.0 4.0 1 19 38 0 18
- 0.376314 1 4 sctp 1500 -------D 0 1.0 4.0 1 18 37 0 17
- 0.377514 1 4 sctp 1500 -------D 0 1.0 4.0 1 19 38 0 18
r 0.392717 4 1 sctp 52 -------S 0 4.0 1.0 1 9 32 65535 65535
+ 0.392717 1 4 sctp 1500 -------D 0 1.0 4.0 1 20 39 0 19
- 0.392717 1 4 sctp 1500 -------D 0 1.0 4.0 1 20 39 0 19
+ 0.392717 1 4 sctp 1500 -------D 0 1.0 4.0 1 21 40 0 20
+ 0.392717 1 4 sctp 1500 -------D 0 1.0 4.0 1 22 41 0 21
- 0.393917 1 4 sctp 1500 -------D 0 1.0 4.0 1 21 40 0 20
- 0.395117 1 4 sctp 1500 -------D 0 1.0 4.0 1 22 41 0 21
r 0.411314 1 4 sctp 1500 -------D 0 1.0 4.0 1 17 36 0 16
r 0.412514 1 4 sctp 1500 -------D 0 1.0 4.0 1 18 37 0 17
+ 0.412514 4 1 sctp 48 -------S 0 4.0 1.0 1 18 42 65535 65535
- 0.412514 4 1 sctp 48 -------S 0 4.0 1.0 1 18 42 65535 65535
r 0.412717 5 2 sctp 52 -------S 0 5.0 2.0 1 10 33 65535 65535
+ 0.412717 2 5 sctp 1500 -------D 0 2.0 5.0 1 23 43 0 22
- 0.412717 2 5 sctp 1500 -------D 0 2.0 5.0 1 23 43 0 22
+ 0.412717 2 5 sctp 1500 -------D 0 2.0 5.0 1 24 44 0 23
+ 0.412717 1 4 sctp 1500 -------D 0 1.0 4.0 1 25 45 0 24
- 0.412717 1 4 sctp 1500 -------D 0 1.0 4.0 1 25 45 0 24
+ 0.412717 1 4 sctp 1500 -------D 0 1.0 4.0 1 26 46 0 25
r 0.413714 1 4 sctp 1500 -------D 0 1.0 4.0 1 19 38 0 18
- 0.413917 2 5 sctp 1500 -------D 0 2.0 5.0 1 24 44 0 23
- 0.413917 1 4 sctp 1500 -------D 0 1.0 4.0 1 26 46 0 25
r 0.415114 5 2 sctp 48 -------S 0 5.0 2.0 1 14 34 65535 65535
+ 0.415114 2 5 sctp 1500 -------D 0 2.0 5.0 1 27 47 0 26
+ 0.415114 2 5 sctp 1500 -------D 0 2.0 5.0 1 28 48 0 27
+ 0.415114 2 5 sctp 1500 -------D 0 2.0 5.0 1 29 49 0 28
- 0.415117 2 5 sctp 1500 -------D 0 2.0 5.0 1 27 47 0 26
- 0.416317 2 5 sctp 1500 -------D 0 2.0 5.0 1 28 48 0 27
r 0.417514 5 2 sctp 48 -------S 0 5.0 2.0 1 16 35 65535 65535
+ 0.417514 2 5 sctp 1500 -------D 0 2.0 5.0 1 30 50 0 29
+ 0.417514 2 5 sctp 1500 -------D 0 2.0 5.0 1 31 51 0 30
+ 0.417514 2 5 sctp 1500 -------D 0 2.0 5.0 1 32 52 0 31
- 0.417517 2 5 sctp 1500 -------D 0 2.0 5.0 1 29 49 0 28
- 0.418717 2 5 sctp 1500 -------D 0 2.0 5.0 1 30 50 0 29
- 0.419917 2 5 sctp 1500 -------D 0 2.0 5.0 1 31 51 0 30
- 0.421117 2 5 sctp 1500 -------D 0 2.0 5.0 1 32 52 0 31
r 0.428917 1 4 sctp 1500 -------D 0 1.0 4.0 1 20 39 0 19
+ 0.428917 4 1 sctp 48 -------S 0 4.0 1.0 1 20 53 65535 65535
- 0.428917 4 1 sctp 48 -------S 0 4.0 1.0 1 20 53 65535 65535
r 0.430117 1 4 sctp 1500 -------D 0 1.0 4.0 1 21 40 0 20
r 0.431317 1 4 sctp 1500 -------D 0 1.0 4.0 1 22 41 0 21
+ 0.431317 4 1 sctp 48 -------S 0 4.0 1.0 1 22 54 65535 65535
- 0.431317 4 1 sctp 48 -------S 0 4.0 1.0 1 22 54 65535 65535
r 0.447552 4 1 sctp 48 -------S 0 4.0 1.0 1 18 42 65535 65535
+ 0.447552 1 4 sctp 1500 -------D 0 1.0 4.0 1 33 55 0 32
- 0.447552 1 4 sctp 1500 -------D 0 1.0 4.0 1 33 55 0 32
+ 0.447552 1 4 sctp 1500 -------D 0 1.0 4.0 1 34 56 0 33
+ 0.447552 1 4 sctp 1500 -------D 0 1.0 4.0 1 35 57 0 34
- 0.448752 1 4 sctp 1500 -------D 0 1.0 4.0 1 34 56 0 33
r 0.448917 1 4 sctp 1500 -------D 0 1.0 4.0 1 25 45 0 24
- 0.449952 1 4 sctp 1500 -------D 0 1.0 4.0 1 35 57 0 34
r 0.450117 1 4 sctp 1500 -------D 0 1.0 4.0 1 26 46 0 25
+ 0.450117 4 1 sctp 52 -------S 0 4.0 1.0 1 22 58 65535 65535
- 0.450117 4 1 sctp 52 -------S 0 4.0 1.0 1 22 58 65535 65535
r 0.458917 2 5 sctp 1500 -------D 0 2.0 5.0 1 23 43 0 22
r 0.460117 2 5 sctp 1500 -------D 0 2.0 5.0 1 24 44 0 23
+ 0.460117 5 2 sctp 48 -------S 0 5.0 2.0 1 26 59 65535 65535
- 0.460117 5 2 sctp 48 -------S 0 5.0 2.0 1 26 59 65535 65535
r 0.461317 2 5 sctp 1500 -------D 0 2.0 5.0 1 27 47 0 26
r 0.462517 2 5 sctp 1500 -------D 0 2.0 5.0 1 28 48 0 27
+ 0.462517 5 2 sctp 48 -------S 0 5.0 2.0 1 28 60 65535 65535
- 0.462517 5 2 sctp 48 -------S 0 5.0 2.0 1 28 60 65535 65535
r 0.463717 2 5 sctp 1500 -------D 0 2.0 5.0 1 29 49 0 28
r 0.463955 4 1 sctp 48 -------S 0 4.0 1.0 1 20 53 65535 65535
+ 0.463955 1 4 sctp 1500 -------D 0 1.0 4.0 1 36 61 0 35
- 0.463955 1 4 sctp 1500 -------D 0 1.0 4.0 1 36 61 0 35
+ 0.463955 1 4 sctp 1500 -------D 0 1.0 4.0 1 37 62 0 36
+ 0.463955 1 4 sctp 1500 -------D 0 1.0 4.0 1 38 63 0 37
r 0.464917 2 5 sctp 1500 -------D 0 2.0 5.0 1 30 50 0 29
+ 0.464917 5 2 sctp 48 -------S 0 5.0 2.0 1 30 64 65535 65535
- 0.464917 5 2 sctp 48 -------S 0 5.0 2.0 1 30 64 65535 65535
- 0.465155 1 4 sctp 1500 -------D 0 1.0 4.0 1 37 62 0 36
r 0.466117 2 5 sctp 1500 -------D 0 2.0 5.0 1 31 51 0 30
r 0.466355 4 1 sctp 48 -------S 0 4.0 1.0 1 22 54 65535 65535
+ 0.466355 1 4 sctp 1500 -------D 0 1.0 4.0 1 39 65 0 38
+ 0.466355 1 4 sctp 1500 -------D 0 1.0 4.0 1 40 66 0 39
+ 0.466355 1 4 sctp 1500 -------D 0 1.0 4.0 1 41 67 0 40
- 0.466355 1 4 sctp 1500 -------D 0 1.0 4.0 1 38 63 0 37
r 0.467317 2 5 sctp 1500 -------D 0 2.0 5.0 1 32 52 0 31
+ 0.467317 5 2 sctp 48 -------S 0 5.0 2.0 1 32 68 65535 65535
- 0.467317 5 2 sctp 48 -------S 0 5.0 2.0 1 32 68 65535 65535
- 0.467555 1 4 sctp 1500 -------D 0 1.0 4.0 1 39 65 0 38
- 0.468755 1 4 sctp 1500 -------D 0 1.0 4.0 1 40 66 0 39
- 0.469955 1 4 sctp 1500 -------D 0 1.0 4.0 1 41 67 0 40
r 0.483752 1 4 sctp 1500 -------D 0 1.0 4.0 1 33 55 0 32
r 0.484952 1 4 sctp 1500 -------D 0 1.0 4.0 1 34 56 0 33
+ 0.484952 4 1 sctp 48 -------S 0 4.0 1.0 1 34 69 65535 65535
- 0.484952 4 1 sctp 48 -------S 0 4.0 1.0 1 34 69 65535 65535
r 0.485158 4 1 sctp 52 -------S 0 4.0 1.0 1 22 58 65535 65535
+ 0.485158 1 4 sctp 1500 -------D 0 1.0 4.0 1 42 70 0 41
- 0.485158 1 4 sctp 1500 -------D 0 1.0 4.0 1 42 70 0 41
+ 0.485158 1 4 sctp 1500 -------D 0 1.0 4.0 1 43 71 0 42
r 0.486152 1 4 sctp 1500 -------D 0 1.0 4.0 1 35 57 0 34
- 0.486358 1 4 sctp 1500 -------D 0 1.0 4.0 1 43 71 0 42
r 0.500155 1 4 sctp 1500 -------D 0 1.0 4.0 1 36 61 0 35
+ 0.500155 4 1 sctp 48 -------S 0 4.0 1.0 1 36 72 65535 65535
- 0.500155 4 1 sctp 48 -------S 0 4.0 1.0 1 36 72 65535 65535
r 0.501355 1 4 sctp 1500 -------D 0 1.0 4.0 1 37 62 0 36
r 0.502555 1 4 sctp 1500 -------D 0 1.0 4.0 1 38 63 0 37
+ 0.502555 4 1 sctp 48 -------S 0 4.0 1.0 1 38 73 65535 65535
- 0.502555 4 1 sctp 48 -------S 0 4.0 1.0 1 38 73 65535 65535
r 0.503755 1 4 sctp 1500 -------D 0 1.0 4.0 1 39 65 0 38
r 0.504955 1 4 sctp 1500 -------D 0 1.0 4.0 1 40 66 0 39
+ 0.504955 4 1 sctp 48 -------S 0 4.0 1.0 1 40 74 65535 65535
- 0.504955 4 1 sctp 48 -------S 0 4.0 1.0 1 40 74 65535 65535
r 0.505155 5 2 sctp 48 -------S 0 5.0 2.0 1 26 59 65535 65535
+ 0.505155 2 5 sctp 1500 -------D 0 2.0 5.0 1 44 75 0 43
- 0.505155 2 5 sctp 1500 -------D 0 2.0 5.0 1 44 75 0 43
+ 0.505155 2 5 sctp 1500 -------D 0 2.0 5.0 1 45 76 0 44
+ 0.505155 2 5 sctp 1500 -------D 0 2.0 5.0 1 46 77 0 45
r 0.506155 1 4 sctp 1500 -------D 0 1.0 4.0 1 41 67 0 40
- 0.506355 2 5 sctp 1500 -------D 0 2.0 5.0 1 45 76 0 44
r 0.507555 5 2 sctp 48 -------S 0 5.0 2.0 1 28 60 65535 65535
+ 0.507555 2 5 sctp 1500 -------D 0 2.0 5.0 1 47 78 0 46
+ 0.507555 2 5 sctp 1500 -------D 0 2.0 5.0 1 48 79 0 47
+ 0.507555 2 5 sctp 1500 -------D 0 2.0 5.0 1 49 80 0 48
- 0.507555 2 5 sctp 1500 -------D 0 2.0 5.0 1 46 77 0 45
- 0.508755 2 5 sctp 1500 -------D 0 2.0 5.0 1 47 78 0 46
r 0.509955 5 2 sctp 48 -------S 0 5.0 2.0 1 30 64 65535 65535
+ 0.509955 2 5 sctp 1500 -------D 0 2.0 5.0 1 50 81 0 49
+ 0.509955 2 5 sctp 1500 -------D 0 2.0 5.0 1 51 82 0 50
+ 0.509955 2 5 sctp 1500 -------D 0 2.0 5.0 1 52 83 0 51
- 0.509955 2 5 sctp 1500 -------D 0 2.0 5.0 1 48 79 0 47
- 0.511155 2 5 sctp 1500 -------D 0 2.0 5.0 1 49 80 0 48
r 0.512355 5 2 sctp 48 -------S 0 5.0 2.0 1 32 68 65535 65535
+ 0.512355 2 5 sctp 1500 -------D 0 2.0 5.0 1 53 84 0 52
+ 0.512355 2 5 sctp 1500 -------D 0 2.0 5.0 1 54 85 0 53
- 0.512355 2 5 sctp 1500 -------D 0 2.0 5.0 1 50 81 0 49
- 0.513555 2 5 sctp 1500 -------D 0 2.0 5.0 1 51 82 0 50
- 0.514755 2 5 sctp 1500 -------D 0 2.0 5.0 1 52 83 0 51
- 0.515955 2 5 sctp 1500 -------D 0 2.0 5.0 1 53 84 0 52
- 0.517155 2 5 sctp 1500 -------D 0 2.0 5.0 1 54 85 0 53
r 0.51999 4 1 sctp 48 -------S 0 4.0 1.0 1 34 69 65535 65535
d 0.51999 1 4 sctp 1500 -------D 0 1.0 4.0 1 55 86 0 54
+ 0.51999 1 4 sctp 1500 -------D 0 1.0 4.0 1 56 87 0 55
- 0.51999 1 4 sctp 1500 -------D 0 1.0 4.0 1 56 87 0 55
r 0.521358 1 4 sctp 1500 -------D 0 1.0 4.0 1 42 70 0 41
+ 0.521358 4 1 sctp 48 -------S 0 4.0 1.0 1 42 88 65535 65535
- 0.521358 4 1 sctp 48 -------S 0 4.0 1.0 1 42 88 65535 65535
r 0.522558 1 4 sctp 1500 -------D 0 1.0 4.0 1 43 71 0 42
r 0.535194 4 1 sctp 48 -------S 0 4.0 1.0 1 36 72 65535 65535
+ 0.535194 1 4 sctp 1500 -------D 0 1.0 4.0 1 57 89 0 56
- 0.535194 1 4 sctp 1500 -------D 0 1.0 4.0 1 57 89 0 56
+ 0.535194 1 4 sctp 1500 -------D 0 1.0 4.0 1 58 90 0 57
- 0.536394 1 4 sctp 1500 -------D 0 1.0 4.0 1 58 90 0 57
r 0.537594 4 1 sctp 48 -------S 0 4.0 1.0 1 38 73 65535 65535
+ 0.537594 1 4 sctp 1500 -------D 0 1.0 4.0 1 59 91 0 58
+ 0.537594 1 4 sctp 1500 -------D 0 1.0 4.0 1 60 92 0 59
- 0.537594 1 4 sctp 1500 -------D 0 1.0 4.0 1 59 91 0 58
- 0.538794 1 4 sctp 1500 -------D 0 1.0 4.0 1 60 92 0 59
r 0.539994 4 1 sctp 48 -------S 0 4.0 1.0 1 40 74 65535 65535
+ 0.539994 1 4 sctp 1500 -------D 0 1.0 4.0 1 61 93 0 60
+ 0.539994 1 4 sctp 1500 -------D 0 1.0 4.0 1 62 94 0 61
- 0.539994 1 4 sctp 1500 -------D 0 1.0 4.0 1 61 93 0 60
- 0.541194 1 4 sctp 1500 -------D 0 1.0 4.0 1 62 94 0 61
r 0.551355 2 5 sctp 1500 -------D 0 2.0 5.0 1 44 75 0 43
+ 0.551355 5 2 sctp 48 -------S 0 5.0 2.0 1 44 95 65535 65535
- 0.551355 5 2 sctp 48 -------S 0 5.0 2.0 1 44 95 65535 65535
r 0.552555 2 5 sctp 1500 -------D 0 2.0 5.0 1 45 76 0 44
r 0.553755 2 5 sctp 1500 -------D 0 2.0 5.0 1 46 77 0 45
+ 0.553755 5 2 sctp 48 -------S 0 5.0 2.0 1 46 96 65535 65535
- 0.553755 5 2 sctp 48 -------S 0 5.0 2.0 1 46 96 65535 65535
r 0.554955 2 5 sctp 1500 -------D 0 2.0 5.0 1 47 78 0 46
r 0.556155 2 5 sctp 1500 -------D 0 2.0 5.0 1 48 79 0 47
+ 0.556155 5 2 sctp 48 -------S 0 5.0 2.0 1 48 97 65535 65535
- 0.556155 5 2 sctp 48 -------S 0 5.0 2.0 1 48 97 65535 65535
r 0.55619 1 4 sctp 1500 -------D 0 1.0 4.0 1 56 87 0 55
r 0.556397 4 1 sctp 48 -------S 0 4.0 1.0 1 42 88 65535 65535
+ 0.556397 1 4 sctp 1500 -------D 0 1.0 4.0 1 63 98 0 62
- 0.556397 1 4 sctp 1500 -------D 0 1.0 4.0 1 63 98 0 62
+ 0.556397 1 4 sctp 1500 -------D 0 1.0 4.0 1 64 99 0 63
+ 0.556397 1 4 sctp 1500 -------D 0 1.0 4.0 1 65 100 0 64
r 0.557355 2 5 sctp 1500 -------D 0 2.0 5.0 1 49 80 0 48
+ 0.557355 5 2 sctp 52 -------S 0 5.0 2.0 1 49 101 65535 65535
- 0.557355 5 2 sctp 52 -------S 0 5.0 2.0 1 49 101 65535 65535
- 0.557597 1 4 sctp 1500 -------D 0 1.0 4.0 1 64 99 0 63
r 0.558555 2 5 sctp 1500 -------D 0 2.0 5.0 1 50 81 0 49
- 0.558797 1 4 sctp 1500 -------D 0 1.0 4.0 1 65 100 0 64
r 0.559755 2 5 sctp 1500 -------D 0 2.0 5.0 1 51 82 0 50
+ 0.559755 5 2 sctp 52 -------S 0 5.0 2.0 1 51 102 65535 65535
- 0.559755 5 2 sctp 52 -------S 0 5.0 2.0 1 51 102 65535 65535
r 0.560955 2 5 sctp 1500 -------D 0 2.0 5.0 1 52 83 0 51
r 0.562155 2 5 sctp 1500 -------D 0 2.0 5.0 1 53 84 0 52
+ 0.562155 5 2 sctp 52 -------S 0 5.0 2.0 1 53 103 65535 65535
- 0.562155 5 2 sctp 52 -------S 0 5.0 2.0 1 53 103 65535 65535
r 0.563355 2 5 sctp 1500 -------D 0 2.0 5.0 1 54 85 0 53
r 0.571394 1 4 sctp 1500 -------D 0 1.0 4.0 1 57 89 0 56
+ 0.571394 4 1 sctp 52 -------S 0 4.0 1.0 1 54 104 65535 65535
- 0.571394 4 1 sctp 52 -------S 0 4.0 1.0 1 54 104 65535 65535
r 0.572594 1 4 sctp 1500 -------D 0 1.0 4.0 1 58 90 0 57
r 0.573794 1 4 sctp 1500 -------D 0 1.0 4.0 1 59 91 0 58
+ 0.573794 4 1 sctp 52 -------S 0 4.0 1.0 1 54 105 65535 65535
- 0.573794 4 1 sctp 52 -------S 0 4.0 1.0 1 54 105 65535 65535
r 0.574994 1 4 sctp 1500 -------D 0 1.0 4.0 1 60 92 0 59
r 0.576194 1 4 sctp 1500 -------D 0 1.0 4.0 1 61 93 0 60
+ 0.576194 4 1 sctp 52 -------S 0 4.0 1.0 1 54 106 65535 65535
- 0.576194 4 1 sctp 52 -------S 0 4.0 1.0 1 54 106 65535 65535
r 0.577394 1 4 sctp 1500 -------D 0 1.0 4.0 1 62 94 0 61
r 0.592597 1 4 sctp 1500 -------D 0 1.0 4.0 1 63 98 0 62
+ 0.592597 4 1 sctp 52 -------S 0 4.0 1.0 1 54 107 65535 65535
- 0.592597 4 1 sctp 52 -------S 0 4.0 1.0 1 54 107 65535 65535
r 0.593797 1 4 sctp 1500 -------D 0 1.0 4.0 1 64 99 0 63
r 0.594997 1 4 sctp 1500 -------D 0 1.0 4.0 1 65 100 0 64
+ 0.594997 4 1 sctp 52 -------S 0 4.0 1.0 1 54 108 65535 65535
- 0.594997 4 1 sctp 52 -------S 0 4.0 1.0 1 54 108 65535 65535
r 0.596394 5 2 sctp 48 -------S 0 5.0 2.0 1 44 95 65535 65535
+ 0.596394 2 5 sctp 1500 -------D 0 2.0 5.0 1 66 109 0 65
- 0.596394 2 5 sctp 1500 -------D 0 2.0 5.0 1 66 109 0 65
+ 0.596394 1 4 sctp 1500 -------D 0 1.0 4.0 1 67 110 0 66
- 0.596394 1 4 sctp 1500 -------D 0 1.0 4.0 1 67 110 0 66
r 0.598794 5 2 sctp 48 -------S 0 5.0 2.0 1 46 96 65535 65535
+ 0.598794 2 5 sctp 1500 -------D 0 2.0 5.0 1 68 111 0 67
- 0.598794 2 5 sctp 1500 -------D 0 2.0 5.0 1 68 111 0 67
+ 0.598794 2 5 sctp 1500 -------D 0 2.0 5.0 1 69 112 0 68
- 0.599994 2 5 sctp 1500 -------D 0 2.0 5.0 1 69 112 0 68
r 0.601194 5 2 sctp 48 -------S 0 5.0 2.0 1 48 97 65535 65535
+ 0.601194 2 5 sctp 1500 -------D 0 2.0 5.0 1 70 113 0 69
+ 0.601194 2 5 sctp 1500 -------D 0 2.0 5.0 1 71 114 0 70
- 0.601194 2 5 sctp 1500 -------D 0 2.0 5.0 1 70 113 0 69
- 0.602394 2 5 sctp 1500 -------D 0 2.0 5.0 1 71 114 0 70
r 0.602397 5 2 sctp 52 -------S 0 5.0 2.0 1 49 101 65535 65535
+ 0.602397 1 4 sctp 1500 -------D 0 1.0 4.0 1 72 115 0 71
- 0.602397 1 4 sctp 1500 -------D 0 1.0 4.0 1 72 115 0 71
+ 0.602397 2 5 sctp 1500 -------D 0 2.0 5.0 1 73 116 0 72
- 0.603594 2 5 sctp 1500 -------D 0 2.0 5.0 1 73 116 0 72
r 0.604797 5 2 sctp 52 -------S 0 5.0 2.0 1 51 102 65535 65535
+ 0.604797 2 5 sctp 1500 -------D 0 2.0 5.0 1 74 117 0 73
- 0.604797 2 5 sctp 1500 -------D 0 2.0 5.0 1 74 117 0 73
+ 0.604797 2 5 sctp 1500 -------D 0 2.0 5.0 1 75 118 0 74
- 0.605997 2 5 sctp 1500 -------D 0 2.0 5.0 1 75 118 0 74
r 0.606435 4 1 sctp 52 -------S 0 4.0 1.0 1 54 104 65535 65535
+ 0.606435 2 5 sctp 1500 -------D 0 2.0 5.0 1 55 119 0 54
+ 0.606435 2 5 sctp 1500 -------D 0 2.0 5.0 1 76 120 0 75
+ 0.606435 2 5 sctp 1500 -------D 0 2.0 5.0 1 77 121 0 76
+ 0.606435 2 5 sctp 1500 -------D 0 2.0 5.0 1 78 122 0 77
r 0.607197 5 2 sctp 52 -------S 0 5.0 2.0 1 53 103 65535 65535
- 0.607197 2 5 sctp 1500 -------D 0 2.0 5.0 1 55 119 0 54
- 0.608397 2 5 sctp 1500 -------D 0 2.0 5.0 1 76 120 0 75
r 0.608835 4 1 sctp 52 -------S 0 4.0 1.0 1 54 105 65535 65535
- 0.609597 2 5 sctp 1500 -------D 0 2.0 5.0 1 77 121 0 76
- 0.610797 2 5 sctp 1500 -------D 0 2.0 5.0 1 78 122 0 77
r 0.611235 4 1 sctp 52 -------S 0 4.0 1.0 1 54 106 65535 65535
+ 0.611235 1 4 sctp 1500 -------D 0 1.0 4.0 1 79 123 0 78
- 0.611235 1 4 sctp 1500 -------D 0 1.0 4.0 1 79 123 0 78
r 0.627638 4 1 sctp 52 -------S 0 4.0 1.0 1 54 107 65535 65535
+ 0.627638 1 4 sctp 1500 -------D 0 1.0 4.0 1 80 124 0 79
- 0.627638 1 4 sctp 1500 -------D 0 1.0 4.0 1 80 124 0 79
+ 0.627638 1 4 sctp 1500 -------D 0 1.0 4.0 1 81 125 0 80
- 0.628838 1 4 sctp 1500 -------D 0 1.0 4.0 1 81 125 0 80
r 0.630038 4 1 sctp 52 -------S 0 4.0 1.0 1 54 108 65535 65535
+ 0.630038 1 4 sctp 1500 -------D 0 1.0 4.0 1 82 126 0 81
+ 0.630038 1 4 sctp 1500 -------D 0 1.0 4.0 1 83 127 0 82
- 0.630038 1 4 sctp 1500 -------D 0 1.0 4.0 1 82 126 0 81
- 0.631238 1 4 sctp 1500 -------D 0 1.0 4.0 1 83 127 0 82
r 0.632594 1 4 sctp 1500 -------D 0 1.0 4.0 1 67 110 0 66
r 0.638597 1 4 sctp 1500 -------D 0 1.0 4.0 1 72 115 0 71
+ 0.638597 4 1 sctp 60 -------S 0 4.0 1.0 1 54 128 65535 65535
- 0.638597 4 1 sctp 60 -------S 0 4.0 1.0 1 54 128 65535 65535
r 0.642594 2 5 sctp 1500 -------D 0 2.0 5.0 1 66 109 0 65
r 0.644994 2 5 sctp 1500 -------D 0 2.0 5.0 1 68 111 0 67
+ 0.644994 5 2 sctp 56 -------S 0 5.0 2.0 1 54 129 65535 65535
- 0.644994 5 2 sctp 56 -------S 0 5.0 2.0 1 54 129 65535 65535
r 0.646194 2 5 sctp 1500 -------D 0 2.0 5.0 1 69 112 0 68
r 0.647394 2 5 sctp 1500 -------D 0 2.0 5.0 1 70 113 0 69
+ 0.647394 5 2 sctp 56 -------S 0 5.0 2.0 1 54 130 65535 65535
- 0.647394 5 2 sctp 56 -------S 0 5.0 2.0 1 54 130 65535 65535
r 0.647435 1 4 sctp 1500 -------D 0 1.0 4.0 1 79 123 0 78
r 0.648594 2 5 sctp 1500 -------D 0 2.0 5.0 1 71 114 0 70
+ 0.648594 5 2 sctp 56 -------S 0 5.0 2.0 1 54 131 65535 65535
- 0.648594 5 2 sctp 56 -------S 0 5.0 2.0 1 54 131 65535 65535
r 0.649794 2 5 sctp 1500 -------D 0 2.0 5.0 1 73 116 0 72
r 0.650997 2 5 sctp 1500 -------D 0 2.0 5.0 1 74 117 0 73
+ 0.650997 5 2 sctp 56 -------S 0 5.0 2.0 1 54 132 65535 65535
- 0.650997 5 2 sctp 56 -------S 0 5.0 2.0 1 54 132 65535 65535
r 0.652197 2 5 sctp 1500 -------D 0 2.0 5.0 1 75 118 0 74
r 0.653397 2 5 sctp 1500 -------D 0 2.0 5.0 1 55 119 0 54
+ 0.653397 5 2 sctp 52 -------S 0 5.0 2.0 1 75 133 65535 65535
- 0.653397 5 2 sctp 52 -------S 0 5.0 2.0 1 75 133 65535 65535
r 0.654597 2 5 sctp 1500 -------D 0 2.0 5.0 1 76 120 0 75
r 0.655797 2 5 sctp 1500 -------D 0 2.0 5.0 1 77 121 0 76
+ 0.655797 5 2 sctp 52 -------S 0 5.0 2.0 1 77 134 65535 65535
- 0.655797 5 2 sctp 52 -------S 0 5.0 2.0 1 77 134 65535 65535
r 0.656997 2 5 sctp 1500 -------D 0 2.0 5.0 1 78 122 0 77
r 0.663838 1 4 sctp 1500 -------D 0 1.0 4.0 1 80 124 0 79
+ 0.663838 4 1 sctp 48 -------S 0 4.0 1.0 1 80 135 65535 65535
- 0.663838 4 1 sctp 48 -------S 0 4.0 1.0 1 80 135 65535 65535
r 0.665038 1 4 sctp 1500 -------D 0 1.0 4.0 1 81 125 0 80
r 0.666238 1 4 sctp 1500 -------D 0 1.0 4.0 1 82 126 0 81
+ 0.666238 4 1 sctp 48 -------S 0 4.0 1.0 1 82 136 65535 65535
- 0.666238 4 1 sctp 48 -------S 0 4.0 1.0 1 82 136 65535 65535
r 0.667438 1 4 sctp 1500 -------D 0 1.0 4.0 1 83 127 0 82
r 0.673645 4 1 sctp 60 -------S 0 4.0 1.0 1 54 128 65535 65535
+ 0.673645 1 4 sctp 1500 -------D 0 1.0 4.0 1 84 137 0 83
- 0.673645 1 4 sctp 1500 -------D 0 1.0 4.0 1 84 137 0 83
+ 0.673645 1 4 sctp 1500 -------D 0 1.0 4.0 1 85 138 0 84
+ 0.673645 1 4 sctp 1500 -------D 0 1.0 4.0 1 86 139 0 85
- 0.674845 1 4 sctp 1500 -------D 0 1.0 4.0 1 85 138 0 84
- 0.676045 1 4 sctp 1500 -------D 0 1.0 4.0 1 86 139 0 85
r 0.690038 5 2 sctp 56 -------S 0 5.0 2.0 1 54 129 65535 65535
+ 0.690038 2 5 sctp 1500 -------D 0 2.0 5.0 1 87 140 0 86
- 0.690038 2 5 sctp 1500 -------D 0 2.0 5.0 1 87 140 0 86
+ 0.690038 2 5 sctp 1500 -------D 0 2.0 5.0 1 88 141 0 87
- 0.691238 2 5 sctp 1500 -------D 0 2.0 5.0 1 88 141 0 87
r 0.692438 5 2 sctp 56 -------S 0 5.0 2.0 1 54 130 65535 65535
+ 0.692438 2 5 sctp 1500 -------D 0 2.0 5.0 1 89 142 0 88
+ 0.692438 2 5 sctp 1500 -------D 0 2.0 5.0 1 90 143 0 89
- 0.692438 2 5 sctp 1500 -------D 0 2.0 5.0 1 89 142 0 88
r 0.693638 5 2 sctp 56 -------S 0 5.0 2.0 1 54 131 65535 65535
+ 0.693638 1 4 sctp 1500 -------D 0 1.0 4.0 1 91 144 0 90
- 0.693638 1 4 sctp 1500 -------D 0 1.0 4.0 1 91 144 0 90
+ 0.693638 2 5 sctp 1500 -------D 0 2.0 5.0 1 92 145 0 91
- 0.693638 2 5 sctp 1500 -------D 0 2.0 5.0 1 90 143 0 89
- 0.694838 2 5 sctp 1500 -------D 0 2.0 5.0 1 92 145 0 91
r 0.696042 5 2 sctp 56 -------S 0 5.0 2.0 1 54 132 65535 65535
+ 0.696042 2 5 sctp 1500 -------D 0 2.0 5.0 1 93 146 0 92
- 0.696042 2 5 sctp 1500 -------D 0 2.0 5.0 1 93 146 0 92
+ 0.696042 2 5 sctp 1500 -------D 0 2.0 5.0 1 94 147 0 93
- 0.697242 2 5 sctp 1500 -------D 0 2.0 5.0 1 94 147 0 93
r 0.698438 5 2 sctp 52 -------S 0 5.0 2.0 1 75 133 65535 65535
+ 0.698438 2 5 sctp 1500 -------D 0 2.0 5.0 1 95 148 0 94
+ 0.698438 2 5 sctp 1500 -------D 0 2.0 5.0 1 96 149 0 95
- 0.698442 2 5 sctp 1500 -------D 0 2.0 5.0 1 95 148 0 94
r 0.698877 4 1 sctp 48 -------S 0 4.0 1.0 1 80 135 65535 65535
+ 0.698877 1 4 sctp 1500 -------D 0 1.0 4.0 1 97 150 0 96
- 0.698877 1 4 sctp 1500 -------D 0 1.0 4.0 1 97 150 0 96
+ 0.698877 2 5 sctp 1500 -------D 0 2.0 5.0 1 98 151 0 97
+ 0.698877 2 5 sctp 1500 -------D 0 2.0 5.0 1 99 152 0 98
+ 0.698877 2 5 sctp 1500 -------D 0 2.0 5.0 1 100 153 0 99
+ 0.698877 2 5 sctp 1500 -------D 0 2.0 5.0 1 101 154 0 100
- 0.699642 2 5 sctp 1500 -------D 0 2.0 5.0 1 96 149 0 95
r 0.700838 5 2 sctp 52 -------S 0 5.0 2.0 1 77 134 65535 65535
- 0.700842 2 5 sctp 1500 -------D 0 2.0 5.0 1 98 151 0 97
r 0.701277 4 1 sctp 48 -------S 0 4.0 1.0 1 82 136 65535 65535
+ 0.701277 1 4 sctp 1500 -------D 0 1.0 4.0 1 102 155 0 101
- 0.701277 1 4 sctp 1500 -------D 0 1.0 4.0 1 102 155 0 101
+ 0.701277 1 4 sctp 1500 -------D 0 1.0 4.0 1 103 156 0 102
- 0.702042 2 5 sctp 1500 -------D 0 2.0 5.0 1 99 152 0 98
- 0.702477 1 4 sctp 1500 -------D 0 1.0 4.0 1 103 156 0 102
- 0.703242 2 5 sctp 1500 -------D 0 2.0 5.0 1 100 153 0 99
- 0.704442 2 5 sctp 1500 -------D 0 2.0 5.0 1 101 154 0 100
r 0.709845 1 4 sctp 1500 -------D 0 1.0 4.0 1 84 137 0 83
+ 0.709845 4 1 sctp 48 -------S 0 4.0 1.0 1 84 157 65535 65535
- 0.709845 4 1 sctp 48 -------S 0 4.0 1.0 1 84 157 65535 65535
r 0.711045 1 4 sctp 1500 -------D 0 1.0 4.0 1 85 138 0 84
r 0.712245 1 4 sctp 1500 -------D 0 1.0 4.0 1 86 139 0 85
+ 0.712245 4 1 sctp 48 -------S 0 4.0 1.0 1 86 158 65535 65535
- 0.712245 4 1 sctp 48 -------S 0 4.0 1.0 1 86 158 65535 65535
r 0.729838 1 4 sctp 1500 -------D 0 1.0 4.0 1 91 144 0 90
r 0.735077 1 4 sctp 1500 -------D 0 1.0 4.0 1 97 150 0 96
+ 0.735077 4 1 sctp 56 -------S 0 4.0 1.0 1 86 159 65535 65535
- 0.735077 4 1 sctp 56 -------S 0 4.0 1.0 1 86 159 65535 65535
r 0.736238 2 5 sctp 1500 -------D 0 2.0 5.0 1 87 140 0 86
r 0.737438 2 5 sctp 1500 -------D 0 2.0 5.0 1 88 141 0 87
+ 0.737438 5 2 sctp 56 -------S 0 5.0 2.0 1 88 160 65535 65535
- 0.737438 5 2 sctp 56 -------S 0 5.0 2.0 1 88 160 65535 65535
r 0.737477 1 4 sctp 1500 -------D 0 1.0 4.0 1 102 155 0 101
r 0.738638 2 5 sctp 1500 -------D 0 2.0 5.0 1 89 142 0 88
+ 0.738638 5 2 sctp 60 -------S 0 5.0 2.0 1 89 161 65535 65535
- 0.738638 5 2 sctp 60 -------S 0 5.0 2.0 1 89 161 65535 65535
r 0.738677 1 4 sctp 1500 -------D 0 1.0 4.0 1 103 156 0 102
r 0.739838 2 5 sctp 1500 -------D 0 2.0 5.0 1 90 143 0 89
+ 0.739838 5 2 sctp 56 -------S 0 5.0 2.0 1 91 162 65535 65535
- 0.739838 5 2 sctp 56 -------S 0 5.0 2.0 1 91 162 65535 65535
r 0.741038 2 5 sctp 1500 -------D 0 2.0 5.0 1 92 145 0 91
r 0.742242 2 5 sctp 1500 -------D 0 2.0 5.0 1 93 146 0 92
+ 0.742242 5 2 sctp 56 -------S 0 5.0 2.0 1 93 163 65535 65535
- 0.742242 5 2 sctp 56 -------S 0 5.0 2.0 1 93 163 65535 65535
r 0.743442 2 5 sctp 1500 -------D 0 2.0 5.0 1 94 147 0 93
r 0.744642 2 5 sctp 1500 -------D 0 2.0 5.0 1 95 148 0 94
+ 0.744642 5 2 sctp 56 -------S 0 5.0 2.0 1 95 164 65535 65535
- 0.744642 5 2 sctp 56 -------S 0 5.0 2.0 1 95 164 65535 65535
r 0.744883 4 1 sctp 48 -------S 0 4.0 1.0 1 84 157 65535 65535
+ 0.744883 1 4 sctp 1500 -------D 0 1.0 4.0 1 104 165 0 103
- 0.744883 1 4 sctp 1500 -------D 0 1.0 4.0 1 104 165 0 103
+ 0.744883 1 4 sctp 1500 -------D 0 1.0 4.0 1 105 166 0 104
r 0.745842 2 5 sctp 1500 -------D 0 2.0 5.0 1 96 149 0 95
- 0.746083 1 4 sctp 1500 -------D 0 1.0 4.0 1 105 166 0 104
r 0.747042 2 5 sctp 1500 -------D 0 2.0 5.0 1 98 151 0 97
+ 0.747042 5 2 sctp 52 -------S 0 5.0 2.0 1 98 167 65535 65535
- 0.747042 5 2 sctp 52 -------S 0 5.0 2.0 1 98 167 65535 65535
r 0.747283 4 1 sctp 48 -------S 0 4.0 1.0 1 86 158 65535 65535
+ 0.747283 1 4 sctp 1500 -------D 0 1.0 4.0 1 106 168 0 105
+ 0.747283 1 4 sctp 1500 -------D 0 1.0 4.0 1 107 169 0 106
+ 0.747283 1 4 sctp 1500 -------D 0 1.0 4.0 1 108 170 0 107
- 0.747283 1 4 sctp 1500 -------D 0 1.0 4.0 1 106 168 0 105
r 0.748242 2 5 sctp 1500 -------D 0 2.0 5.0 1 99 152 0 98
- 0.748483 1 4 sctp 1500 -------D 0 1.0 4.0 1 107 169 0 106
r 0.749442 2 5 sctp 1500 -------D 0 2.0 5.0 1 100 153 0 99
+ 0.749442 5 2 sctp 52 -------S 0 5.0 2.0 1 100 171 65535 65535
- 0.749442 5 2 sctp 52 -------S 0 5.0 2.0 1 100 171 65535 65535
- 0.749683 1 4 sctp 1500 -------D 0 1.0 4.0 1 108 170 0 107
r 0.750642 2 5 sctp 1500 -------D 0 2.0 5.0 1 101 154 0 100
r 0.770122 4 1 sctp 56 -------S 0 4.0 1.0 1 86 159 65535 65535
+ 0.770122 1 4 sctp 1500 -------D 0 1.0 4.0 1 109 172 0 108
- 0.770122 1 4 sctp 1500 -------D 0 1.0 4.0 1 109 172 0 108
+ 0.770122 1 4 sctp 1500 -------D 0 1.0 4.0 1 110 173 0 109
- 0.771322 1 4 sctp 1500 -------D 0 1.0 4.0 1 110 173 0 109
r 0.781083 1 4 sctp 1500 -------D 0 1.0 4.0 1 104 165 0 103
+ 0.781083 4 1 sctp 48 -------S 0 4.0 1.0 1 104 174 65535 65535
- 0.781083 4 1 sctp 48 -------S 0 4.0 1.0 1 104 174 65535 65535
r 0.782283 1 4 sctp 1500 -------D 0 1.0 4.0 1 105 166 0 104
r 0.782483 5 2 sctp 56 -------S 0 5.0 2.0 1 88 160 65535 65535
+ 0.782483 2 5 sctp 1500 -------D 0 2.0 5.0 1 111 175 0 110
- 0.782483 2 5 sctp 1500 -------D 0 2.0 5.0 1 111 175 0 110
+ 0.782483 2 5 sctp 1500 -------D 0 2.0 5.0 1 112 176 0 111
r 0.783483 1 4 sctp 1500 -------D 0 1.0 4.0 1 106 168 0 105
+ 0.783483 4 1 sctp 48 -------S 0 4.0 1.0 1 106 177 65535 65535
- 0.783483 4 1 sctp 48 -------S 0 4.0 1.0 1 106 177 65535 65535
- 0.783683 2 5 sctp 1500 -------D 0 2.0 5.0 1 112 176 0 111
r 0.783686 5 2 sctp 60 -------S 0 5.0 2.0 1 89 161 65535 65535