+ 0.5 1 4 sctp 56 -------I 0 1.0 4.0 1 -1 4 65535 65535
- 0.5 1 4 sctp 56 -------I 0 1.0 4.0 1 -1 4 65535 65535
r 0.700896 1 4 sctp 56 -------I 0 1.0 4.0 1 -1 4 65535 65535
+ 0.700896 4 1 sctp 56 -------I 0 4.0 1.0 1 -1 5 65535 65535
- 0.700896 4 1 sctp 56 -------I 0 4.0 1.0 1 -1 5 65535 65535
r 0.901792 4 1 sctp 56 -------I 0 4.0 1.0 1 -1 5 65535 65535
+ 0.901792 1 4 sctp 36 -------I 0 1.0 4.0 1 -1 6 65535 65535
- 0.901792 1 4 sctp 36 -------I 0 1.0 4.0 1 -1 6 65535 65535
r 1.102368 1 4 sctp 36 -------I 0 1.0 4.0 1 -1 6 65535 65535
+ 1.102368 4 1 sctp 36 -------I 0 4.0 1.0 1 -1 7 65535 65535
- 1.102368 4 1 sctp 36 -------I 0 4.0 1.0 1 -1 7 65535 65535
r 1.302944 4 1 sctp 36 -------I 0 4.0 1.0 1 -1 7 65535 65535
+ 1.302944 1 4 sctp 56 -------H 0 1.0 4.0 1 -1 8 65535 65535
- 1.302944 1 4 sctp 56 -------H 0 1.0 4.0 1 -1 8 65535 65535
+ 1.302944 2 5 sctp 56 -------H 0 2.0 5.0 1 -1 9 65535 65535
- 1.302944 2 5 sctp 56 -------H 0 2.0 5.0 1 -1 9 65535 65535
r 1.50384 1 4 sctp 56 -------H 0 1.0 4.0 1 -1 8 65535 65535
+ 1.50384 4 1 sctp 56 -------B 0 4.0 1.0 1 -1 10 65535 65535
- 1.50384 4 1 sctp 56 -------B 0 4.0 1.0 1 -1 10 65535 65535
r 1.50384 2 5 sctp 56 -------H 0 2.0 5.0 1 -1 9 65535 65535
+ 1.50384 5 2 sctp 56 -------B 0 5.0 2.0 1 -1 11 65535 65535
- 1.50384 5 2 sctp 56 -------B 0 5.0 2.0 1 -1 11 65535 65535
r 1.704736 4 1 sctp 56 -------B 0 4.0 1.0 1 -1 10 65535 65535
r 1.704736 5 2 sctp 56 -------B 0 5.0 2.0 1 -1 11 65535 65535
+ 1.704736 1 4 sctp 1500 -------D 0 1.0 4.0 1 1 12 0 0
- 1.704736 1 4 sctp 1500 -------D 0 1.0 4.0 1 1 12 0 0
+ 1.704736 1 4 sctp 1500 -------D 0 1.0 4.0 1 2 13 0 1
+ 1.704736 1 4 sctp 1500 -------D 0 1.0 4.0 1 3 14 0 2
- 1.728736 1 4 sctp 1500 -------D 0 1.0 4.0 1 2 13 0 1
- 1.752736 1 4 sctp 1500 -------D 0 1.0 4.0 1 3 14 0 2
r 1.928736 1 4 sctp 1500 -------D 0 1.0 4.0 1 1 12 0 0
+ 1.928736 4 1 sctp 48 -------S 0 4.0 1.0 1 1 15 65535 65535
- 1.928736 4 1 sctp 48 -------S 0 4.0 1.0 1 1 15 65535 65535
r 1.952736 1 4 sctp 1500 -------D 0 1.0 4.0 1 2 13 0 1
r 1.976736 1 4 sctp 1500 -------D 0 1.0 4.0 1 3 14 0 2
+ 1.976736 4 1 sctp 48 -------S 0 4.0 1.0 1 3 16 65535 65535
- 1.976736 4 1 sctp 48 -------S 0 4.0 1.0 1 3 16 65535 65535
r 2.129504 4 1 sctp 48 -------S 0 4.0 1.0 1 1 15 65535 65535
+ 2.129504 1 4 sctp 1500 -------D 0 1.0 4.0 1 4 17 0 3
- 2.129504 1 4 sctp 1500 -------D 0 1.0 4.0 1 4 17 0 3
+ 2.129504 1 4 sctp 1500 -------D 0 1.0 4.0 1 5 18 0 4
- 2.153504 1 4 sctp 1500 -------D 0 1.0 4.0 1 5 18 0 4
r 2.177504 4 1 sctp 48 -------S 0 4.0 1.0 1 3 16 65535 65535
+ 2.177504 1 4 sctp 1500 -------D 0 1.0 4.0 1 6 19 0 5
+ 2.177504 1 4 sctp 1500 -------D 0 1.0 4.0 1 7 20 0 6
+ 2.177504 1 4 sctp 1500 -------D 0 1.0 4.0 1 8 21 0 7
- 2.177504 1 4 sctp 1500 -------D 0 1.0 4.0 1 6 19 0 5
- 2.201504 1 4 sctp 1500 -------D 0 1.0 4.0 1 7 20 0 6
- 2.225504 1 4 sctp 1500 -------D 0 1.0 4.0 1 8 21 0 7
r 2.353504 1 4 sctp 1500 -------D 0 1.0 4.0 1 4 17 0 3
r 2.377504 1 4 sctp 1500 -------D 0 1.0 4.0 1 5 18 0 4
+ 2.377504 4 1 sctp 48 -------S 0 4.0 1.0 1 5 22 65535 65535
- 2.377504 4 1 sctp 48 -------S 0 4.0 1.0 1 5 22 65535 65535
r 2.401504 1 4 sctp 1500 -------D 0 1.0 4.0 1 6 19 0 5
r 2.425504 1 4 sctp 1500 -------D 0 1.0 4.0 1 7 20 0 6
+ 2.425504 4 1 sctp 48 -------S 0 4.0 1.0 1 7 23 65535 65535
- 2.425504 4 1 sctp 48 -------S 0 4.0 1.0 1 7 23 65535 65535
r 2.449504 1 4 sctp 1500 -------D 0 1.0 4.0 1 8 21 0 7
r 2.578272 4 1 sctp 48 -------S 0 4.0 1.0 1 5 22 65535 65535
+ 2.578272 1 4 sctp 1500 -------D 0 1.0 4.0 1 9 24 0 8
- 2.578272 1 4 sctp 1500 -------D 0 1.0 4.0 1 9 24 0 8
+ 2.578272 1 4 sctp 1500 -------D 0 1.0 4.0 1 10 25 0 9
+ 2.578272 1 4 sctp 1500 -------D 0 1.0 4.0 1 11 26 0 10
- 2.602272 1 4 sctp 1500 -------D 0 1.0 4.0 1 10 25 0 9
r 2.626272 4 1 sctp 48 -------S 0 4.0 1.0 1 7 23 65535 65535
+ 2.626272 1 4 sctp 1500 -------D 0 1.0 4.0 1 12 27 0 11
+ 2.626272 1 4 sctp 1500 -------D 0 1.0 4.0 1 13 28 0 12
d 2.626272 1 4 sctp 1500 -------D 0 1.0 4.0 1 14 29 0 13
- 2.626272 1 4 sctp 1500 -------D 0 1.0 4.0 1 11 26 0 10
+ 2.649504 4 1 sctp 48 -------S 0 4.0 1.0 1 8 30 65535 65535
- 2.649504 4 1 sctp 48 -------S 0 4.0 1.0 1 8 30 65535 65535
- 2.650272 1 4 sctp 1500 -------D 0 1.0 4.0 1 12 27 0 11
- 2.674272 1 4 sctp 1500 -------D 0 1.0 4.0 1 13 28 0 12
r 2.802272 1 4 sctp 1500 -------D 0 1.0 4.0 1 9 24 0 8
r 2.826272 1 4 sctp 1500 -------D 0 1.0 4.0 1 10 25 0 9
+ 2.826272 4 1 sctp 48 -------S 0 4.0 1.0 1 10 31 65535 65535
- 2.826272 4 1 sctp 48 -------S 0 4.0 1.0 1 10 31 65535 65535
r 2.850272 1 4 sctp 1500 -------D 0 1.0 4.0 1 11 26 0 10
r 2.850272 4 1 sctp 48 -------S 0 4.0 1.0 1 8 30 65535 65535
+ 2.850272 1 4 sctp 1500 -------D 0 1.0 4.0 1 15 32 0 14
- 2.850272 1 4 sctp 1500 -------D 0 1.0 4.0 1 15 32 0 14
+ 2.850272 1 4 sctp 1500 -------D 0 1.0 4.0 1 16 33 0 15
r 2.874272 1 4 sctp 1500 -------D 0 1.0 4.0 1 12 27 0 11
+ 2.874272 4 1 sctp 48 -------S 0 4.0 1.0 1 12 34 65535 65535
- 2.874272 4 1 sctp 48 -------S 0 4.0 1.0 1 12 34 65535 65535
- 2.874272 1 4 sctp 1500 -------D 0 1.0 4.0 1 16 33 0 15
r 2.898272 1 4 sctp 1500 -------D 0 1.0 4.0 1 13 28 0 12
r 3.02704 4 1 sctp 48 -------S 0 4.0 1.0 1 10 31 65535 65535
+ 3.02704 1 4 sctp 1500 -------D 0 1.0 4.0 1 17 35 0 16
- 3.02704 1 4 sctp 1500 -------D 0 1.0 4.0 1 17 35 0 16
+ 3.02704 1 4 sctp 1500 -------D 0 1.0 4.0 1 18 36 0 17
+ 3.02704 1 4 sctp 1500 -------D 0 1.0 4.0 1 19 37 0 18
- 3.05104 1 4 sctp 1500 -------D 0 1.0 4.0 1 18 36 0 17
r 3.074272 1 4 sctp 1500 -------D 0 1.0 4.0 1 15 32 0 14
+ 3.074272 4 1 sctp 52 -------S 0 4.0 1.0 1 13 38 65535 65535
- 3.074272 4 1 sctp 52 -------S 0 4.0 1.0 1 13 38 65535 65535
r 3.07504 4 1 sctp 48 -------S 0 4.0 1.0 1 12 34 65535 65535
+ 3.07504 1 4 sctp 1500 -------D 0 1.0 4.0 1 20 39 0 19
+ 3.07504 1 4 sctp 1500 -------D 0 1.0 4.0 1 21 40 0 20
+ 3.07504 1 4 sctp 1500 -------D 0 1.0 4.0 1 22 41 0 21
- 3.07504 1 4 sctp 1500 -------D 0 1.0 4.0 1 19 37 0 18
r 3.098272 1 4 sctp 1500 -------D 0 1.0 4.0 1 16 33 0 15
+ 3.098272 4 1 sctp 52 -------S 0 4.0 1.0 1 13 42 65535 65535
- 3.098272 4 1 sctp 52 -------S 0 4.0 1.0 1 13 42 65535 65535
- 3.09904 1 4 sctp 1500 -------D 0 1.0 4.0 1 20 39 0 19
- 3.12304 1 4 sctp 1500 -------D 0 1.0 4.0 1 21 40 0 20
- 3.14704 1 4 sctp 1500 -------D 0 1.0 4.0 1 22 41 0 21
r 3.25104 1 4 sctp 1500 -------D 0 1.0 4.0 1 17 35 0 16
+ 3.25104 4 1 sctp 52 -------S 0 4.0 1.0 1 13 43 65535 65535
- 3.25104 4 1 sctp 52 -------S 0 4.0 1.0 1 13 43 65535 65535
r 3.27504 1 4 sctp 1500 -------D 0 1.0 4.0 1 18 36 0 17
+ 3.27504 4 1 sctp 52 -------S 0 4.0 1.0 1 13 44 65535 65535
- 3.27504 4 1 sctp 52 -------S 0 4.0 1.0 1 13 44 65535 65535
r 3.275104 4 1 sctp 52 -------S 0 4.0 1.0 1 13 38 65535 65535
+ 3.275104 1 4 sctp 1500 -------D 0 1.0 4.0 1 23 45 0 22
- 3.275104 1 4 sctp 1500 -------D 0 1.0 4.0 1 23 45 0 22
+ 3.275104 1 4 sctp 1500 -------D 0 1.0 4.0 1 24 46 0 23
+ 3.275104 1 4 sctp 1500 -------D 0 1.0 4.0 1 25 47 0 24
r 3.29904 1 4 sctp 1500 -------D 0 1.0 4.0 1 19 37 0 18
+ 3.29904 4 1 sctp 52 -------S 0 4.0 1.0 1 13 48 65535 65535
- 3.29904 4 1 sctp 52 -------S 0 4.0 1.0 1 13 48 65535 65535
r 3.299104 4 1 sctp 52 -------S 0 4.0 1.0 1 13 42 65535 65535
+ 3.299104 1 4 sctp 1500 -------D 0 1.0 4.0 1 26 49 0 25
- 3.299104 1 4 sctp 1500 -------D 0 1.0 4.0 1 24 46 0 23
r 3.32304 1 4 sctp 1500 -------D 0 1.0 4.0 1 20 39 0 19
+ 3.32304 4 1 sctp 52 -------S 0 4.0 1.0 1 13 50 65535 65535
- 3.32304 4 1 sctp 52 -------S 0 4.0 1.0 1 13 50 65535 65535
- 3.323104 1 4 sctp 1500 -------D 0 1.0 4.0 1 25 47 0 24
r 3.34704 1 4 sctp 1500 -------D 0 1.0 4.0 1 21 40 0 20
+ 3.34704 4 1 sctp 52 -------S 0 4.0 1.0 1 13 51 65535 65535
- 3.34704 4 1 sctp 52 -------S 0 4.0 1.0 1 13 51 65535 65535
- 3.347104 1 4 sctp 1500 -------D 0 1.0 4.0 1 26 49 0 25
r 3.37104 1 4 sctp 1500 -------D 0 1.0 4.0 1 22 41 0 21
+ 3.37104 4 1 sctp 52 -------S 0 4.0 1.0 1 13 52 65535 65535
- 3.37104 4 1 sctp 52 -------S 0 4.0 1.0 1 13 52 65535 65535
r 3.451872 4 1 sctp 52 -------S 0 4.0 1.0 1 13 43 65535 65535
d 3.451872 1 4 sctp 1500 -------D 0 1.0 4.0 1 14 53 0 13
r 3.475872 4 1 sctp 52 -------S 0 4.0 1.0 1 13 44 65535 65535
r 3.499104 1 4 sctp 1500 -------D 0 1.0 4.0 1 23 45 0 22
+ 3.499104 4 1 sctp 52 -------S 0 4.0 1.0 1 13 54 65535 65535
- 3.499104 4 1 sctp 52 -------S 0 4.0 1.0 1 13 54 65535 65535
r 3.499872 4 1 sctp 52 -------S 0 4.0 1.0 1 13 48 65535 65535
r 3.523104 1 4 sctp 1500 -------D 0 1.0 4.0 1 24 46 0 23
+ 3.523104 4 1 sctp 52 -------S 0 4.0 1.0 1 13 55 65535 65535
- 3.523104 4 1 sctp 52 -------S 0 4.0 1.0 1 13 55 65535 65535
r 3.523872 4 1 sctp 52 -------S 0 4.0 1.0 1 13 50 65535 65535
r 3.547104 1 4 sctp 1500 -------D 0 1.0 4.0 1 25 47 0 24
+ 3.547104 4 1 sctp 52 -------S 0 4.0 1.0 1 13 56 65535 65535
- 3.547104 4 1 sctp 52 -------S 0 4.0 1.0 1 13 56 65535 65535
r 3.547872 4 1 sctp 52 -------S 0 4.0 1.0 1 13 51 65535 65535
r 3.571104 1 4 sctp 1500 -------D 0 1.0 4.0 1 26 49 0 25
+ 3.571104 4 1 sctp 52 -------S 0 4.0 1.0 1 13 57 65535 65535
- 3.571104 4 1 sctp 52 -------S 0 4.0 1.0 1 13 57 65535 65535
r 3.571872 4 1 sctp 52 -------S 0 4.0 1.0 1 13 52 65535 65535
+ 3.571872 1 4 sctp 1500 -------D 0 1.0 4.0 1 27 58 0 26
- 3.571872 1 4 sctp 1500 -------D 0 1.0 4.0 1 27 58 0 26
r 3.699936 4 1 sctp 52 -------S 0 4.0 1.0 1 13 54 65535 65535
+ 3.699936 1 4 sctp 1500 -------D 0 1.0 4.0 1 28 59 0 27
- 3.699936 1 4 sctp 1500 -------D 0 1.0 4.0 1 28 59 0 27
r 3.723936 4 1 sctp 52 -------S 0 4.0 1.0 1 13 55 65535 65535
+ 3.723936 1 4 sctp 1500 -------D 0 1.0 4.0 1 29 60 0 28
- 3.723936 1 4 sctp 1500 -------D 0 1.0 4.0 1 29 60 0 28
r 3.747936 4 1 sctp 52 -------S 0 4.0 1.0 1 13 56 65535 65535
+ 3.747936 1 4 sctp 1500 -------D 0 1.0 4.0 1 30 61 0 29
- 3.747936 1 4 sctp 1500 -------D 0 1.0 4.0 1 30 61 0 29
r 3.771936 4 1 sctp 52 -------S 0 4.0 1.0 1 13 57 65535 65535
+ 3.771936 1 4 sctp 1500 -------D 0 1.0 4.0 1 31 62 0 30
- 3.771936 1 4 sctp 1500 -------D 0 1.0 4.0 1 31 62 0 30
r 3.795872 1 4 sctp 1500 -------D 0 1.0 4.0 1 27 58 0 26
+ 3.795872 4 1 sctp 52 -------S 0 4.0 1.0 1 13 63 65535 65535
- 3.795872 4 1 sctp 52 -------S 0 4.0 1.0 1 13 63 65535 65535
r 3.923936 1 4 sctp 1500 -------D 0 1.0 4.0 1 28 59 0 27
+ 3.923936 4 1 sctp 52 -------S 0 4.0 1.0 1 13 64 65535 65535
- 3.923936 4 1 sctp 52 -------S 0 4.0 1.0 1 13 64 65535 65535
r 3.947936 1 4 sctp 1500 -------D 0 1.0 4.0 1 29 60 0 28
+ 3.947936 4 1 sctp 52 -------S 0 4.0 1.0 1 13 65 65535 65535
- 3.947936 4 1 sctp 52 -------S 0 4.0 1.0 1 13 65 65535 65535
r 3.971936 1 4 sctp 1500 -------D 0 1.0 4.0 1 30 61 0 29
+ 3.971936 4 1 sctp 52 -------S 0 4.0 1.0 1 13 66 65535 65535
- 3.971936 4 1 sctp 52 -------S 0 4.0 1.0 1 13 66 65535 65535
r 3.995936 1 4 sctp 1500 -------D 0 1.0 4.0 1 31 62 0 30
+ 3.995936 4 1 sctp 52 -------S 0 4.0 1.0 1 13 67 65535 65535
- 3.995936 4 1 sctp 52 -------S 0 4.0 1.0 1 13 67 65535 65535
r 3.996704 4 1 sctp 52 -------S 0 4.0 1.0 1 13 63 65535 65535
+ 3.996704 1 4 sctp 1500 -------D 0 1.0 4.0 1 32 68 0 31
- 3.996704 1 4 sctp 1500 -------D 0 1.0 4.0 1 32 68 0 31
r 4.124768 4 1 sctp 52 -------S 0 4.0 1.0 1 13 64 65535 65535
+ 4.124768 1 4 sctp 1500 -------D 0 1.0 4.0 1 33 69 0 32
- 4.124768 1 4 sctp 1500 -------D 0 1.0 4.0 1 33 69 0 32
r 4.148768 4 1 sctp 52 -------S 0 4.0 1.0 1 13 65 65535 65535
+ 4.148768 1 4 sctp 1500 -------D 0 1.0 4.0 1 34 70 0 33
- 4.148768 1 4 sctp 1500 -------D 0 1.0 4.0 1 34 70 0 33
r 4.172768 4 1 sctp 52 -------S 0 4.0 1.0 1 13 66 65535 65535
+ 4.172768 1 4 sctp 1500 -------D 0 1.0 4.0 1 35 71 0 34
- 4.172768 1 4 sctp 1500 -------D 0 1.0 4.0 1 35 71 0 34
r 4.196768 4 1 sctp 52 -------S 0 4.0 1.0 1 13 67 65535 65535
+ 4.196768 1 4 sctp 1500 -------D 0 1.0 4.0 1 36 72 0 35
- 4.196768 1 4 sctp 1500 -------D 0 1.0 4.0 1 36 72 0 35
r 4.220704 1 4 sctp 1500 -------D 0 1.0 4.0 1 32 68 0 31
+ 4.220704 4 1 sctp 52 -------S 0 4.0 1.0 1 13 73 65535 65535
- 4.220704 4 1 sctp 52 -------S 0 4.0 1.0 1 13 73 65535 65535
r 4.348768 1 4 sctp 1500 -------D 0 1.0 4.0 1 33 69 0 32
+ 4.348768 4 1 sctp 52 -------S 0 4.0 1.0 1 13 74 65535 65535
- 4.348768 4 1 sctp 52 -------S 0 4.0 1.0 1 13 74 65535 65535
r 4.372768 1 4 sctp 1500 -------D 0 1.0 4.0 1 34 70 0 33
+ 4.372768 4 1 sctp 52 -------S 0 4.0 1.0 1 13 75 65535 65535
- 4.372768 4 1 sctp 52 -------S 0 4.0 1.0 1 13 75 65535 65535
r 4.396768 1 4 sctp 1500 -------D 0 1.0 4.0 1 35 71 0 34
+ 4.396768 4 1 sctp 52 -------S 0 4.0 1.0 1 13 76 65535 65535
- 4.396768 4 1 sctp 52 -------S 0 4.0 1.0 1 13 76 65535 65535
r 4.420768 1 4 sctp 1500 -------D 0 1.0 4.0 1 36 72 0 35
+ 4.420768 4 1 sctp 52 -------S 0 4.0 1.0 1 13 77 65535 65535
- 4.420768 4 1 sctp 52 -------S 0 4.0 1.0 1 13 77 65535 65535
r 4.421536 4 1 sctp 52 -------S 0 4.0 1.0 1 13 73 65535 65535
+ 4.421536 1 4 sctp 1500 -------D 0 1.0 4.0 1 37 78 0 36
- 4.421536 1 4 sctp 1500 -------D 0 1.0 4.0 1 37 78 0 36
+ 4.451872 1 4 sctp 1500 -------D 0 1.0 4.0 1 14 79 0 13
- 4.451872 1 4 sctp 1500 -------D 0 1.0 4.0 1 14 79 0 13
r 4.5496 4 1 sctp 52 -------S 0 4.0 1.0 1 13 74 65535 65535
r 4.5736 4 1 sctp 52 -------S 0 4.0 1.0 1 13 75 65535 65535
r 4.5976 4 1 sctp 52 -------S 0 4.0 1.0 1 13 76 65535 65535
r 4.6216 4 1 sctp 52 -------S 0 4.0 1.0 1 13 77 65535 65535
r 4.645536 1 4 sctp 1500 -------D 0 1.0 4.0 1 37 78 0 36
+ 4.645536 4 1 sctp 52 -------S 0 4.0 1.0 1 13 80 65535 65535
- 4.645536 4 1 sctp 52 -------S 0 4.0 1.0 1 13 80 65535 65535
r 4.675872 1 4 sctp 1500 -------D 0 1.0 4.0 1 14 79 0 13
r 4.846368 4 1 sctp 52 -------S 0 4.0 1.0 1 13 80 65535 65535
+ 4.875872 4 1 sctp 48 -------S 0 4.0 1.0 1 37 81 65535 65535
- 4.875872 4 1 sctp 48 -------S 0 4.0 1.0 1 37 81 65535 65535
r 5.07664 4 1 sctp 48 -------S 0 4.0 1.0 1 37 81 65535 65535
+ 5.07664 1 4 sctp 1500 -------D 0 1.0 4.0 1 38 82 0 37
- 5.07664 1 4 sctp 1500 -------D 0 1.0 4.0 1 38 82 0 37
+ 5.07664 1 4 sctp 1500 -------D 0 1.0 4.0 1 39 83 0 38
- 5.10064 1 4 sctp 1500 -------D 0 1.0 4.0 1 39 83 0 38
r 5.30064 1 4 sctp 1500 -------D 0 1.0 4.0 1 38 82 0 37
r 5.32464 1 4 sctp 1500 -------D 0 1.0 4.0 1 39 83 0 38
+ 5.32464 4 1 sctp 48 -------S 0 4.0 1.0 1 39 84 65535 65535
- 5.32464 4 1 sctp 48 -------S 0 4.0 1.0 1 39 84 65535 65535
r 5.525408 4 1 sctp 48 -------S 0 4.0 1.0 1 39 84 65535 65535
+ 5.525408 1 4 sctp 1500 -------D 0 1.0 4.0 1 40 85 0 39
- 5.525408 1 4 sctp 1500 -------D 0 1.0 4.0 1 40 85 0 39
+ 5.525408 1 4 sctp 1500 -------D 0 1.0 4.0 1 41 86 0 40
+ 5.525408 1 4 sctp 1500 -------D 0 1.0 4.0 1 42 87 0 41
- 5.549408 1 4 sctp 1500 -------D 0 1.0 4.0 1 41 86 0 40
- 5.573408 1 4 sctp 1500 -------D 0 1.0 4.0 1 42 87 0 41
r 5.749408 1 4 sctp 1500 -------D 0 1.0 4.0 1 40 85 0 39
r 5.773408 1 4 sctp 1500 -------D 0 1.0 4.0 1 41 86 0 40
+ 5.773408 4 1 sctp 48 -------S 0 4.0 1.0 1 41 88 65535 65535
- 5.773408 4 1 sctp 48 -------S 0 4.0 1.0 1 41 88 65535 65535
r 5.797408 1 4 sctp 1500 -------D 0 1.0 4.0 1 42 87 0 41
r 5.974176 4 1 sctp 48 -------S 0 4.0 1.0 1 41 88 65535 65535
+ 5.974176 1 4 sctp 1500 -------D 0 1.0 4.0 1 43 89 0 42
- 5.974176 1 4 sctp 1500 -------D 0 1.0 4.0 1 43 89 0 42
+ 5.974176 1 4 sctp 1500 -------D 0 1.0 4.0 1 44 90 0 43
+ 5.974176 1 4 sctp 1500 -------D 0 1.0 4.0 1 45 91 0 44
+ 5.997408 4 1 sctp 48 -------S 0 4.0 1.0 1 42 92 65535 65535
- 5.997408 4 1 sctp 48 -------S 0 4.0 1.0 1 42 92 65535 65535
- 5.998176 1 4 sctp 1500 -------D 0 1.0 4.0 1 44 90 0 43
- 6.022176 1 4 sctp 1500 -------D 0 1.0 4.0 1 45 91 0 44
r 6.198176 1 4 sctp 1500 -------D 0 1.0 4.0 1 43 89 0 42
r 6.198176 4 1 sctp 48 -------S 0 4.0 1.0 1 42 92 65535 65535
+ 6.198176 1 4 sctp 1500 -------D 0 1.0 4.0 1 46 93 0 45
- 6.198176 1 4 sctp 1500 -------D 0 1.0 4.0 1 46 93 0 45
+ 6.198176 1 4 sctp 1500 -------D 0 1.0 4.0 1 47 94 0 46
r 6.222176 1 4 sctp 1500 -------D 0 1.0 4.0 1 44 90 0 43
+ 6.222176 4 1 sctp 48 -------S 0 4.0 1.0 1 44 95 65535 65535
- 6.222176 4 1 sctp 48 -------S 0 4.0 1.0 1 44 95 65535 65535
- 6.222176 1 4 sctp 1500 -------D 0 1.0 4.0 1 47 94 0 46
r 6.246176 1 4 sctp 1500 -------D 0 1.0 4.0 1 45 91 0 44
r 6.422176 1 4 sctp 1500 -------D 0 1.0 4.0 1 46 93 0 45
+ 6.422176 4 1 sctp 48 -------S 0 4.0 1.0 1 46 96 65535 65535
- 6.422176 4 1 sctp 48 -------S 0 4.0 1.0 1 46 96 65535 65535
r 6.422944 4 1 sctp 48 -------S 0 4.0 1.0 1 44 95 65535 65535
+ 6.422944 1 4 sctp 1500 -------D 0 1.0 4.0 1 48 97 0 47
- 6.422944 1 4 sctp 1500 -------D 0 1.0 4.0 1 48 97 0 47
+ 6.422944 1 4 sctp 1500 -------D 0 1.0 4.0 1 49 98 0 48
r 6.446176 1 4 sctp 1500 -------D 0 1.0 4.0 1 47 94 0 46
- 6.446944 1 4 sctp 1500 -------D 0 1.0 4.0 1 49 98 0 48
r 6.622944 4 1 sctp 48 -------S 0 4.0 1.0 1 46 96 65535 65535
+ 6.622944 1 4 sctp 1500 -------D 0 1.0 4.0 1 50 99 0 49
- 6.622944 1 4 sctp 1500 -------D 0 1.0 4.0 1 50 99 0 49
+ 6.622944 1 4 sctp 1500 -------D 0 1.0 4.0 1 51 100 0 50
+ 6.646176 4 1 sctp 48 -------S 0 4.0 1.0 1 47 101 65535 65535
- 6.646176 4 1 sctp 48 -------S 0 4.0 1.0 1 47 101 65535 65535
r 6.646944 1 4 sctp 1500 -------D 0 1.0 4.0 1 48 97 0 47
- 6.646944 1 4 sctp 1500 -------D 0 1.0 4.0 1 51 100 0 50
r 6.670944 1 4 sctp 1500 -------D 0 1.0 4.0 1 49 98 0 48
+ 6.670944 4 1 sctp 48 -------S 0 4.0 1.0 1 49 102 65535 65535
- 6.670944 4 1 sctp 48 -------S 0 4.0 1.0 1 49 102 65535 65535
r 6.846944 1 4 sctp 1500 -------D 0 1.0 4.0 1 50 99 0 49
r 6.846944 4 1 sctp 48 -------S 0 4.0 1.0 1 47 101 65535 65535
+ 6.846944 1 4 sctp 1500 -------D 0 1.0 4.0 1 52 103 0 51
- 6.846944 1 4 sctp 1500 -------D 0 1.0 4.0 1 52 103 0 51
+ 6.846944 1 4 sctp 1500 -------D 0 1.0 4.0 1 53 104 0 52
r 6.870944 1 4 sctp 1500 -------D 0 1.0 4.0 1 51 100 0 50
+ 6.870944 4 1 sctp 48 -------S 0 4.0 1.0 1 51 105 65535 65535
- 6.870944 4 1 sctp 48 -------S 0 4.0 1.0 1 51 105 65535 65535
- 6.870944 1 4 sctp 1500 -------D 0 1.0 4.0 1 53 104 0 52
r 6.871712 4 1 sctp 48 -------S 0 4.0 1.0 1 49 102 65535 65535
+ 6.871712 1 4 sctp 1500 -------D 0 1.0 4.0 1 54 106 0 53
+ 6.871712 1 4 sctp 1500 -------D 0 1.0 4.0 1 55 107 0 54
- 6.894944 1 4 sctp 1500 -------D 0 1.0 4.0 1 54 106 0 53
- 6.918944 1 4 sctp 1500 -------D 0 1.0 4.0 1 55 107 0 54
r 7.070944 1 4 sctp 1500 -------D 0 1.0 4.0 1 52 103 0 51
r 7.071712 4 1 sctp 48 -------S 0 4.0 1.0 1 51 105 65535 65535
+ 7.071712 1 4 sctp 1500 -------D 0 1.0 4.0 1 56 108 0 55
- 7.071712 1 4 sctp 1500 -------D 0 1.0 4.0 1 56 108 0 55
+ 7.071712 1 4 sctp 1500 -------D 0 1.0 4.0 1 57 109 0 56
r 7.094944 1 4 sctp 1500 -------D 0 1.0 4.0 1 53 104 0 52
+ 7.094944 4 1 sctp 48 -------S 0 4.0 1.0 1 53 110 65535 65535
- 7.094944 4 1 sctp 48 -------S 0 4.0 1.0 1 53 110 65535 65535
- 7.095712 1 4 sctp 1500 -------D 0 1.0 4.0 1 57 109 0 56
r 7.118944 1 4 sctp 1500 -------D 0 1.0 4.0 1 54 106 0 53
r 7.142944 1 4 sctp 1500 -------D 0 1.0 4.0 1 55 107 0 54
+ 7.142944 4 1 sctp 48 -------S 0 4.0 1.0 1 55 111 65535 65535
- 7.142944 4 1 sctp 48 -------S 0 4.0 1.0 1 55 111 65535 65535
r 7.295712 1 4 sctp 1500 -------D 0 1.0 4.0 1 56 108 0 55
r 7.295712 4 1 sctp 48 -------S 0 4.0 1.0 1 53 110 65535 65535
+ 7.295712 1 4 sctp 1500 -------D 0 1.0 4.0 1 58 112 0 57
- 7.295712 1 4 sctp 1500 -------D 0 1.0 4.0 1 58 112 0 57
+ 7.295712 1 4 sctp 1500 -------D 0 1.0 4.0 1 59 113 0 58
+ 7.295712 1 4 sctp 1500 -------D 0 1.0 4.0 1 60 114 0 59
r 7.319712 1 4 sctp 1500 -------D 0 1.0 4.0 1 57 109 0 56
+ 7.319712 4 1 sctp 48 -------S 0 4.0 1.0 1 57 115 65535 65535
- 7.319712 4 1 sctp 48 -------S 0 4.0 1.0 1 57 115 65535 65535
- 7.319712 1 4 sctp 1500 -------D 0 1.0 4.0 1 59 113 0 58
r 7.343712 4 1 sctp 48 -------S 0 4.0 1.0 1 55 111 65535 65535
+ 7.343712 1 4 sctp 1500 -------D 0 1.0 4.0 1 61 116 0 60
+ 7.343712 1 4 sctp 1500 -------D 0 1.0 4.0 1 62 117 0 61
- 7.343712 1 4 sctp 1500 -------D 0 1.0 4.0 1 60 114 0 59
- 7.367712 1 4 sctp 1500 -------D 0 1.0 4.0 1 61 116 0 60
- 7.391712 1 4 sctp 1500 -------D 0 1.0 4.0 1 62 117 0 61
r 7.519712 1 4 sctp 1500 -------D 0 1.0 4.0 1 58 112 0 57
r 7.52048 4 1 sctp 48 -------S 0 4.0 1.0 1 57 115 65535 65535
+ 7.52048 1 4 sctp 1500 -------D 0 1.0 4.0 1 63 118 0 62
- 7.52048 1 4 sctp 1500 -------D 0 1.0 4.0 1 63 118 0 62
+ 7.52048 1 4 sctp 1500 -------D 0 1.0 4.0 1 64 119 0 63
r 7.543712 1 4 sctp 1500 -------D 0 1.0 4.0 1 59 113 0 58
+ 7.543712 4 1 sctp 48 -------S 0 4.0 1.0 1 59 120 65535 65535
- 7.543712 4 1 sctp 48 -------S 0 4.0 1.0 1 59 120 65535 65535
- 7.54448 1 4 sctp 1500 -------D 0 1.0 4.0 1 64 119 0 63
r 7.567712 1 4 sctp 1500 -------D 0 1.0 4.0 1 60 114 0 59
r 7.591712 1 4 sctp 1500 -------D 0 1.0 4.0 1 61 116 0 60
+ 7.591712 4 1 sctp 48 -------S 0 4.0 1.0 1 61 121 65535 65535
- 7.591712 4 1 sctp 48 -------S 0 4.0 1.0 1 61 121 65535 65535
r 7.615712 1 4 sctp 1500 -------D 0 1.0 4.0 1 62 117 0 61
r 7.74448 1 4 sctp 1500 -------D 0 1.0 4.0 1 63 118 0 62
+ 7.74448 4 1 sctp 48 -------S 0 4.0 1.0 1 63 122 65535 65535
- 7.74448 4 1 sctp 48 -------S 0 4.0 1.0 1 63 122 65535 65535
r 7.74448 4 1 sctp 48 -------S 0 4.0 1.0 1 59 120 65535 65535
+ 7.74448 1 4 sctp 1500 -------D 0 1.0 4.0 1 65 123 0 64
- 7.74448 1 4 sctp 1500 -------D 0 1.0 4.0 1 65 123 0 64
+ 7.74448 1 4 sctp 1500 -------D 0 1.0 4.0 1 66 124 0 65
r 7.76848 1 4 sctp 1500 -------D 0 1.0 4.0 1 64 119 0 63
- 7.76848 1 4 sctp 1500 -------D 0 1.0 4.0 1 66 124 0 65
r 7.79248 4 1 sctp 48 -------S 0 4.0 1.0 1 61 121 65535 65535
+ 7.79248 1 4 sctp 1500 -------D 0 1.0 4.0 1 67 125 0 66
+ 7.79248 1 4 sctp 1500 -------D 0 1.0 4.0 1 68 126 0 67
+ 7.79248 1 4 sctp 1500 -------D 0 1.0 4.0 1 69 127 0 68
- 7.79248 1 4 sctp 1500 -------D 0 1.0 4.0 1 67 125 0 66
- 7.81648 1 4 sctp 1500 -------D 0 1.0 4.0 1 68 126 0 67
- 7.84048 1 4 sctp 1500 -------D 0 1.0 4.0 1 69 127 0 68
r 7.945248 4 1 sctp 48 -------S 0 4.0 1.0 1 63 122 65535 65535
+ 7.945248 1 4 sctp 1500 -------D 0 1.0 4.0 1 70 128 0 69
- 7.945248 1 4 sctp 1500 -------D 0 1.0 4.0 1 70 128 0 69
+ 7.945248 1 4 sctp 1500 -------D 0 1.0 4.0 1 71 129 0 70
r 7.96848 1 4 sctp 1500 -------D 0 1.0 4.0 1 65 123 0 64
+ 7.96848 4 1 sctp 48 -------S 0 4.0 1.0 1 65 130 65535 65535
- 7.96848 4 1 sctp 48 -------S 0 4.0 1.0 1 65 130 65535 65535
- 7.969248 1 4 sctp 1500 -------D 0 1.0 4.0 1 71 129 0 70
r 7.99248 1 4 sctp 1500 -------D 0 1.0 4.0 1 66 124 0 65
r 8.01648 1 4 sctp 1500 -------D 0 1.0 4.0 1 67 125 0 66
+ 8.01648 4 1 sctp 48 -------S 0 4.0 1.0 1 67 131 65535 65535
- 8.01648 4 1 sctp 48 -------S 0 4.0 1.0 1 67 131 65535 65535
r 8.04048 1 4 sctp 1500 -------D 0 1.0 4.0 1 68 126 0 67
r 8.06448 1 4 sctp 1500 -------D 0 1.0 4.0 1 69 127 0 68
+ 8.06448 4 1 sctp 48 -------S 0 4.0 1.0 1 69 132 65535 65535
- 8.06448 4 1 sctp 48 -------S 0 4.0 1.0 1 69 132 65535 65535
r 8.169248 1 4 sctp 1500 -------D 0 1.0 4.0 1 70 128 0 69
r 8.169248 4 1 sctp 48 -------S 0 4.0 1.0 1 65 130 65535 65535
+ 8.169248 1 4 sctp 1500 -------D 0 1.0 4.0 1 72 133 0 71
- 8.169248 1 4 sctp 1500 -------D 0 1.0 4.0 1 72 133 0 71
+ 8.169248 1 4 sctp 1500 -------D 0 1.0 4.0 1 73 134 0 72
r 8.193248 1 4 sctp 1500 -------D 0 1.0 4.0 1 71 129 0 70
+ 8.193248 4 1 sctp 48 -------S 0 4.0 1.0 1 71 135 65535 65535
- 8.193248 4 1 sctp 48 -------S 0 4.0 1.0 1 71 135 65535 65535
- 8.193248 1 4 sctp 1500 -------D 0 1.0 4.0 1 73 134 0 72
r 8.217248 4 1 sctp 48 -------S 0 4.0 1.0 1 67 131 65535 65535
+ 8.217248 1 4 sctp 1500 -------D 0 1.0 4.0 1 74 136 0 73
- 8.217248 1 4 sctp 1500 -------D 0 1.0 4.0 1 74 136 0 73
+ 8.217248 1 4 sctp 1500 -------D 0 1.0 4.0 1 75 137 0 74
- 8.241248 1 4 sctp 1500 -------D 0 1.0 4.0 1 75 137 0 74
r 8.265248 4 1 sctp 48 -------S 0 4.0 1.0 1 69 132 65535 65535
+ 8.265248 1 4 sctp 1500 -------D 0 1.0 4.0 1 76 138 0 75
- 8.265248 1 4 sctp 1500 -------D 0 1.0 4.0 1 76 138 0 75
+ 8.265248 1 4 sctp 1500 -------D 0 1.0 4.0 1 77 139 0 76
+ 8.265248 1 4 sctp 1500 -------D 0 1.0 4.0 1 78 140 0 77
- 8.289248 1 4 sctp 1500 -------D 0 1.0 4.0 1 77 139 0 76
- 8.313248 1 4 sctp 1500 -------D 0 1.0 4.0 1 78 140 0 77
r 8.393248 1 4 sctp 1500 -------D 0 1.0 4.0 1 72 133 0 71
r 8.394016 4 1 sctp 48 -------S 0 4.0 1.0 1 71 135 65535 65535
+ 8.394016 1 4 sctp 1500 -------D 0 1.0 4.0 1 79 141 0 78
- 8.394016 1 4 sctp 1500 -------D 0 1.0 4.0 1 79 141 0 78
+ 8.394016 1 4 sctp 1500 -------D 0 1.0 4.0 1 80 142 0 79
r 8.417248 1 4 sctp 1500 -------D 0 1.0 4.0 1 73 134 0 72
+ 8.417248 4 1 sctp 48 -------S 0 4.0 1.0 1 73 143 65535 65535
- 8.417248 4 1 sctp 48 -------S 0 4.0 1.0 1 73 143 65535 65535
- 8.418016 1 4 sctp 1500 -------D 0 1.0 4.0 1 80 142 0 79
r 8.441248 1 4 sctp 1500 -------D 0 1.0 4.0 1 74 136 0 73
r 8.465248 1 4 sctp 1500 -------D 0 1.0 4.0 1 75 137 0 74
+ 8.465248 4 1 sctp 48 -------S 0 4.0 1.0 1 75 144 65535 65535
- 8.465248 4 1 sctp 48 -------S 0 4.0 1.0 1 75 144 65535 65535
r 8.489248 1 4 sctp 1500 -------D 0 1.0 4.0 1 76 138 0 75
r 8.513248 1 4 sctp 1500 -------D 0 1.0 4.0 1 77 139 0 76
+ 8.513248 4 1 sctp 48 -------S 0 4.0 1.0 1 77 145 65535 65535
- 8.513248 4 1 sctp 48 -------S 0 4.0 1.0 1 77 145 65535 65535
r 8.537248 1 4 sctp 1500 -------D 0 1.0 4.0 1 78 140 0 77
r 8.618016 1 4 sctp 1500 -------D 0 1.0 4.0 1 79 141 0 78
+ 8.618016 4 1 sctp 48 -------S 0 4.0 1.0 1 79 146 65535 65535
- 8.618016 4 1 sctp 48 -------S 0 4.0 1.0 1 79 146 65535 65535
r 8.618016 4 1 sctp 48 -------S 0 4.0 1.0 1 73 143 65535 65535
+ 8.618016 1 4 sctp 1500 -------D 0 1.0 4.0 1 81 147 0 80
- 8.618016 1 4 sctp 1500 -------D 0 1.0 4.0 1 81 147 0 80
+ 8.618016 1 4 sctp 1500 -------D 0 1.0 4.0 1 82 148 0 81
r 8.642016 1 4 sctp 1500 -------D 0 1.0 4.0 1 80 142 0 79
- 8.642016 1 4 sctp 1500 -------D 0 1.0 4.0 1 82 148 0 81
r 8.666016 4 1 sctp 48 -------S 0 4.0 1.0 1 75 144 65535 65535
+ 8.666016 1 4 sctp 1500 -------D 0 1.0 4.0 1 83 149 0 82
- 8.666016 1 4 sctp 1500 -------D 0 1.0 4.0 1 83 149 0 82
+ 8.666016 1 4 sctp 1500 -------D 0 1.0 4.0 1 84 150 0 83
- 8.690016 1 4 sctp 1500 -------D 0 1.0 4.0 1 84 150 0 83
r 8.714016 4 1 sctp 48 -------S 0 4.0 1.0 1 77 145 65535 65535
+ 8.714016 1 4 sctp 1500 -------D 0 1.0 4.0 1 85 151 0 84
- 8.714016 1 4 sctp 1500 -------D 0 1.0 4.0 1 85 151 0 84
+ 8.714016 1 4 sctp 1500 -------D 0 1.0 4.0 1 86 152 0 85
+ 8.714016 1 4 sctp 1500 -------D 0 1.0 4.0 1 87 153 0 86
- 8.738016 1 4 sctp 1500 -------D 0 1.0 4.0 1 86 152 0 85
- 8.762016 1 4 sctp 1500 -------D 0 1.0 4.0 1 87 153 0 86
r 8.818784 4 1 sctp 48 -------S 0 4.0 1.0 1 79 146 65535 65535
+ 8.818784 1 4 sctp 1500 -------D 0 1.0 4.0 1 88 154 0 87
- 8.818784 1 4 sctp 1500 -------D 0 1.0 4.0 1 88 154 0 87
+ 8.818784 1 4 sctp 1500 -------D 0 1.0 4.0 1 89 155 0 88
+ 8.842016 4 1 sctp 48 -------S 0 4.0 1.0 1 80 156 65535 65535
- 8.842016 4 1 sctp 48 -------S 0 4.0 1.0 1 80 156 65535 65535
r 8.842016 1 4 sctp 1500 -------D 0 1.0 4.0 1 81 147 0 80
- 8.842784 1 4 sctp 1500 -------D 0 1.0 4.0 1 89 155 0 88
r 8.866016 1 4 sctp 1500 -------D 0 1.0 4.0 1 82 148 0 81
+ 8.866016 4 1 sctp 48 -------S 0 4.0 1.0 1 82 157 65535 65535
- 8.866016 4 1 sctp 48 -------S 0 4.0 1.0 1 82 157 65535 65535
r 8.890016 1 4 sctp 1500 -------D 0 1.0 4.0 1 83 149 0 82
r 8.914016 1 4 sctp 1500 -------D 0 1.0 4.0 1 84 150 0 83
+ 8.914016 4 1 sctp 48 -------S 0 4.0 1.0 1 84 158 65535 65535
- 8.914016 4 1 sctp 48 -------S 0 4.0 1.0 1 84 158 65535 65535
r 8.938016 1 4 sctp 1500 -------D 0 1.0 4.0 1 85 151 0 84
r 8.962016 1 4 sctp 1500 -------D 0 1.0 4.0 1 86 152 0 85
+ 8.962016 4 1 sctp 48 -------S 0 4.0 1.0 1 86 159 65535 65535
- 8.962016 4 1 sctp 48 -------S 0 4.0 1.0 1 86 159 65535 65535
r 8.986016 1 4 sctp 1500 -------D 0 1.0 4.0 1 87 153 0 86
r 9.042784 4 1 sctp 48 -------S 0 4.0 1.0 1 80 156 65535 65535
+ 9.042784 1 4 sctp 1500 -------D 0 1.0 4.0 1 90 160 0 89
- 9.042784 1 4 sctp 1500 -------D 0 1.0 4.0 1 90 160 0 89
r 9.042784 1 4 sctp 1500 -------D 0 1.0 4.0 1 88 154 0 87
+ 9.042784 4 1 sctp 48 -------S 0 4.0 1.0 1 88 161 65535 65535
- 9.042784 4 1 sctp 48 -------S 0 4.0 1.0 1 88 161 65535 65535
r 9.066784 1 4 sctp 1500 -------D 0 1.0 4.0 1 89 155 0 88
r 9.066784 4 1 sctp 48 -------S 0 4.0 1.0 1 82 157 65535 65535
+ 9.066784 1 4 sctp 1500 -------D 0 1.0 4.0 1 91 162 0 90
- 9.066784 1 4 sctp 1500 -------D 0 1.0 4.0 1 91 162 0 90
+ 9.066784 1 4 sctp 1500 -------D 0 1.0 4.0 1 92 163 0 91
- 9.090784 1 4 sctp 1500 -------D 0 1.0 4.0 1 92 163 0 91
r 9.114784 4 1 sctp 48 -------S 0 4.0 1.0 1 84 158 65535 65535
+ 9.114784 1 4 sctp 1500 -------D 0 1.0 4.0 1 93 164 0 92
- 9.114784 1 4 sctp 1500 -------D 0 1.0 4.0 1 93 164 0 92
+ 9.114784 1 4 sctp 1500 -------D 0 1.0 4.0 1 94 165 0 93
- 9.138784 1 4 sctp 1500 -------D 0 1.0 4.0 1 94 165 0 93
r 9.162784 4 1 sctp 48 -------S 0 4.0 1.0 1 86 159 65535 65535
+ 9.162784 1 4 sctp 1500 -------D 0 1.0 4.0 1 95 166 0 94
- 9.162784 1 4 sctp 1500 -------D 0 1.0 4.0 1 95 166 0 94
+ 9.162784 1 4 sctp 1500 -------D 0 1.0 4.0 1 96 167 0 95
- 9.186784 1 4 sctp 1500 -------D 0 1.0 4.0 1 96 167 0 95
r 9.243552 4 1 sctp 48 -------S 0 4.0 1.0 1 88 161 65535 65535
+ 9.243552 1 4 sctp 1500 -------D 0 1.0 4.0 1 97 168 0 96
- 9.243552 1 4 sctp 1500 -------D 0 1.0 4.0 1 97 168 0 96
+ 9.243552 1 4 sctp 1500 -------D 0 1.0 4.0 1 98 169 0 97
+ 9.243552 1 4 sctp 1500 -------D 0 1.0 4.0 1 99 170 0 98
r 9.266784 1 4 sctp 1500 -------D 0 1.0 4.0 1 90 160 0 89
+ 9.266784 4 1 sctp 48 -------S 0 4.0 1.0 1 90 171 65535 65535
- 9.266784 4 1 sctp 48 -------S 0 4.0 1.0 1 90 171 65535 65535
- 9.267552 1 4 sctp 1500 -------D 0 1.0 4.0 1 98 169 0 97
r 9.290784 1 4 sctp 1500 -------D 0 1.0 4.0 1 91 162 0 90
- 9.291552 1 4 sctp 1500 -------D 0 1.0 4.0 1 99 170 0 98
r 9.314784 1 4 sctp 1500 -------D 0 1.0 4.0 1 92 163 0 91
+ 9.314784 4 1 sctp 48 -------S 0 4.0 1.0 1 92 172 65535 65535
- 9.314784 4 1 sctp 48 -------S 0 4.0 1.0 1 92 172 65535 65535
r 9.338784 1 4 sctp 1500 -------D 0 1.0 4.0 1 93 164 0 92
r 9.362784 1 4 sctp 1500 -------D 0 1.0 4.0 1 94 165 0 93
+ 9.362784 4 1 sctp 48 -------S 0 4.0 1.0 1 94 173 65535 65535
- 9.362784 4 1 sctp 48 -------S 0 4.0 1.0 1 94 173 65535 65535
r 9.386784 1 4 sctp 1500 -------D 0 1.0 4.0 1 95 166 0 94
r 9.410784 1 4 sctp 1500 -------D 0 1.0 4.0 1 96 167 0 95
+ 9.410784 4 1 sctp 48 -------S 0 4.0 1.0 1 96 174 65535 65535
- 9.410784 4 1 sctp 48 -------S 0 4.0 1.0 1 96 174 65535 65535
r 9.467552 4 1 sctp 48 -------S 0 4.0 1.0 1 90 171 65535 65535
+ 9.467552 1 4 sctp 1500 -------D 0 1.0 4.0 1 100 175 0 99
- 9.467552 1 4 sctp 1500 -------D 0 1.0 4.0 1 100 175 0 99
+ 9.467552 1 4 sctp 1500 -------D 0 1.0 4.0 1 101 176 0 100
r 9.467552 1 4 sctp 1500 -------D 0 1.0 4.0 1 97 168 0 96