+ 0.5 0 1 sctp 56 -------I 0 0.0 1.0 1 -1 2 65535 65535
- 0.5 0 1 sctp 56 -------I 0 0.0 1.0 1 -1 2 65535 65535
r 0.800896 0 1 sctp 56 -------I 0 0.0 1.0 1 -1 2 65535 65535
+ 0.800896 1 0 sctp 56 -------I 0 1.0 0.0 1 -1 3 65535 65535
- 0.800896 1 0 sctp 56 -------I 0 1.0 0.0 1 -1 3 65535 65535
r 1.101792 1 0 sctp 56 -------I 0 1.0 0.0 1 -1 3 65535 65535
+ 1.101792 0 1 sctp 36 -------I 0 0.0 1.0 1 -1 4 65535 65535
- 1.101792 0 1 sctp 36 -------I 0 0.0 1.0 1 -1 4 65535 65535
r 1.402368 0 1 sctp 36 -------I 0 0.0 1.0 1 -1 4 65535 65535
+ 1.402368 1 0 sctp 36 -------I 0 1.0 0.0 1 -1 5 65535 65535
- 1.402368 1 0 sctp 36 -------I 0 1.0 0.0 1 -1 5 65535 65535
r 1.702944 1 0 sctp 36 -------I 0 1.0 0.0 1 -1 5 65535 65535
+ 1.702944 0 1 sctp 56 -------H 0 0.0 1.0 1 -1 6 65535 65535
- 1.702944 0 1 sctp 56 -------H 0 0.0 1.0 1 -1 6 65535 65535
r 2.00384 0 1 sctp 56 -------H 0 0.0 1.0 1 -1 6 65535 65535
+ 2.00384 1 0 sctp 56 -------B 0 1.0 0.0 1 -1 7 65535 65535
- 2.00384 1 0 sctp 56 -------B 0 1.0 0.0 1 -1 7 65535 65535
r 2.304736 1 0 sctp 56 -------B 0 1.0 0.0 1 -1 7 65535 65535
+ 2.304736 0 1 sctp 1480 -------D 0 0.0 1.0 2 1 8 0 0
+ 2.304736 0 1 sctp 1480 -------D 0 0.0 1.0 2 2 8 0 1
- 2.304736 0 1 sctp 1480 -------D 0 0.0 1.0 2 1 8 0 0
- 2.304736 0 1 sctp 1480 -------D 0 0.0 1.0 2 2 8 0 1
+ 2.304736 0 1 sctp 1480 -------D 0 0.0 1.0 2 3 9 0 2
+ 2.304736 0 1 sctp 1480 -------D 0 0.0 1.0 2 4 9 0 3
+ 2.304736 0 1 sctp 1480 -------D 0 0.0 1.0 2 5 10 0 4
+ 2.304736 0 1 sctp 1480 -------D 0 0.0 1.0 2 6 10 0 5
+ 2.304736 0 1 sctp 1480 -------D 0 0.0 1.0 2 7 11 0 6
+ 2.304736 0 1 sctp 1480 -------D 0 0.0 1.0 2 8 11 0 7
- 2.328416 0 1 sctp 1480 -------D 0 0.0 1.0 2 3 9 0 2
- 2.328416 0 1 sctp 1480 -------D 0 0.0 1.0 2 4 9 0 3
- 2.352096 0 1 sctp 1480 -------D 0 0.0 1.0 2 5 10 0 4
- 2.352096 0 1 sctp 1480 -------D 0 0.0 1.0 2 6 10 0 5
- 2.375776 0 1 sctp 1480 -------D 0 0.0 1.0 2 7 11 0 6
- 2.375776 0 1 sctp 1480 -------D 0 0.0 1.0 2 8 11 0 7
r 2.628416 0 1 sctp 1480 -------D 0 0.0 1.0 2 1 8 0 0
r 2.628416 0 1 sctp 1480 -------D 0 0.0 1.0 2 2 8 0 1
+ 2.628416 1 0 sctp 48 -------S 0 1.0 0.0 1 2 12 65535 65535
- 2.628416 1 0 sctp 48 -------S 0 1.0 0.0 1 2 12 65535 65535
r 2.652096 0 1 sctp 1480 -------D 0 0.0 1.0 2 3 9 0 2
r 2.652096 0 1 sctp 1480 -------D 0 0.0 1.0 2 4 9 0 3
+ 2.652096 1 0 sctp 48 -------S 0 1.0 0.0 1 4 13 65535 65535
- 2.652096 1 0 sctp 48 -------S 0 1.0 0.0 1 4 13 65535 65535
r 2.675776 0 1 sctp 1480 -------D 0 0.0 1.0 2 5 10 0 4
r 2.675776 0 1 sctp 1480 -------D 0 0.0 1.0 2 6 10 0 5
+ 2.675776 1 0 sctp 48 -------S 0 1.0 0.0 1 6 14 65535 65535
- 2.675776 1 0 sctp 48 -------S 0 1.0 0.0 1 6 14 65535 65535
r 2.699456 0 1 sctp 1480 -------D 0 0.0 1.0 2 7 11 0 6
r 2.699456 0 1 sctp 1480 -------D 0 0.0 1.0 2 8 11 0 7
+ 2.699456 1 0 sctp 48 -------S 0 1.0 0.0 1 8 15 65535 65535
- 2.699456 1 0 sctp 48 -------S 0 1.0 0.0 1 8 15 65535 65535
r 2.929184 1 0 sctp 48 -------S 0 1.0 0.0 1 2 12 65535 65535
+ 2.929184 0 1 sctp 1480 -------D 0 0.0 1.0 2 9 16 0 8
+ 2.929184 0 1 sctp 1480 -------D 0 0.0 1.0 2 10 16 0 9
- 2.929184 0 1 sctp 1480 -------D 0 0.0 1.0 2 9 16 0 8
- 2.929184 0 1 sctp 1480 -------D 0 0.0 1.0 2 10 16 0 9
+ 2.929184 0 1 sctp 1480 -------D 0 0.0 1.0 2 11 17 0 10
+ 2.929184 0 1 sctp 1480 -------D 0 0.0 1.0 2 12 17 0 11
r 2.952864 1 0 sctp 48 -------S 0 1.0 0.0 1 4 13 65535 65535
+ 2.952864 0 1 sctp 1480 -------D 0 0.0 1.0 2 13 18 0 12
+ 2.952864 0 1 sctp 1480 -------D 0 0.0 1.0 2 14 18 0 13
+ 2.952864 0 1 sctp 1480 -------D 0 0.0 1.0 2 15 19 0 14
+ 2.952864 0 1 sctp 1480 -------D 0 0.0 1.0 2 16 19 0 15
- 2.952864 0 1 sctp 1480 -------D 0 0.0 1.0 2 11 17 0 10
- 2.952864 0 1 sctp 1480 -------D 0 0.0 1.0 2 12 17 0 11
r 2.976544 1 0 sctp 48 -------S 0 1.0 0.0 1 6 14 65535 65535
+ 2.976544 0 1 sctp 1480 -------D 0 0.0 1.0 2 17 20 0 16
+ 2.976544 0 1 sctp 1480 -------D 0 0.0 1.0 2 18 20 0 17
- 2.976544 0 1 sctp 1480 -------D 0 0.0 1.0 2 13 18 0 12
- 2.976544 0 1 sctp 1480 -------D 0 0.0 1.0 2 14 18 0 13
r 3.000224 1 0 sctp 48 -------S 0 1.0 0.0 1 8 15 65535 65535
+ 3.000224 0 1 sctp 1480 -------D 0 0.0 1.0 2 19 21 0 18
+ 3.000224 0 1 sctp 1480 -------D 0 0.0 1.0 2 20 21 0 19
- 3.000224 0 1 sctp 1480 -------D 0 0.0 1.0 2 15 19 0 14
- 3.000224 0 1 sctp 1480 -------D 0 0.0 1.0 2 16 19 0 15
- 3.023904 0 1 sctp 1480 -------D 0 0.0 1.0 2 17 20 0 16
- 3.023904 0 1 sctp 1480 -------D 0 0.0 1.0 2 18 20 0 17
- 3.047584 0 1 sctp 1480 -------D 0 0.0 1.0 2 19 21 0 18
- 3.047584 0 1 sctp 1480 -------D 0 0.0 1.0 2 20 21 0 19
r 3.252864 0 1 sctp 1480 -------D 0 0.0 1.0 2 9 16 0 8
r 3.252864 0 1 sctp 1480 -------D 0 0.0 1.0 2 10 16 0 9
+ 3.252864 1 0 sctp 48 -------S 0 1.0 0.0 1 10 22 65535 65535
- 3.252864 1 0 sctp 48 -------S 0 1.0 0.0 1 10 22 65535 65535
r 3.276544 0 1 sctp 1480 -------D 0 0.0 1.0 2 11 17 0 10
r 3.276544 0 1 sctp 1480 -------D 0 0.0 1.0 2 12 17 0 11
+ 3.276544 1 0 sctp 48 -------S 0 1.0 0.0 1 12 23 65535 65535
- 3.276544 1 0 sctp 48 -------S 0 1.0 0.0 1 12 23 65535 65535
r 3.300224 0 1 sctp 1480 -------D 0 0.0 1.0 2 13 18 0 12
r 3.300224 0 1 sctp 1480 -------D 0 0.0 1.0 2 14 18 0 13
+ 3.300224 1 0 sctp 48 -------S 0 1.0 0.0 1 14 24 65535 65535
- 3.300224 1 0 sctp 48 -------S 0 1.0 0.0 1 14 24 65535 65535
r 3.323904 0 1 sctp 1480 -------D 0 0.0 1.0 2 15 19 0 14
r 3.323904 0 1 sctp 1480 -------D 0 0.0 1.0 2 16 19 0 15
+ 3.323904 1 0 sctp 48 -------S 0 1.0 0.0 1 16 25 65535 65535
- 3.323904 1 0 sctp 48 -------S 0 1.0 0.0 1 16 25 65535 65535
r 3.347584 0 1 sctp 1480 -------D 0 0.0 1.0 2 17 20 0 16
r 3.347584 0 1 sctp 1480 -------D 0 0.0 1.0 2 18 20 0 17
+ 3.347584 1 0 sctp 48 -------S 0 1.0 0.0 1 18 26 65535 65535
- 3.347584 1 0 sctp 48 -------S 0 1.0 0.0 1 18 26 65535 65535
r 3.371264 0 1 sctp 1480 -------D 0 0.0 1.0 2 19 21 0 18
r 3.371264 0 1 sctp 1480 -------D 0 0.0 1.0 2 20 21 0 19
+ 3.371264 1 0 sctp 48 -------S 0 1.0 0.0 1 20 27 65535 65535
- 3.371264 1 0 sctp 48 -------S 0 1.0 0.0 1 20 27 65535 65535
r 3.553632 1 0 sctp 48 -------S 0 1.0 0.0 1 10 22 65535 65535
+ 3.553632 0 1 sctp 1480 -------D 0 0.0 1.0 2 21 28 0 20
+ 3.553632 0 1 sctp 1480 -------D 0 0.0 1.0 2 22 28 0 21
- 3.553632 0 1 sctp 1480 -------D 0 0.0 1.0 2 21 28 0 20
- 3.553632 0 1 sctp 1480 -------D 0 0.0 1.0 2 22 28 0 21
r 3.577312 1 0 sctp 48 -------S 0 1.0 0.0 1 12 23 65535 65535
+ 3.577312 0 1 sctp 1480 -------D 0 0.0 1.0 2 23 29 0 22
+ 3.577312 0 1 sctp 1480 -------D 0 0.0 1.0 2 24 29 0 23
- 3.577312 0 1 sctp 1480 -------D 0 0.0 1.0 2 23 29 0 22
- 3.577312 0 1 sctp 1480 -------D 0 0.0 1.0 2 24 29 0 23
r 3.600992 1 0 sctp 48 -------S 0 1.0 0.0 1 14 24 65535 65535
+ 3.600992 0 1 sctp 1480 -------D 0 0.0 1.0 2 25 30 0 24
+ 3.600992 0 1 sctp 1480 -------D 0 0.0 1.0 2 26 30 0 25
- 3.600992 0 1 sctp 1480 -------D 0 0.0 1.0 2 25 30 0 24
- 3.600992 0 1 sctp 1480 -------D 0 0.0 1.0 2 26 30 0 25
r 3.624672 1 0 sctp 48 -------S 0 1.0 0.0 1 16 25 65535 65535
+ 3.624672 0 1 sctp 1480 -------D 0 0.0 1.0 2 27 31 0 26
+ 3.624672 0 1 sctp 1480 -------D 0 0.0 1.0 2 28 31 0 27
- 3.624672 0 1 sctp 1480 -------D 0 0.0 1.0 2 27 31 0 26
- 3.624672 0 1 sctp 1480 -------D 0 0.0 1.0 2 28 31 0 27
r 3.648352 1 0 sctp 48 -------S 0 1.0 0.0 1 18 26 65535 65535
+ 3.648352 0 1 sctp 1480 -------D 0 0.0 1.0 2 29 32 0 28
+ 3.648352 0 1 sctp 1480 -------D 0 0.0 1.0 2 30 32 0 29
- 3.648352 0 1 sctp 1480 -------D 0 0.0 1.0 2 29 32 0 28
- 3.648352 0 1 sctp 1480 -------D 0 0.0 1.0 2 30 32 0 29
r 3.672032 1 0 sctp 48 -------S 0 1.0 0.0 1 20 27 65535 65535
+ 3.672032 0 1 sctp 1480 -------D 0 0.0 1.0 2 31 33 0 30
+ 3.672032 0 1 sctp 1480 -------D 0 0.0 1.0 2 32 33 0 31
- 3.672032 0 1 sctp 1480 -------D 0 0.0 1.0 2 31 33 0 30
- 3.672032 0 1 sctp 1480 -------D 0 0.0 1.0 2 32 33 0 31
r 3.877312 0 1 sctp 1480 -------D 0 0.0 1.0 2 21 28 0 20
r 3.877312 0 1 sctp 1480 -------D 0 0.0 1.0 2 22 28 0 21
+ 3.877312 1 0 sctp 48 -------S 0 1.0 0.0 1 22 34 65535 65535
- 3.877312 1 0 sctp 48 -------S 0 1.0 0.0 1 22 34 65535 65535
r 3.900992 0 1 sctp 1480 -------D 0 0.0 1.0 2 23 29 0 22
r 3.900992 0 1 sctp 1480 -------D 0 0.0 1.0 2 24 29 0 23
+ 3.900992 1 0 sctp 48 -------S 0 1.0 0.0 1 24 35 65535 65535
- 3.900992 1 0 sctp 48 -------S 0 1.0 0.0 1 24 35 65535 65535
r 3.924672 0 1 sctp 1480 -------D 0 0.0 1.0 2 25 30 0 24
r 3.924672 0 1 sctp 1480 -------D 0 0.0 1.0 2 26 30 0 25
+ 3.924672 1 0 sctp 48 -------S 0 1.0 0.0 1 26 36 65535 65535
- 3.924672 1 0 sctp 48 -------S 0 1.0 0.0 1 26 36 65535 65535
r 3.948352 0 1 sctp 1480 -------D 0 0.0 1.0 2 27 31 0 26
r 3.948352 0 1 sctp 1480 -------D 0 0.0 1.0 2 28 31 0 27
+ 3.948352 1 0 sctp 48 -------S 0 1.0 0.0 1 28 37 65535 65535
- 3.948352 1 0 sctp 48 -------S 0 1.0 0.0 1 28 37 65535 65535
r 3.972032 0 1 sctp 1480 -------D 0 0.0 1.0 2 29 32 0 28
r 3.972032 0 1 sctp 1480 -------D 0 0.0 1.0 2 30 32 0 29
+ 3.972032 1 0 sctp 48 -------S 0 1.0 0.0 1 30 38 65535 65535
- 3.972032 1 0 sctp 48 -------S 0 1.0 0.0 1 30 38 65535 65535
r 3.995712 0 1 sctp 1480 -------D 0 0.0 1.0 2 31 33 0 30
r 3.995712 0 1 sctp 1480 -------D 0 0.0 1.0 2 32 33 0 31
+ 3.995712 1 0 sctp 48 -------S 0 1.0 0.0 1 32 39 65535 65535
- 3.995712 1 0 sctp 48 -------S 0 1.0 0.0 1 32 39 65535 65535
r 4.17808 1 0 sctp 48 -------S 0 1.0 0.0 1 22 34 65535 65535
+ 4.17808 0 1 sctp 1480 -------D 0 0.0 1.0 2 33 40 0 32
+ 4.17808 0 1 sctp 1480 -------D 0 0.0 1.0 2 34 40 0 33
- 4.17808 0 1 sctp 1480 -------D 0 0.0 1.0 2 33 40 0 32
- 4.17808 0 1 sctp 1480 -------D 0 0.0 1.0 2 34 40 0 33
r 4.20176 1 0 sctp 48 -------S 0 1.0 0.0 1 24 35 65535 65535
+ 4.20176 0 1 sctp 1480 -------D 0 0.0 1.0 2 35 41 0 34
+ 4.20176 0 1 sctp 1480 -------D 0 0.0 1.0 2 36 41 0 35
- 4.20176 0 1 sctp 1480 -------D 0 0.0 1.0 2 35 41 0 34
- 4.20176 0 1 sctp 1480 -------D 0 0.0 1.0 2 36 41 0 35
r 4.22544 1 0 sctp 48 -------S 0 1.0 0.0 1 26 36 65535 65535
+ 4.22544 0 1 sctp 1480 -------D 0 0.0 1.0 2 37 42 0 36
+ 4.22544 0 1 sctp 1480 -------D 0 0.0 1.0 2 38 42 0 37
- 4.22544 0 1 sctp 1480 -------D 0 0.0 1.0 2 37 42 0 36
- 4.22544 0 1 sctp 1480 -------D 0 0.0 1.0 2 38 42 0 37
r 4.24912 1 0 sctp 48 -------S 0 1.0 0.0 1 28 37 65535 65535
+ 4.24912 0 1 sctp 1480 -------D 0 0.0 1.0 2 39 43 0 38
+ 4.24912 0 1 sctp 1480 -------D 0 0.0 1.0 2 40 43 0 39
- 4.24912 0 1 sctp 1480 -------D 0 0.0 1.0 2 39 43 0 38
- 4.24912 0 1 sctp 1480 -------D 0 0.0 1.0 2 40 43 0 39
r 4.2728 1 0 sctp 48 -------S 0 1.0 0.0 1 30 38 65535 65535
+ 4.2728 0 1 sctp 1480 -------D 0 0.0 1.0 2 41 44 0 40
+ 4.2728 0 1 sctp 1480 -------D 0 0.0 1.0 2 42 44 0 41
- 4.2728 0 1 sctp 1480 -------D 0 0.0 1.0 2 41 44 0 40
- 4.2728 0 1 sctp 1480 -------D 0 0.0 1.0 2 42 44 0 41
r 4.29648 1 0 sctp 48 -------S 0 1.0 0.0 1 32 39 65535 65535
+ 4.29648 0 1 sctp 1480 -------D 0 0.0 1.0 2 43 45 0 42
+ 4.29648 0 1 sctp 1480 -------D 0 0.0 1.0 2 44 45 0 43
- 4.29648 0 1 sctp 1480 -------D 0 0.0 1.0 2 43 45 0 42
- 4.29648 0 1 sctp 1480 -------D 0 0.0 1.0 2 44 45 0 43
r 4.50176 0 1 sctp 1480 -------D 0 0.0 1.0 2 33 40 0 32
r 4.50176 0 1 sctp 1480 -------D 0 0.0 1.0 2 34 40 0 33
+ 4.50176 1 0 sctp 48 -------S 0 1.0 0.0 1 34 46 65535 65535
- 4.50176 1 0 sctp 48 -------S 0 1.0 0.0 1 34 46 65535 65535
r 4.52544 0 1 sctp 1480 -------D 0 0.0 1.0 2 35 41 0 34
r 4.52544 0 1 sctp 1480 -------D 0 0.0 1.0 2 36 41 0 35
+ 4.52544 1 0 sctp 48 -------S 0 1.0 0.0 1 36 47 65535 65535
- 4.52544 1 0 sctp 48 -------S 0 1.0 0.0 1 36 47 65535 65535
r 4.54912 0 1 sctp 1480 -------D 0 0.0 1.0 2 37 42 0 36
r 4.54912 0 1 sctp 1480 -------D 0 0.0 1.0 2 38 42 0 37
+ 4.54912 1 0 sctp 48 -------S 0 1.0 0.0 1 38 48 65535 65535
- 4.54912 1 0 sctp 48 -------S 0 1.0 0.0 1 38 48 65535 65535
r 4.5728 0 1 sctp 1480 -------D 0 0.0 1.0 2 39 43 0 38
r 4.5728 0 1 sctp 1480 -------D 0 0.0 1.0 2 40 43 0 39
+ 4.5728 1 0 sctp 48 -------S 0 1.0 0.0 1 40 49 65535 65535
- 4.5728 1 0 sctp 48 -------S 0 1.0 0.0 1 40 49 65535 65535
r 4.59648 0 1 sctp 1480 -------D 0 0.0 1.0 2 41 44 0 40
r 4.59648 0 1 sctp 1480 -------D 0 0.0 1.0 2 42 44 0 41
+ 4.59648 1 0 sctp 48 -------S 0 1.0 0.0 1 42 50 65535 65535
- 4.59648 1 0 sctp 48 -------S 0 1.0 0.0 1 42 50 65535 65535
r 4.62016 0 1 sctp 1480 -------D 0 0.0 1.0 2 43 45 0 42
r 4.62016 0 1 sctp 1480 -------D 0 0.0 1.0 2 44 45 0 43
+ 4.62016 1 0 sctp 48 -------S 0 1.0 0.0 1 44 51 65535 65535
- 4.62016 1 0 sctp 48 -------S 0 1.0 0.0 1 44 51 65535 65535
r 4.802528 1 0 sctp 48 -------S 0 1.0 0.0 1 34 46 65535 65535
+ 4.802528 0 1 sctp 1480 -------D 0 0.0 1.0 2 45 52 0 44
+ 4.802528 0 1 sctp 1480 -------D 0 0.0 1.0 2 46 52 0 45
- 4.802528 0 1 sctp 1480 -------D 0 0.0 1.0 2 45 52 0 44
- 4.802528 0 1 sctp 1480 -------D 0 0.0 1.0 2 46 52 0 45
r 4.826208 1 0 sctp 48 -------S 0 1.0 0.0 1 36 47 65535 65535
+ 4.826208 0 1 sctp 1480 -------D 0 0.0 1.0 2 47 53 0 46
+ 4.826208 0 1 sctp 1480 -------D 0 0.0 1.0 2 48 53 0 47
- 4.826208 0 1 sctp 1480 -------D 0 0.0 1.0 2 47 53 0 46
- 4.826208 0 1 sctp 1480 -------D 0 0.0 1.0 2 48 53 0 47
r 4.849888 1 0 sctp 48 -------S 0 1.0 0.0 1 38 48 65535 65535
+ 4.849888 0 1 sctp 1480 -------D 0 0.0 1.0 2 49 54 0 48
+ 4.849888 0 1 sctp 1480 -------D 0 0.0 1.0 2 50 54 0 49
- 4.849888 0 1 sctp 1480 -------D 0 0.0 1.0 2 49 54 0 48
- 4.849888 0 1 sctp 1480 -------D 0 0.0 1.0 2 50 54 0 49
r 4.873568 1 0 sctp 48 -------S 0 1.0 0.0 1 40 49 65535 65535
+ 4.873568 0 1 sctp 1480 -------D 0 0.0 1.0 2 51 55 0 50
+ 4.873568 0 1 sctp 1480 -------D 0 0.0 1.0 2 52 55 0 51
- 4.873568 0 1 sctp 1480 -------D 0 0.0 1.0 2 51 55 0 50
- 4.873568 0 1 sctp 1480 -------D 0 0.0 1.0 2 52 55 0 51
r 4.897248 1 0 sctp 48 -------S 0 1.0 0.0 1 42 50 65535 65535
+ 4.897248 0 1 sctp 1480 -------D 0 0.0 1.0 2 53 56 0 52
+ 4.897248 0 1 sctp 1480 -------D 0 0.0 1.0 2 54 56 0 53
- 4.897248 0 1 sctp 1480 -------D 0 0.0 1.0 2 53 56 0 52
- 4.897248 0 1 sctp 1480 -------D 0 0.0 1.0 2 54 56 0 53
r 4.920928 1 0 sctp 48 -------S 0 1.0 0.0 1 44 51 65535 65535
+ 4.920928 0 1 sctp 1480 -------D 0 0.0 1.0 2 55 57 0 54
+ 4.920928 0 1 sctp 1480 -------D 0 0.0 1.0 2 56 57 0 55
- 4.920928 0 1 sctp 1480 -------D 0 0.0 1.0 2 55 57 0 54
- 4.920928 0 1 sctp 1480 -------D 0 0.0 1.0 2 56 57 0 55
r 5.126208 0 1 sctp 1480 -------D 0 0.0 1.0 2 45 52 0 44
r 5.126208 0 1 sctp 1480 -------D 0 0.0 1.0 2 46 52 0 45
+ 5.126208 1 0 sctp 48 -------S 0 1.0 0.0 1 46 58 65535 65535
- 5.126208 1 0 sctp 48 -------S 0 1.0 0.0 1 46 58 65535 65535
r 5.149888 0 1 sctp 1480 -------D 0 0.0 1.0 2 47 53 0 46
r 5.149888 0 1 sctp 1480 -------D 0 0.0 1.0 2 48 53 0 47
+ 5.149888 1 0 sctp 48 -------S 0 1.0 0.0 1 48 59 65535 65535
- 5.149888 1 0 sctp 48 -------S 0 1.0 0.0 1 48 59 65535 65535
r 5.173568 0 1 sctp 1480 -------D 0 0.0 1.0 2 49 54 0 48
r 5.173568 0 1 sctp 1480 -------D 0 0.0 1.0 2 50 54 0 49
+ 5.173568 1 0 sctp 48 -------S 0 1.0 0.0 1 50 60 65535 65535
- 5.173568 1 0 sctp 48 -------S 0 1.0 0.0 1 50 60 65535 65535
r 5.197248 0 1 sctp 1480 -------D 0 0.0 1.0 2 51 55 0 50
r 5.197248 0 1 sctp 1480 -------D 0 0.0 1.0 2 52 55 0 51
+ 5.197248 1 0 sctp 48 -------S 0 1.0 0.0 1 52 61 65535 65535
- 5.197248 1 0 sctp 48 -------S 0 1.0 0.0 1 52 61 65535 65535
r 5.220928 0 1 sctp 1480 -------D 0 0.0 1.0 2 53 56 0 52
r 5.220928 0 1 sctp 1480 -------D 0 0.0 1.0 2 54 56 0 53
+ 5.220928 1 0 sctp 48 -------S 0 1.0 0.0 1 54 62 65535 65535
- 5.220928 1 0 sctp 48 -------S 0 1.0 0.0 1 54 62 65535 65535
r 5.244608 0 1 sctp 1480 -------D 0 0.0 1.0 2 55 57 0 54
r 5.244608 0 1 sctp 1480 -------D 0 0.0 1.0 2 56 57 0 55
+ 5.244608 1 0 sctp 48 -------S 0 1.0 0.0 1 56 63 65535 65535
- 5.244608 1 0 sctp 48 -------S 0 1.0 0.0 1 56 63 65535 65535
r 5.426976 1 0 sctp 48 -------S 0 1.0 0.0 1 46 58 65535 65535
+ 5.426976 0 1 sctp 1480 -------D 0 0.0 1.0 2 57 64 0 56
+ 5.426976 0 1 sctp 1480 -------D 0 0.0 1.0 2 58 64 0 57
- 5.426976 0 1 sctp 1480 -------D 0 0.0 1.0 2 57 64 0 56
- 5.426976 0 1 sctp 1480 -------D 0 0.0 1.0 2 58 64 0 57
r 5.450656 1 0 sctp 48 -------S 0 1.0 0.0 1 48 59 65535 65535
+ 5.450656 0 1 sctp 1480 -------D 0 0.0 1.0 2 59 65 0 58
+ 5.450656 0 1 sctp 1480 -------D 0 0.0 1.0 2 60 65 0 59
- 5.450656 0 1 sctp 1480 -------D 0 0.0 1.0 2 59 65 0 58
- 5.450656 0 1 sctp 1480 -------D 0 0.0 1.0 2 60 65 0 59
r 5.474336 1 0 sctp 48 -------S 0 1.0 0.0 1 50 60 65535 65535
+ 5.474336 0 1 sctp 1480 -------D 0 0.0 1.0 2 61 66 0 60
+ 5.474336 0 1 sctp 1480 -------D 0 0.0 1.0 2 62 66 0 61
- 5.474336 0 1 sctp 1480 -------D 0 0.0 1.0 2 61 66 0 60
- 5.474336 0 1 sctp 1480 -------D 0 0.0 1.0 2 62 66 0 61
r 5.498016 1 0 sctp 48 -------S 0 1.0 0.0 1 52 61 65535 65535
+ 5.498016 0 1 sctp 1480 -------D 0 0.0 1.0 2 63 67 0 62
+ 5.498016 0 1 sctp 1480 -------D 0 0.0 1.0 2 64 67 0 63
- 5.498016 0 1 sctp 1480 -------D 0 0.0 1.0 2 63 67 0 62
- 5.498016 0 1 sctp 1480 -------D 0 0.0 1.0 2 64 67 0 63
r 5.521696 1 0 sctp 48 -------S 0 1.0 0.0 1 54 62 65535 65535
+ 5.521696 0 1 sctp 1480 -------D 0 0.0 1.0 2 65 68 0 64
+ 5.521696 0 1 sctp 1480 -------D 0 0.0 1.0 2 66 68 0 65
- 5.521696 0 1 sctp 1480 -------D 0 0.0 1.0 2 65 68 0 64
- 5.521696 0 1 sctp 1480 -------D 0 0.0 1.0 2 66 68 0 65
r 5.545376 1 0 sctp 48 -------S 0 1.0 0.0 1 56 63 65535 65535
+ 5.545376 0 1 sctp 1480 -------D 0 0.0 1.0 2 67 69 0 66
+ 5.545376 0 1 sctp 1480 -------D 0 0.0 1.0 2 68 69 0 67
- 5.545376 0 1 sctp 1480 -------D 0 0.0 1.0 2 67 69 0 66
- 5.545376 0 1 sctp 1480 -------D 0 0.0 1.0 2 68 69 0 67
r 5.750656 0 1 sctp 1480 -------D 0 0.0 1.0 2 57 64 0 56
r 5.750656 0 1 sctp 1480 -------D 0 0.0 1.0 2 58 64 0 57
+ 5.750656 1 0 sctp 48 -------S 0 1.0 0.0 1 58 70 65535 65535
- 5.750656 1 0 sctp 48 -------S 0 1.0 0.0 1 58 70 65535 65535
r 5.774336 0 1 sctp 1480 -------D 0 0.0 1.0 2 59 65 0 58
r 5.774336 0 1 sctp 1480 -------D 0 0.0 1.0 2 60 65 0 59
+ 5.774336 1 0 sctp 48 -------S 0 1.0 0.0 1 60 71 65535 65535
- 5.774336 1 0 sctp 48 -------S 0 1.0 0.0 1 60 71 65535 65535
r 5.798016 0 1 sctp 1480 -------D 0 0.0 1.0 2 61 66 0 60
r 5.798016 0 1 sctp 1480 -------D 0 0.0 1.0 2 62 66 0 61
+ 5.798016 1 0 sctp 48 -------S 0 1.0 0.0 1 62 72 65535 65535
- 5.798016 1 0 sctp 48 -------S 0 1.0 0.0 1 62 72 65535 65535
r 5.821696 0 1 sctp 1480 -------D 0 0.0 1.0 2 63 67 0 62
r 5.821696 0 1 sctp 1480 -------D 0 0.0 1.0 2 64 67 0 63
+ 5.821696 1 0 sctp 48 -------S 0 1.0 0.0 1 64 73 65535 65535
- 5.821696 1 0 sctp 48 -------S 0 1.0 0.0 1 64 73 65535 65535
r 5.845376 0 1 sctp 1480 -------D 0 0.0 1.0 2 65 68 0 64
r 5.845376 0 1 sctp 1480 -------D 0 0.0 1.0 2 66 68 0 65
+ 5.845376 1 0 sctp 48 -------S 0 1.0 0.0 1 66 74 65535 65535
- 5.845376 1 0 sctp 48 -------S 0 1.0 0.0 1 66 74 65535 65535
r 5.869056 0 1 sctp 1480 -------D 0 0.0 1.0 2 67 69 0 66
r 5.869056 0 1 sctp 1480 -------D 0 0.0 1.0 2 68 69 0 67
+ 5.869056 1 0 sctp 48 -------S 0 1.0 0.0 1 68 75 65535 65535
- 5.869056 1 0 sctp 48 -------S 0 1.0 0.0 1 68 75 65535 65535
r 6.051424 1 0 sctp 48 -------S 0 1.0 0.0 1 58 70 65535 65535
+ 6.051424 0 1 sctp 1480 -------D 0 0.0 1.0 2 69 76 0 68
+ 6.051424 0 1 sctp 1480 -------D 0 0.0 1.0 2 70 76 0 69
- 6.051424 0 1 sctp 1480 -------D 0 0.0 1.0 2 69 76 0 68
- 6.051424 0 1 sctp 1480 -------D 0 0.0 1.0 2 70 76 0 69
r 6.075104 1 0 sctp 48 -------S 0 1.0 0.0 1 60 71 65535 65535
+ 6.075104 0 1 sctp 1480 -------D 0 0.0 1.0 2 71 77 0 70
+ 6.075104 0 1 sctp 1480 -------D 0 0.0 1.0 2 72 77 0 71
- 6.075104 0 1 sctp 1480 -------D 0 0.0 1.0 2 71 77 0 70
- 6.075104 0 1 sctp 1480 -------D 0 0.0 1.0 2 72 77 0 71
r 6.098784 1 0 sctp 48 -------S 0 1.0 0.0 1 62 72 65535 65535
+ 6.098784 0 1 sctp 1480 -------D 0 0.0 1.0 2 73 78 0 72
+ 6.098784 0 1 sctp 1480 -------D 0 0.0 1.0 2 74 78 0 73
- 6.098784 0 1 sctp 1480 -------D 0 0.0 1.0 2 73 78 0 72
- 6.098784 0 1 sctp 1480 -------D 0 0.0 1.0 2 74 78 0 73
r 6.122464 1 0 sctp 48 -------S 0 1.0 0.0 1 64 73 65535 65535
+ 6.122464 0 1 sctp 1480 -------D 0 0.0 1.0 2 75 79 0 74
+ 6.122464 0 1 sctp 1480 -------D 0 0.0 1.0 2 76 79 0 75
- 6.122464 0 1 sctp 1480 -------D 0 0.0 1.0 2 75 79 0 74
- 6.122464 0 1 sctp 1480 -------D 0 0.0 1.0 2 76 79 0 75
r 6.146144 1 0 sctp 48 -------S 0 1.0 0.0 1 66 74 65535 65535
+ 6.146144 0 1 sctp 1480 -------D 0 0.0 1.0 2 77 80 0 76
+ 6.146144 0 1 sctp 1480 -------D 0 0.0 1.0 2 78 80 0 77
- 6.146144 0 1 sctp 1480 -------D 0 0.0 1.0 2 77 80 0 76
- 6.146144 0 1 sctp 1480 -------D 0 0.0 1.0 2 78 80 0 77
r 6.169824 1 0 sctp 48 -------S 0 1.0 0.0 1 68 75 65535 65535
+ 6.169824 0 1 sctp 1480 -------D 0 0.0 1.0 2 79 81 0 78
+ 6.169824 0 1 sctp 1480 -------D 0 0.0 1.0 2 80 81 0 79
- 6.169824 0 1 sctp 1480 -------D 0 0.0 1.0 2 79 81 0 78
- 6.169824 0 1 sctp 1480 -------D 0 0.0 1.0 2 80 81 0 79
r 6.375104 0 1 sctp 1480 -------D 0 0.0 1.0 2 69 76 0 68
r 6.375104 0 1 sctp 1480 -------D 0 0.0 1.0 2 70 76 0 69
+ 6.375104 1 0 sctp 48 -------S 0 1.0 0.0 1 70 82 65535 65535
- 6.375104 1 0 sctp 48 -------S 0 1.0 0.0 1 70 82 65535 65535
r 6.398784 0 1 sctp 1480 -------D 0 0.0 1.0 2 71 77 0 70
r 6.398784 0 1 sctp 1480 -------D 0 0.0 1.0 2 72 77 0 71
+ 6.398784 1 0 sctp 48 -------S 0 1.0 0.0 1 72 83 65535 65535
- 6.398784 1 0 sctp 48 -------S 0 1.0 0.0 1 72 83 65535 65535
r 6.422464 0 1 sctp 1480 -------D 0 0.0 1.0 2 73 78 0 72
r 6.422464 0 1 sctp 1480 -------D 0 0.0 1.0 2 74 78 0 73
+ 6.422464 1 0 sctp 48 -------S 0 1.0 0.0 1 74 84 65535 65535
- 6.422464 1 0 sctp 48 -------S 0 1.0 0.0 1 74 84 65535 65535
r 6.446144 0 1 sctp 1480 -------D 0 0.0 1.0 2 75 79 0 74
r 6.446144 0 1 sctp 1480 -------D 0 0.0 1.0 2 76 79 0 75
+ 6.446144 1 0 sctp 48 -------S 0 1.0 0.0 1 76 85 65535 65535
- 6.446144 1 0 sctp 48 -------S 0 1.0 0.0 1 76 85 65535 65535
r 6.469824 0 1 sctp 1480 -------D 0 0.0 1.0 2 77 80 0 76
r 6.469824 0 1 sctp 1480 -------D 0 0.0 1.0 2 78 80 0 77
+ 6.469824 1 0 sctp 48 -------S 0 1.0 0.0 1 78 86 65535 65535
- 6.469824 1 0 sctp 48 -------S 0 1.0 0.0 1 78 86 65535 65535
r 6.493504 0 1 sctp 1480 -------D 0 0.0 1.0 2 79 81 0 78
r 6.493504 0 1 sctp 1480 -------D 0 0.0 1.0 2 80 81 0 79
+ 6.493504 1 0 sctp 48 -------S 0 1.0 0.0 1 80 87 65535 65535
- 6.493504 1 0 sctp 48 -------S 0 1.0 0.0 1 80 87 65535 65535
r 6.675872 1 0 sctp 48 -------S 0 1.0 0.0 1 70 82 65535 65535
+ 6.675872 0 1 sctp 1480 -------D 0 0.0 1.0 2 81 88 0 80
+ 6.675872 0 1 sctp 1480 -------D 0 0.0 1.0 2 82 88 0 81
- 6.675872 0 1 sctp 1480 -------D 0 0.0 1.0 2 81 88 0 80
- 6.675872 0 1 sctp 1480 -------D 0 0.0 1.0 2 82 88 0 81
r 6.699552 1 0 sctp 48 -------S 0 1.0 0.0 1 72 83 65535 65535
+ 6.699552 0 1 sctp 1480 -------D 0 0.0 1.0 2 83 89 0 82
+ 6.699552 0 1 sctp 1480 -------D 0 0.0 1.0 2 84 89 0 83
- 6.699552 0 1 sctp 1480 -------D 0 0.0 1.0 2 83 89 0 82
- 6.699552 0 1 sctp 1480 -------D 0 0.0 1.0 2 84 89 0 83
r 6.723232 1 0 sctp 48 -------S 0 1.0 0.0 1 74 84 65535 65535
+ 6.723232 0 1 sctp 1480 -------D 0 0.0 1.0 2 85 90 0 84
+ 6.723232 0 1 sctp 1480 -------D 0 0.0 1.0 2 86 90 0 85
- 6.723232 0 1 sctp 1480 -------D 0 0.0 1.0 2 85 90 0 84
- 6.723232 0 1 sctp 1480 -------D 0 0.0 1.0 2 86 90 0 85
r 6.746912 1 0 sctp 48 -------S 0 1.0 0.0 1 76 85 65535 65535
+ 6.746912 0 1 sctp 1480 -------D 0 0.0 1.0 2 87 91 0 86
+ 6.746912 0 1 sctp 1480 -------D 0 0.0 1.0 2 88 91 0 87
- 6.746912 0 1 sctp 1480 -------D 0 0.0 1.0 2 87 91 0 86
- 6.746912 0 1 sctp 1480 -------D 0 0.0 1.0 2 88 91 0 87
r 6.770592 1 0 sctp 48 -------S 0 1.0 0.0 1 78 86 65535 65535
+ 6.770592 0 1 sctp 1480 -------D 0 0.0 1.0 2 89 92 0 88
+ 6.770592 0 1 sctp 1480 -------D 0 0.0 1.0 2 90 92 0 89
- 6.770592 0 1 sctp 1480 -------D 0 0.0 1.0 2 89 92 0 88
- 6.770592 0 1 sctp 1480 -------D 0 0.0 1.0 2 90 92 0 89
r 6.794272 1 0 sctp 48 -------S 0 1.0 0.0 1 80 87 65535 65535
+ 6.794272 0 1 sctp 1480 -------D 0 0.0 1.0 2 91 93 0 90
+ 6.794272 0 1 sctp 1480 -------D 0 0.0 1.0 2 92 93 0 91
- 6.794272 0 1 sctp 1480 -------D 0 0.0 1.0 2 91 93 0 90
- 6.794272 0 1 sctp 1480 -------D 0 0.0 1.0 2 92 93 0 91
r 6.999552 0 1 sctp 1480 -------D 0 0.0 1.0 2 81 88 0 80
r 6.999552 0 1 sctp 1480 -------D 0 0.0 1.0 2 82 88 0 81
+ 6.999552 1 0 sctp 48 -------S 0 1.0 0.0 1 82 94 65535 65535
- 6.999552 1 0 sctp 48 -------S 0 1.0 0.0 1 82 94 65535 65535
r 7.023232 0 1 sctp 1480 -------D 0 0.0 1.0 2 83 89 0 82
r 7.023232 0 1 sctp 1480 -------D 0 0.0 1.0 2 84 89 0 83
+ 7.023232 1 0 sctp 48 -------S 0 1.0 0.0 1 84 95 65535 65535
- 7.023232 1 0 sctp 48 -------S 0 1.0 0.0 1 84 95 65535 65535
r 7.046912 0 1 sctp 1480 -------D 0 0.0 1.0 2 85 90 0 84
r 7.046912 0 1 sctp 1480 -------D 0 0.0 1.0 2 86 90 0 85
+ 7.046912 1 0 sctp 48 -------S 0 1.0 0.0 1 86 96 65535 65535
- 7.046912 1 0 sctp 48 -------S 0 1.0 0.0 1 86 96 65535 65535
r 7.070592 0 1 sctp 1480 -------D 0 0.0 1.0 2 87 91 0 86
r 7.070592 0 1 sctp 1480 -------D 0 0.0 1.0 2 88 91 0 87
+ 7.070592 1 0 sctp 48 -------S 0 1.0 0.0 1 88 97 65535 65535
- 7.070592 1 0 sctp 48 -------S 0 1.0 0.0 1 88 97 65535 65535
r 7.094272 0 1 sctp 1480 -------D 0 0.0 1.0 2 89 92 0 88
r 7.094272 0 1 sctp 1480 -------D 0 0.0 1.0 2 90 92 0 89
+ 7.094272 1 0 sctp 48 -------S 0 1.0 0.0 1 90 98 65535 65535
- 7.094272 1 0 sctp 48 -------S 0 1.0 0.0 1 90 98 65535 65535
r 7.117952 0 1 sctp 1480 -------D 0 0.0 1.0 2 91 93 0 90
r 7.117952 0 1 sctp 1480 -------D 0 0.0 1.0 2 92 93 0 91
+ 7.117952 1 0 sctp 48 -------S 0 1.0 0.0 1 92 99 65535 65535
- 7.117952 1 0 sctp 48 -------S 0 1.0 0.0 1 92 99 65535 65535
r 7.30032 1 0 sctp 48 -------S 0 1.0 0.0 1 82 94 65535 65535
+ 7.30032 0 1 sctp 1480 -------D 0 0.0 1.0 2 93 100 0 92
+ 7.30032 0 1 sctp 1480 -------D 0 0.0 1.0 2 94 100 0 93
- 7.30032 0 1 sctp 1480 -------D 0 0.0 1.0 2 93 100 0 92
- 7.30032 0 1 sctp 1480 -------D 0 0.0 1.0 2 94 100 0 93
r 7.324 1 0 sctp 48 -------S 0 1.0 0.0 1 84 95 65535 65535
+ 7.324 0 1 sctp 1480 -------D 0 0.0 1.0 2 95 101 0 94
+ 7.324 0 1 sctp 1480 -------D 0 0.0 1.0 2 96 101 0 95
- 7.324 0 1 sctp 1480 -------D 0 0.0 1.0 2 95 101 0 94
- 7.324 0 1 sctp 1480 -------D 0 0.0 1.0 2 96 101 0 95
r 7.34768 1 0 sctp 48 -------S 0 1.0 0.0 1 86 96 65535 65535
+ 7.34768 0 1 sctp 1480 -------D 0 0.0 1.0 2 97 102 0 96
+ 7.34768 0 1 sctp 1480 -------D 0 0.0 1.0 2 98 102 0 97
- 7.34768 0 1 sctp 1480 -------D 0 0.0 1.0 2 97 102 0 96
- 7.34768 0 1 sctp 1480 -------D 0 0.0 1.0 2 98 102 0 97
r 7.37136 1 0 sctp 48 -------S 0 1.0 0.0 1 88 97 65535 65535
+ 7.37136 0 1 sctp 1480 -------D 0 0.0 1.0 2 99 103 0 98
+ 7.37136 0 1 sctp 1480 -------D 0 0.0 1.0 2 100 103 0 99
- 7.37136 0 1 sctp 1480 -------D 0 0.0 1.0 2 99 103 0 98
- 7.37136 0 1 sctp 1480 -------D 0 0.0 1.0 2 100 103 0 99
r 7.39504 1 0 sctp 48 -------S 0 1.0 0.0 1 90 98 65535 65535
+ 7.39504 0 1 sctp 1480 -------D 0 0.0 1.0 2 101 104 0 100
+ 7.39504 0 1 sctp 1480 -------D 0 0.0 1.0 2 102 104 0 101
- 7.39504 0 1 sctp 1480 -------D 0 0.0 1.0 2 101 104 0 100
- 7.39504 0 1 sctp 1480 -------D 0 0.0 1.0 2 102 104 0 101
r 7.41872 1 0 sctp 48 -------S 0 1.0 0.0 1 92 99 65535 65535
+ 7.41872 0 1 sctp 1480 -------D 0 0.0 1.0 2 103 105 0 102
+ 7.41872 0 1 sctp 1480 -------D 0 0.0 1.0 2 104 105 0 103
- 7.41872 0 1 sctp 1480 -------D 0 0.0 1.0 2 103 105 0 102
- 7.41872 0 1 sctp 1480 -------D 0 0.0 1.0 2 104 105 0 103
r 7.624 0 1 sctp 1480 -------D 0 0.0 1.0 2 93 100 0 92
r 7.624 0 1 sctp 1480 -------D 0 0.0 1.0 2 94 100 0 93
+ 7.624 1 0 sctp 48 -------S 0 1.0 0.0 1 94 106 65535 65535
- 7.624 1 0 sctp 48 -------S 0 1.0 0.0 1 94 106 65535 65535
r 7.64768 0 1 sctp 1480 -------D 0 0.0 1.0 2 95 101 0 94
r 7.64768 0 1 sctp 1480 -------D 0 0.0 1.0 2 96 101 0 95
+ 7.64768 1 0 sctp 48 -------S 0 1.0 0.0 1 96 107 65535 65535
- 7.64768 1 0 sctp 48 -------S 0 1.0 0.0 1 96 107 65535 65535
r 7.67136 0 1 sctp 1480 -------D 0 0.0 1.0 2 97 102 0 96
r 7.67136 0 1 sctp 1480 -------D 0 0.0 1.0 2 98 102 0 97
+ 7.67136 1 0 sctp 48 -------S 0 1.0 0.0 1 98 108 65535 65535
- 7.67136 1 0 sctp 48 -------S 0 1.0 0.0 1 98 108 65535 65535
r 7.69504 0 1 sctp 1480 -------D 0 0.0 1.0 2 99 103 0 98
r 7.69504 0 1 sctp 1480 -------D 0 0.0 1.0 2 100 103 0 99
+ 7.69504 1 0 sctp 48 -------S 0 1.0 0.0 1 100 109 65535 65535
- 7.69504 1 0 sctp 48 -------S 0 1.0 0.0 1 100 109 65535 65535
r 7.71872 0 1 sctp 1480 -------D 0 0.0 1.0 2 101 104 0 100
r 7.71872 0 1 sctp 1480 -------D 0 0.0 1.0 2 102 104 0 101
+ 7.71872 1 0 sctp 48 -------S 0 1.0 0.0 1 102 110 65535 65535
- 7.71872 1 0 sctp 48 -------S 0 1.0 0.0 1 102 110 65535 65535
r 7.7424 0 1 sctp 1480 -------D 0 0.0 1.0 2 103 105 0 102
r 7.7424 0 1 sctp 1480 -------D 0 0.0 1.0 2 104 105 0 103
+ 7.7424 1 0 sctp 48 -------S 0 1.0 0.0 1 104 111 65535 65535
- 7.7424 1 0 sctp 48 -------S 0 1.0 0.0 1 104 111 65535 65535
r 7.924768 1 0 sctp 48 -------S 0 1.0 0.0 1 94 106 65535 65535
+ 7.924768 0 1 sctp 1480 -------D 0 0.0 1.0 2 105 112 0 104
+ 7.924768 0 1 sctp 1480 -------D 0 0.0 1.0 2 106 112 0 105
- 7.924768 0 1 sctp 1480 -------D 0 0.0 1.0 2 105 112 0 104
- 7.924768 0 1 sctp 1480 -------D 0 0.0 1.0 2 106 112 0 105
r 7.948448 1 0 sctp 48 -------S 0 1.0 0.0 1 96 107 65535 65535
+ 7.948448 0 1 sctp 1480 -------D 0 0.0 1.0 2 107 113 0 106
+ 7.948448 0 1 sctp 1480 -------D 0 0.0 1.0 2 108 113 0 107
- 7.948448 0 1 sctp 1480 -------D 0 0.0 1.0 2 107 113 0 106
- 7.948448 0 1 sctp 1480 -------D 0 0.0 1.0 2 108 113 0 107
r 7.972128 1 0 sctp 48 -------S 0 1.0 0.0 1 98 108 65535 65535
+ 7.972128 0 1 sctp 1480 -------D 0 0.0 1.0 2 109 114 0 108
+ 7.972128 0 1 sctp 1480 -------D 0 0.0 1.0 2 110 114 0 109
- 7.972128 0 1 sctp 1480 -------D 0 0.0 1.0 2 109 114 0 108
- 7.972128 0 1 sctp 1480 -------D 0 0.0 1.0 2 110 114 0 109
r 7.995808 1 0 sctp 48 -------S 0 1.0 0.0 1 100 109 65535 65535
+ 7.995808 0 1 sctp 1480 -------D 0 0.0 1.0 2 111 115 0 110
+ 7.995808 0 1 sctp 1480 -------D 0 0.0 1.0 2 112 115 0 111
- 7.995808 0 1 sctp 1480 -------D 0 0.0 1.0 2 111 115 0 110
- 7.995808 0 1 sctp 1480 -------D 0 0.0 1.0 2 112 115 0 111
r 8.019488 1 0 sctp 48 -------S 0 1.0 0.0 1 102 110 65535 65535
+ 8.019488 0 1 sctp 1480 -------D 0 0.0 1.0 2 113 116 0 112
+ 8.019488 0 1 sctp 1480 -------D 0 0.0 1.0 2 114 116 0 113
- 8.019488 0 1 sctp 1480 -------D 0 0.0 1.0 2 113 116 0 112
- 8.019488 0 1 sctp 1480 -------D 0 0.0 1.0 2 114 116 0 113
r 8.043168 1 0 sctp 48 -------S 0 1.0 0.0 1 104 111 65535 65535
+ 8.043168 0 1 sctp 1480 -------D 0 0.0 1.0 2 115 117 0 114
+ 8.043168 0 1 sctp 1480 -------D 0 0.0 1.0 2 116 117 0 115
- 8.043168 0 1 sctp 1480 -------D 0 0.0 1.0 2 115 117 0 114
- 8.043168 0 1 sctp 1480 -------D 0 0.0 1.0 2 116 117 0 115
r 8.248448 0 1 sctp 1480 -------D 0 0.0 1.0 2 105 112 0 104
r 8.248448 0 1 sctp 1480 -------D 0 0.0 1.0 2 106 112 0 105