+ 0.5 0 1 sctp 56 -------I 0 0.0 1.0 1 -1 2 65535 65535
- 0.5 0 1 sctp 56 -------I 0 0.0 1.0 1 -1 2 65535 65535
r 0.700896 0 1 sctp 56 -------I 0 0.0 1.0 1 -1 2 65535 65535
+ 0.700896 1 0 sctp 56 -------I 0 1.0 0.0 1 -1 3 65535 65535
- 0.700896 1 0 sctp 56 -------I 0 1.0 0.0 1 -1 3 65535 65535
r 0.901792 1 0 sctp 56 -------I 0 1.0 0.0 1 -1 3 65535 65535
+ 0.901792 0 1 sctp 36 -------I 0 0.0 1.0 1 -1 4 65535 65535
- 0.901792 0 1 sctp 36 -------I 0 0.0 1.0 1 -1 4 65535 65535
r 1.102368 0 1 sctp 36 -------I 0 0.0 1.0 1 -1 4 65535 65535
+ 1.102368 1 0 sctp 36 -------I 0 1.0 0.0 1 -1 5 65535 65535
- 1.102368 1 0 sctp 36 -------I 0 1.0 0.0 1 -1 5 65535 65535
r 1.302944 1 0 sctp 36 -------I 0 1.0 0.0 1 -1 5 65535 65535
+ 1.302944 0 1 sctp 56 -------H 0 0.0 1.0 1 -1 6 65535 65535
- 1.302944 0 1 sctp 56 -------H 0 0.0 1.0 1 -1 6 65535 65535
r 1.50384 0 1 sctp 56 -------H 0 0.0 1.0 1 -1 6 65535 65535
+ 1.50384 1 0 sctp 56 -------B 0 1.0 0.0 1 -1 7 65535 65535
- 1.50384 1 0 sctp 56 -------B 0 1.0 0.0 1 -1 7 65535 65535
r 1.704736 1 0 sctp 56 -------B 0 1.0 0.0 1 -1 7 65535 65535
+ 1.704736 0 1 sctp 1500 -------D 0 0.0 1.0 1 1 8 0 0
- 1.704736 0 1 sctp 1500 -------D 0 0.0 1.0 1 1 8 0 0
+ 1.704736 0 1 sctp 1500 -------D 0 0.0 1.0 1 2 9 0 1
+ 1.704736 0 1 sctp 1500 -------D 0 0.0 1.0 1 3 10 0 2
- 1.728736 0 1 sctp 1500 -------D 0 0.0 1.0 1 2 9 0 1
- 1.752736 0 1 sctp 1500 -------D 0 0.0 1.0 1 3 10 0 2
r 1.928736 0 1 sctp 1500 -------D 0 0.0 1.0 1 1 8 0 0
+ 1.928736 1 0 sctp 48 -------S 0 1.0 0.0 1 1 11 65535 65535
- 1.928736 1 0 sctp 48 -------S 0 1.0 0.0 1 1 11 65535 65535
r 1.952736 0 1 sctp 1500 -------D 0 0.0 1.0 1 2 9 0 1
+ 1.952736 1 0 sctp 48 -------S 0 1.0 0.0 1 2 12 65535 65535
- 1.952736 1 0 sctp 48 -------S 0 1.0 0.0 1 2 12 65535 65535
r 1.976736 0 1 sctp 1500 -------D 0 0.0 1.0 1 3 10 0 2
+ 1.976736 1 0 sctp 48 -------S 0 1.0 0.0 1 3 13 65535 65535
- 1.976736 1 0 sctp 48 -------S 0 1.0 0.0 1 3 13 65535 65535
r 2.129504 1 0 sctp 48 -------S 0 1.0 0.0 1 1 11 65535 65535
+ 2.129504 0 1 sctp 1500 -------D 0 0.0 1.0 1 4 14 0 3
- 2.129504 0 1 sctp 1500 -------D 0 0.0 1.0 1 4 14 0 3
+ 2.129504 0 1 sctp 1500 -------D 0 0.0 1.0 1 5 15 0 4
r 2.153504 1 0 sctp 48 -------S 0 1.0 0.0 1 2 12 65535 65535
+ 2.153504 0 1 sctp 1500 -------D 0 0.0 1.0 1 6 16 0 5
+ 2.153504 0 1 sctp 1500 -------D 0 0.0 1.0 1 7 17 0 6
- 2.153504 0 1 sctp 1500 -------D 0 0.0 1.0 1 5 15 0 4
r 2.177504 1 0 sctp 48 -------S 0 1.0 0.0 1 3 13 65535 65535
+ 2.177504 0 1 sctp 1500 -------D 0 0.0 1.0 1 8 18 0 7
+ 2.177504 0 1 sctp 1500 -------D 0 0.0 1.0 1 9 19 0 8
- 2.177504 0 1 sctp 1500 -------D 0 0.0 1.0 1 6 16 0 5
- 2.201504 0 1 sctp 1500 -------D 0 0.0 1.0 1 7 17 0 6
- 2.225504 0 1 sctp 1500 -------D 0 0.0 1.0 1 8 18 0 7
- 2.249504 0 1 sctp 1500 -------D 0 0.0 1.0 1 9 19 0 8
r 2.353504 0 1 sctp 1500 -------D 0 0.0 1.0 1 4 14 0 3
+ 2.353504 1 0 sctp 48 -------S 0 1.0 0.0 1 4 20 65535 65535
- 2.353504 1 0 sctp 48 -------S 0 1.0 0.0 1 4 20 65535 65535
r 2.377504 0 1 sctp 1500 -------D 0 0.0 1.0 1 5 15 0 4
+ 2.377504 1 0 sctp 48 -------S 0 1.0 0.0 1 5 21 65535 65535
- 2.377504 1 0 sctp 48 -------S 0 1.0 0.0 1 5 21 65535 65535
r 2.401504 0 1 sctp 1500 -------D 0 0.0 1.0 1 6 16 0 5
+ 2.401504 1 0 sctp 48 -------S 0 1.0 0.0 1 6 22 65535 65535
- 2.401504 1 0 sctp 48 -------S 0 1.0 0.0 1 6 22 65535 65535
r 2.425504 0 1 sctp 1500 -------D 0 0.0 1.0 1 7 17 0 6
+ 2.425504 1 0 sctp 48 -------S 0 1.0 0.0 1 7 23 65535 65535
- 2.425504 1 0 sctp 48 -------S 0 1.0 0.0 1 7 23 65535 65535
r 2.449504 0 1 sctp 1500 -------D 0 0.0 1.0 1 8 18 0 7
+ 2.449504 1 0 sctp 48 -------S 0 1.0 0.0 1 8 24 65535 65535
- 2.449504 1 0 sctp 48 -------S 0 1.0 0.0 1 8 24 65535 65535
r 2.473504 0 1 sctp 1500 -------D 0 0.0 1.0 1 9 19 0 8
+ 2.473504 1 0 sctp 48 -------S 0 1.0 0.0 1 9 25 65535 65535
- 2.473504 1 0 sctp 48 -------S 0 1.0 0.0 1 9 25 65535 65535
r 2.554272 1 0 sctp 48 -------S 0 1.0 0.0 1 4 20 65535 65535
+ 2.554272 0 1 sctp 1500 -------D 0 0.0 1.0 1 10 26 0 9
- 2.554272 0 1 sctp 1500 -------D 0 0.0 1.0 1 10 26 0 9
+ 2.554272 0 1 sctp 1500 -------D 0 0.0 1.0 1 11 27 0 10
r 2.578272 1 0 sctp 48 -------S 0 1.0 0.0 1 5 21 65535 65535
+ 2.578272 0 1 sctp 1500 -------D 0 0.0 1.0 1 12 28 0 11
+ 2.578272 0 1 sctp 1500 -------D 0 0.0 1.0 1 13 29 0 12
- 2.578272 0 1 sctp 1500 -------D 0 0.0 1.0 1 11 27 0 10
r 2.602272 1 0 sctp 48 -------S 0 1.0 0.0 1 6 22 65535 65535
+ 2.602272 0 1 sctp 1500 -------D 0 0.0 1.0 1 14 30 0 13
+ 2.602272 0 1 sctp 1500 -------D 0 0.0 1.0 1 15 31 0 14
- 2.602272 0 1 sctp 1500 -------D 0 0.0 1.0 1 12 28 0 11
r 2.626272 1 0 sctp 48 -------S 0 1.0 0.0 1 7 23 65535 65535
+ 2.626272 0 1 sctp 1500 -------D 0 0.0 1.0 1 16 32 0 15
+ 2.626272 0 1 sctp 1500 -------D 0 0.0 1.0 1 17 33 0 16
- 2.626272 0 1 sctp 1500 -------D 0 0.0 1.0 1 13 29 0 12
r 2.650272 1 0 sctp 48 -------S 0 1.0 0.0 1 8 24 65535 65535
d 2.650272 0 1 sctp 1500 -------D 0 0.0 1.0 1 18 34 0 17
d 2.650272 0 1 sctp 1500 -------D 0 0.0 1.0 1 19 35 0 18
- 2.650272 0 1 sctp 1500 -------D 0 0.0 1.0 1 14 30 0 13
r 2.674272 1 0 sctp 48 -------S 0 1.0 0.0 1 9 25 65535 65535
d 2.674272 0 1 sctp 1500 -------D 0 0.0 1.0 1 20 36 0 19
d 2.674272 0 1 sctp 1500 -------D 0 0.0 1.0 1 21 37 0 20
- 2.674272 0 1 sctp 1500 -------D 0 0.0 1.0 1 15 31 0 14
- 2.698272 0 1 sctp 1500 -------D 0 0.0 1.0 1 16 32 0 15
- 2.722272 0 1 sctp 1500 -------D 0 0.0 1.0 1 17 33 0 16
r 2.778272 0 1 sctp 1500 -------D 0 0.0 1.0 1 10 26 0 9
+ 2.778272 1 0 sctp 48 -------S 0 1.0 0.0 1 10 38 65535 65535
- 2.778272 1 0 sctp 48 -------S 0 1.0 0.0 1 10 38 65535 65535
r 2.802272 0 1 sctp 1500 -------D 0 0.0 1.0 1 11 27 0 10
+ 2.802272 1 0 sctp 48 -------S 0 1.0 0.0 1 11 39 65535 65535
- 2.802272 1 0 sctp 48 -------S 0 1.0 0.0 1 11 39 65535 65535
r 2.826272 0 1 sctp 1500 -------D 0 0.0 1.0 1 12 28 0 11
+ 2.826272 1 0 sctp 48 -------S 0 1.0 0.0 1 12 40 65535 65535
- 2.826272 1 0 sctp 48 -------S 0 1.0 0.0 1 12 40 65535 65535
r 2.850272 0 1 sctp 1500 -------D 0 0.0 1.0 1 13 29 0 12
+ 2.850272 1 0 sctp 48 -------S 0 1.0 0.0 1 13 41 65535 65535
- 2.850272 1 0 sctp 48 -------S 0 1.0 0.0 1 13 41 65535 65535
r 2.874272 0 1 sctp 1500 -------D 0 0.0 1.0 1 14 30 0 13
+ 2.874272 1 0 sctp 48 -------S 0 1.0 0.0 1 14 42 65535 65535
- 2.874272 1 0 sctp 48 -------S 0 1.0 0.0 1 14 42 65535 65535
r 2.898272 0 1 sctp 1500 -------D 0 0.0 1.0 1 15 31 0 14
+ 2.898272 1 0 sctp 48 -------S 0 1.0 0.0 1 15 43 65535 65535
- 2.898272 1 0 sctp 48 -------S 0 1.0 0.0 1 15 43 65535 65535
r 2.922272 0 1 sctp 1500 -------D 0 0.0 1.0 1 16 32 0 15
+ 2.922272 1 0 sctp 48 -------S 0 1.0 0.0 1 16 44 65535 65535
- 2.922272 1 0 sctp 48 -------S 0 1.0 0.0 1 16 44 65535 65535
r 2.946272 0 1 sctp 1500 -------D 0 0.0 1.0 1 17 33 0 16
+ 2.946272 1 0 sctp 48 -------S 0 1.0 0.0 1 17 45 65535 65535
- 2.946272 1 0 sctp 48 -------S 0 1.0 0.0 1 17 45 65535 65535
r 2.97904 1 0 sctp 48 -------S 0 1.0 0.0 1 10 38 65535 65535
+ 2.97904 0 1 sctp 1500 -------D 0 0.0 1.0 1 22 46 0 21
- 2.97904 0 1 sctp 1500 -------D 0 0.0 1.0 1 22 46 0 21
+ 2.97904 0 1 sctp 1500 -------D 0 0.0 1.0 1 23 47 0 22
r 3.00304 1 0 sctp 48 -------S 0 1.0 0.0 1 11 39 65535 65535
+ 3.00304 0 1 sctp 1500 -------D 0 0.0 1.0 1 24 48 0 23
+ 3.00304 0 1 sctp 1500 -------D 0 0.0 1.0 1 25 49 0 24
- 3.00304 0 1 sctp 1500 -------D 0 0.0 1.0 1 23 47 0 22
r 3.02704 1 0 sctp 48 -------S 0 1.0 0.0 1 12 40 65535 65535
+ 3.02704 0 1 sctp 1500 -------D 0 0.0 1.0 1 26 50 0 25
+ 3.02704 0 1 sctp 1500 -------D 0 0.0 1.0 1 27 51 0 26
- 3.02704 0 1 sctp 1500 -------D 0 0.0 1.0 1 24 48 0 23
r 3.05104 1 0 sctp 48 -------S 0 1.0 0.0 1 13 41 65535 65535
+ 3.05104 0 1 sctp 1500 -------D 0 0.0 1.0 1 28 52 0 27
+ 3.05104 0 1 sctp 1500 -------D 0 0.0 1.0 1 29 53 0 28
- 3.05104 0 1 sctp 1500 -------D 0 0.0 1.0 1 25 49 0 24
r 3.07504 1 0 sctp 48 -------S 0 1.0 0.0 1 14 42 65535 65535
+ 3.07504 0 1 sctp 1500 -------D 0 0.0 1.0 1 30 54 0 29
+ 3.07504 0 1 sctp 1500 -------D 0 0.0 1.0 1 31 55 0 30
- 3.07504 0 1 sctp 1500 -------D 0 0.0 1.0 1 26 50 0 25
r 3.09904 1 0 sctp 48 -------S 0 1.0 0.0 1 15 43 65535 65535
+ 3.09904 0 1 sctp 1500 -------D 0 0.0 1.0 1 32 56 0 31
+ 3.09904 0 1 sctp 1500 -------D 0 0.0 1.0 1 33 57 0 32
- 3.09904 0 1 sctp 1500 -------D 0 0.0 1.0 1 27 51 0 26
r 3.12304 1 0 sctp 48 -------S 0 1.0 0.0 1 16 44 65535 65535
+ 3.12304 0 1 sctp 1500 -------D 0 0.0 1.0 1 34 58 0 33
+ 3.12304 0 1 sctp 1500 -------D 0 0.0 1.0 1 35 59 0 34
- 3.12304 0 1 sctp 1500 -------D 0 0.0 1.0 1 28 52 0 27
r 3.14704 1 0 sctp 48 -------S 0 1.0 0.0 1 17 45 65535 65535
+ 3.14704 0 1 sctp 1500 -------D 0 0.0 1.0 1 36 60 0 35
+ 3.14704 0 1 sctp 1500 -------D 0 0.0 1.0 1 37 61 0 36
- 3.14704 0 1 sctp 1500 -------D 0 0.0 1.0 1 29 53 0 28
- 3.17104 0 1 sctp 1500 -------D 0 0.0 1.0 1 30 54 0 29
- 3.19504 0 1 sctp 1500 -------D 0 0.0 1.0 1 31 55 0 30
r 3.20304 0 1 sctp 1500 -------D 0 0.0 1.0 1 22 46 0 21
+ 3.20304 1 0 sctp 52 -------S 0 1.0 0.0 1 17 62 65535 65535
- 3.20304 1 0 sctp 52 -------S 0 1.0 0.0 1 17 62 65535 65535
- 3.21904 0 1 sctp 1500 -------D 0 0.0 1.0 1 32 56 0 31
r 3.22704 0 1 sctp 1500 -------D 0 0.0 1.0 1 23 47 0 22
+ 3.22704 1 0 sctp 52 -------S 0 1.0 0.0 1 17 63 65535 65535
- 3.22704 1 0 sctp 52 -------S 0 1.0 0.0 1 17 63 65535 65535
- 3.24304 0 1 sctp 1500 -------D 0 0.0 1.0 1 33 57 0 32
r 3.25104 0 1 sctp 1500 -------D 0 0.0 1.0 1 24 48 0 23
+ 3.25104 1 0 sctp 52 -------S 0 1.0 0.0 1 17 64 65535 65535
- 3.25104 1 0 sctp 52 -------S 0 1.0 0.0 1 17 64 65535 65535
- 3.26704 0 1 sctp 1500 -------D 0 0.0 1.0 1 34 58 0 33
r 3.27504 0 1 sctp 1500 -------D 0 0.0 1.0 1 25 49 0 24
+ 3.27504 1 0 sctp 52 -------S 0 1.0 0.0 1 17 65 65535 65535
- 3.27504 1 0 sctp 52 -------S 0 1.0 0.0 1 17 65 65535 65535
- 3.29104 0 1 sctp 1500 -------D 0 0.0 1.0 1 35 59 0 34
r 3.29904 0 1 sctp 1500 -------D 0 0.0 1.0 1 26 50 0 25
+ 3.29904 1 0 sctp 52 -------S 0 1.0 0.0 1 17 66 65535 65535
- 3.29904 1 0 sctp 52 -------S 0 1.0 0.0 1 17 66 65535 65535
- 3.31504 0 1 sctp 1500 -------D 0 0.0 1.0 1 36 60 0 35
r 3.32304 0 1 sctp 1500 -------D 0 0.0 1.0 1 27 51 0 26
+ 3.32304 1 0 sctp 52 -------S 0 1.0 0.0 1 17 67 65535 65535
- 3.32304 1 0 sctp 52 -------S 0 1.0 0.0 1 17 67 65535 65535
- 3.33904 0 1 sctp 1500 -------D 0 0.0 1.0 1 37 61 0 36
r 3.34704 0 1 sctp 1500 -------D 0 0.0 1.0 1 28 52 0 27
+ 3.34704 1 0 sctp 52 -------S 0 1.0 0.0 1 17 68 65535 65535
- 3.34704 1 0 sctp 52 -------S 0 1.0 0.0 1 17 68 65535 65535
r 3.37104 0 1 sctp 1500 -------D 0 0.0 1.0 1 29 53 0 28
+ 3.37104 1 0 sctp 52 -------S 0 1.0 0.0 1 17 69 65535 65535
- 3.37104 1 0 sctp 52 -------S 0 1.0 0.0 1 17 69 65535 65535
r 3.39504 0 1 sctp 1500 -------D 0 0.0 1.0 1 30 54 0 29
+ 3.39504 1 0 sctp 52 -------S 0 1.0 0.0 1 17 70 65535 65535
- 3.39504 1 0 sctp 52 -------S 0 1.0 0.0 1 17 70 65535 65535
r 3.403872 1 0 sctp 52 -------S 0 1.0 0.0 1 17 62 65535 65535
+ 3.403872 0 1 sctp 1500 -------D 0 0.0 1.0 1 38 71 0 37
- 3.403872 0 1 sctp 1500 -------D 0 0.0 1.0 1 38 71 0 37
r 3.41904 0 1 sctp 1500 -------D 0 0.0 1.0 1 31 55 0 30
+ 3.41904 1 0 sctp 52 -------S 0 1.0 0.0 1 17 72 65535 65535
- 3.41904 1 0 sctp 52 -------S 0 1.0 0.0 1 17 72 65535 65535
r 3.427872 1 0 sctp 52 -------S 0 1.0 0.0 1 17 63 65535 65535
+ 3.427872 0 1 sctp 1500 -------D 0 0.0 1.0 1 39 73 0 38
- 3.427872 0 1 sctp 1500 -------D 0 0.0 1.0 1 39 73 0 38
r 3.44304 0 1 sctp 1500 -------D 0 0.0 1.0 1 32 56 0 31
+ 3.44304 1 0 sctp 52 -------S 0 1.0 0.0 1 17 74 65535 65535
- 3.44304 1 0 sctp 52 -------S 0 1.0 0.0 1 17 74 65535 65535
r 3.451872 1 0 sctp 52 -------S 0 1.0 0.0 1 17 64 65535 65535
+ 3.451872 0 1 sctp 1500 -------D 0 0.0 1.0 1 18 75 0 17
- 3.451872 0 1 sctp 1500 -------D 0 0.0 1.0 1 18 75 0 17
r 3.46704 0 1 sctp 1500 -------D 0 0.0 1.0 1 33 57 0 32
+ 3.46704 1 0 sctp 52 -------S 0 1.0 0.0 1 17 76 65535 65535
- 3.46704 1 0 sctp 52 -------S 0 1.0 0.0 1 17 76 65535 65535
r 3.475872 1 0 sctp 52 -------S 0 1.0 0.0 1 17 65 65535 65535
r 3.49104 0 1 sctp 1500 -------D 0 0.0 1.0 1 34 58 0 33
+ 3.49104 1 0 sctp 52 -------S 0 1.0 0.0 1 17 77 65535 65535
- 3.49104 1 0 sctp 52 -------S 0 1.0 0.0 1 17 77 65535 65535
r 3.499872 1 0 sctp 52 -------S 0 1.0 0.0 1 17 66 65535 65535
r 3.51504 0 1 sctp 1500 -------D 0 0.0 1.0 1 35 59 0 34
+ 3.51504 1 0 sctp 52 -------S 0 1.0 0.0 1 17 78 65535 65535
- 3.51504 1 0 sctp 52 -------S 0 1.0 0.0 1 17 78 65535 65535
r 3.523872 1 0 sctp 52 -------S 0 1.0 0.0 1 17 67 65535 65535
r 3.53904 0 1 sctp 1500 -------D 0 0.0 1.0 1 36 60 0 35
+ 3.53904 1 0 sctp 52 -------S 0 1.0 0.0 1 17 79 65535 65535
- 3.53904 1 0 sctp 52 -------S 0 1.0 0.0 1 17 79 65535 65535
r 3.547872 1 0 sctp 52 -------S 0 1.0 0.0 1 17 68 65535 65535
r 3.56304 0 1 sctp 1500 -------D 0 0.0 1.0 1 37 61 0 36
+ 3.56304 1 0 sctp 52 -------S 0 1.0 0.0 1 17 80 65535 65535
- 3.56304 1 0 sctp 52 -------S 0 1.0 0.0 1 17 80 65535 65535
r 3.571872 1 0 sctp 52 -------S 0 1.0 0.0 1 17 69 65535 65535
r 3.595872 1 0 sctp 52 -------S 0 1.0 0.0 1 17 70 65535 65535
r 3.619872 1 0 sctp 52 -------S 0 1.0 0.0 1 17 72 65535 65535
+ 3.619872 0 1 sctp 1500 -------D 0 0.0 1.0 1 19 81 0 18
- 3.619872 0 1 sctp 1500 -------D 0 0.0 1.0 1 19 81 0 18
r 3.627872 0 1 sctp 1500 -------D 0 0.0 1.0 1 38 71 0 37
+ 3.627872 1 0 sctp 52 -------S 0 1.0 0.0 1 17 82 65535 65535
- 3.627872 1 0 sctp 52 -------S 0 1.0 0.0 1 17 82 65535 65535
r 3.643872 1 0 sctp 52 -------S 0 1.0 0.0 1 17 74 65535 65535
+ 3.643872 0 1 sctp 1500 -------D 0 0.0 1.0 1 20 83 0 19
- 3.643872 0 1 sctp 1500 -------D 0 0.0 1.0 1 20 83 0 19
r 3.651872 0 1 sctp 1500 -------D 0 0.0 1.0 1 39 73 0 38
+ 3.651872 1 0 sctp 52 -------S 0 1.0 0.0 1 17 84 65535 65535
- 3.651872 1 0 sctp 52 -------S 0 1.0 0.0 1 17 84 65535 65535
r 3.667872 1 0 sctp 52 -------S 0 1.0 0.0 1 17 76 65535 65535
+ 3.667872 0 1 sctp 1500 -------D 0 0.0 1.0 1 21 85 0 20
- 3.667872 0 1 sctp 1500 -------D 0 0.0 1.0 1 21 85 0 20
r 3.675872 0 1 sctp 1500 -------D 0 0.0 1.0 1 18 75 0 17
+ 3.675872 1 0 sctp 52 -------S 0 1.0 0.0 1 18 86 65535 65535
- 3.675872 1 0 sctp 52 -------S 0 1.0 0.0 1 18 86 65535 65535
r 3.691872 1 0 sctp 52 -------S 0 1.0 0.0 1 17 77 65535 65535
+ 3.691872 0 1 sctp 1500 -------D 0 0.0 1.0 1 40 87 0 39
- 3.691872 0 1 sctp 1500 -------D 0 0.0 1.0 1 40 87 0 39
r 3.715872 1 0 sctp 52 -------S 0 1.0 0.0 1 17 78 65535 65535
+ 3.715872 0 1 sctp 1500 -------D 0 0.0 1.0 1 41 88 0 40
- 3.715872 0 1 sctp 1500 -------D 0 0.0 1.0 1 41 88 0 40
r 3.739872 1 0 sctp 52 -------S 0 1.0 0.0 1 17 79 65535 65535
+ 3.739872 0 1 sctp 1500 -------D 0 0.0 1.0 1 42 89 0 41
- 3.739872 0 1 sctp 1500 -------D 0 0.0 1.0 1 42 89 0 41
r 3.763872 1 0 sctp 52 -------S 0 1.0 0.0 1 17 80 65535 65535
+ 3.763872 0 1 sctp 1500 -------D 0 0.0 1.0 1 43 90 0 42
- 3.763872 0 1 sctp 1500 -------D 0 0.0 1.0 1 43 90 0 42
r 3.828704 1 0 sctp 52 -------S 0 1.0 0.0 1 17 82 65535 65535
+ 3.828704 0 1 sctp 1500 -------D 0 0.0 1.0 1 44 91 0 43
- 3.828704 0 1 sctp 1500 -------D 0 0.0 1.0 1 44 91 0 43
r 3.843872 0 1 sctp 1500 -------D 0 0.0 1.0 1 19 81 0 18
+ 3.843872 1 0 sctp 52 -------S 0 1.0 0.0 1 19 92 65535 65535
- 3.843872 1 0 sctp 52 -------S 0 1.0 0.0 1 19 92 65535 65535
r 3.852704 1 0 sctp 52 -------S 0 1.0 0.0 1 17 84 65535 65535
+ 3.852704 0 1 sctp 1500 -------D 0 0.0 1.0 1 45 93 0 44
- 3.852704 0 1 sctp 1500 -------D 0 0.0 1.0 1 45 93 0 44
r 3.867872 0 1 sctp 1500 -------D 0 0.0 1.0 1 20 83 0 19
+ 3.867872 1 0 sctp 52 -------S 0 1.0 0.0 1 20 94 65535 65535
- 3.867872 1 0 sctp 52 -------S 0 1.0 0.0 1 20 94 65535 65535
r 3.876704 1 0 sctp 52 -------S 0 1.0 0.0 1 18 86 65535 65535
+ 3.876704 0 1 sctp 1500 -------D 0 0.0 1.0 1 46 95 0 45
- 3.876704 0 1 sctp 1500 -------D 0 0.0 1.0 1 46 95 0 45
r 3.891872 0 1 sctp 1500 -------D 0 0.0 1.0 1 21 85 0 20
+ 3.891872 1 0 sctp 48 -------S 0 1.0 0.0 1 39 96 65535 65535
- 3.891872 1 0 sctp 48 -------S 0 1.0 0.0 1 39 96 65535 65535
r 3.915872 0 1 sctp 1500 -------D 0 0.0 1.0 1 40 87 0 39
+ 3.915872 1 0 sctp 48 -------S 0 1.0 0.0 1 40 97 65535 65535
- 3.915872 1 0 sctp 48 -------S 0 1.0 0.0 1 40 97 65535 65535
r 3.939872 0 1 sctp 1500 -------D 0 0.0 1.0 1 41 88 0 40
+ 3.939872 1 0 sctp 48 -------S 0 1.0 0.0 1 41 98 65535 65535
- 3.939872 1 0 sctp 48 -------S 0 1.0 0.0 1 41 98 65535 65535
r 3.963872 0 1 sctp 1500 -------D 0 0.0 1.0 1 42 89 0 41
+ 3.963872 1 0 sctp 48 -------S 0 1.0 0.0 1 42 99 65535 65535
- 3.963872 1 0 sctp 48 -------S 0 1.0 0.0 1 42 99 65535 65535
r 3.987872 0 1 sctp 1500 -------D 0 0.0 1.0 1 43 90 0 42
+ 3.987872 1 0 sctp 48 -------S 0 1.0 0.0 1 43 100 65535 65535
- 3.987872 1 0 sctp 48 -------S 0 1.0 0.0 1 43 100 65535 65535
r 4.044704 1 0 sctp 52 -------S 0 1.0 0.0 1 19 92 65535 65535
+ 4.044704 0 1 sctp 1500 -------D 0 0.0 1.0 1 47 101 0 46
- 4.044704 0 1 sctp 1500 -------D 0 0.0 1.0 1 47 101 0 46
r 4.052704 0 1 sctp 1500 -------D 0 0.0 1.0 1 44 91 0 43
+ 4.052704 1 0 sctp 48 -------S 0 1.0 0.0 1 44 102 65535 65535
- 4.052704 1 0 sctp 48 -------S 0 1.0 0.0 1 44 102 65535 65535
r 4.068704 1 0 sctp 52 -------S 0 1.0 0.0 1 20 94 65535 65535
+ 4.068704 0 1 sctp 1500 -------D 0 0.0 1.0 1 48 103 0 47
- 4.068704 0 1 sctp 1500 -------D 0 0.0 1.0 1 48 103 0 47
r 4.076704 0 1 sctp 1500 -------D 0 0.0 1.0 1 45 93 0 44
+ 4.076704 1 0 sctp 48 -------S 0 1.0 0.0 1 45 104 65535 65535
- 4.076704 1 0 sctp 48 -------S 0 1.0 0.0 1 45 104 65535 65535
r 4.09264 1 0 sctp 48 -------S 0 1.0 0.0 1 39 96 65535 65535
+ 4.09264 0 1 sctp 1500 -------D 0 0.0 1.0 1 49 105 0 48
+ 4.09264 0 1 sctp 1500 -------D 0 0.0 1.0 1 50 106 0 49
- 4.092704 0 1 sctp 1500 -------D 0 0.0 1.0 1 49 105 0 48
r 4.100704 0 1 sctp 1500 -------D 0 0.0 1.0 1 46 95 0 45
+ 4.100704 1 0 sctp 48 -------S 0 1.0 0.0 1 46 107 65535 65535
- 4.100704 1 0 sctp 48 -------S 0 1.0 0.0 1 46 107 65535 65535
r 4.11664 1 0 sctp 48 -------S 0 1.0 0.0 1 40 97 65535 65535
+ 4.11664 0 1 sctp 1500 -------D 0 0.0 1.0 1 51 108 0 50
- 4.116704 0 1 sctp 1500 -------D 0 0.0 1.0 1 50 106 0 49
r 4.14064 1 0 sctp 48 -------S 0 1.0 0.0 1 41 98 65535 65535
+ 4.14064 0 1 sctp 1500 -------D 0 0.0 1.0 1 52 109 0 51
- 4.140704 0 1 sctp 1500 -------D 0 0.0 1.0 1 51 108 0 50
r 4.16464 1 0 sctp 48 -------S 0 1.0 0.0 1 42 99 65535 65535
+ 4.16464 0 1 sctp 1500 -------D 0 0.0 1.0 1 53 110 0 52
- 4.164704 0 1 sctp 1500 -------D 0 0.0 1.0 1 52 109 0 51
r 4.18864 1 0 sctp 48 -------S 0 1.0 0.0 1 43 100 65535 65535
+ 4.18864 0 1 sctp 1500 -------D 0 0.0 1.0 1 54 111 0 53
- 4.188704 0 1 sctp 1500 -------D 0 0.0 1.0 1 53 110 0 52
- 4.212704 0 1 sctp 1500 -------D 0 0.0 1.0 1 54 111 0 53
r 4.253472 1 0 sctp 48 -------S 0 1.0 0.0 1 44 102 65535 65535
+ 4.253472 0 1 sctp 1500 -------D 0 0.0 1.0 1 55 112 0 54
- 4.253472 0 1 sctp 1500 -------D 0 0.0 1.0 1 55 112 0 54
r 4.268704 0 1 sctp 1500 -------D 0 0.0 1.0 1 47 101 0 46
+ 4.268704 1 0 sctp 48 -------S 0 1.0 0.0 1 47 113 65535 65535
- 4.268704 1 0 sctp 48 -------S 0 1.0 0.0 1 47 113 65535 65535
r 4.277472 1 0 sctp 48 -------S 0 1.0 0.0 1 45 104 65535 65535
+ 4.277472 0 1 sctp 1500 -------D 0 0.0 1.0 1 56 114 0 55
- 4.277472 0 1 sctp 1500 -------D 0 0.0 1.0 1 56 114 0 55
r 4.292704 0 1 sctp 1500 -------D 0 0.0 1.0 1 48 103 0 47
+ 4.292704 1 0 sctp 48 -------S 0 1.0 0.0 1 48 115 65535 65535
- 4.292704 1 0 sctp 48 -------S 0 1.0 0.0 1 48 115 65535 65535
r 4.301472 1 0 sctp 48 -------S 0 1.0 0.0 1 46 107 65535 65535
+ 4.301472 0 1 sctp 1500 -------D 0 0.0 1.0 1 57 116 0 56
- 4.301472 0 1 sctp 1500 -------D 0 0.0 1.0 1 57 116 0 56
r 4.316704 0 1 sctp 1500 -------D 0 0.0 1.0 1 49 105 0 48
+ 4.316704 1 0 sctp 48 -------S 0 1.0 0.0 1 49 117 65535 65535
- 4.316704 1 0 sctp 48 -------S 0 1.0 0.0 1 49 117 65535 65535
r 4.340704 0 1 sctp 1500 -------D 0 0.0 1.0 1 50 106 0 49
+ 4.340704 1 0 sctp 48 -------S 0 1.0 0.0 1 50 118 65535 65535
- 4.340704 1 0 sctp 48 -------S 0 1.0 0.0 1 50 118 65535 65535
r 4.364704 0 1 sctp 1500 -------D 0 0.0 1.0 1 51 108 0 50
+ 4.364704 1 0 sctp 48 -------S 0 1.0 0.0 1 51 119 65535 65535
- 4.364704 1 0 sctp 48 -------S 0 1.0 0.0 1 51 119 65535 65535
r 4.388704 0 1 sctp 1500 -------D 0 0.0 1.0 1 52 109 0 51
+ 4.388704 1 0 sctp 48 -------S 0 1.0 0.0 1 52 120 65535 65535
- 4.388704 1 0 sctp 48 -------S 0 1.0 0.0 1 52 120 65535 65535
r 4.412704 0 1 sctp 1500 -------D 0 0.0 1.0 1 53 110 0 52
+ 4.412704 1 0 sctp 48 -------S 0 1.0 0.0 1 53 121 65535 65535
- 4.412704 1 0 sctp 48 -------S 0 1.0 0.0 1 53 121 65535 65535
r 4.436704 0 1 sctp 1500 -------D 0 0.0 1.0 1 54 111 0 53
+ 4.436704 1 0 sctp 48 -------S 0 1.0 0.0 1 54 122 65535 65535
- 4.436704 1 0 sctp 48 -------S 0 1.0 0.0 1 54 122 65535 65535
r 4.469472 1 0 sctp 48 -------S 0 1.0 0.0 1 47 113 65535 65535
+ 4.469472 0 1 sctp 1500 -------D 0 0.0 1.0 1 58 123 0 57
- 4.469472 0 1 sctp 1500 -------D 0 0.0 1.0 1 58 123 0 57
r 4.477472 0 1 sctp 1500 -------D 0 0.0 1.0 1 55 112 0 54
+ 4.477472 1 0 sctp 48 -------S 0 1.0 0.0 1 55 124 65535 65535
- 4.477472 1 0 sctp 48 -------S 0 1.0 0.0 1 55 124 65535 65535
r 4.493472 1 0 sctp 48 -------S 0 1.0 0.0 1 48 115 65535 65535
+ 4.493472 0 1 sctp 1500 -------D 0 0.0 1.0 1 59 125 0 58
- 4.493472 0 1 sctp 1500 -------D 0 0.0 1.0 1 59 125 0 58
r 4.501472 0 1 sctp 1500 -------D 0 0.0 1.0 1 56 114 0 55
+ 4.501472 1 0 sctp 48 -------S 0 1.0 0.0 1 56 126 65535 65535
- 4.501472 1 0 sctp 48 -------S 0 1.0 0.0 1 56 126 65535 65535
r 4.517472 1 0 sctp 48 -------S 0 1.0 0.0 1 49 117 65535 65535
+ 4.517472 0 1 sctp 1500 -------D 0 0.0 1.0 1 60 127 0 59
- 4.517472 0 1 sctp 1500 -------D 0 0.0 1.0 1 60 127 0 59
r 4.525472 0 1 sctp 1500 -------D 0 0.0 1.0 1 57 116 0 56
+ 4.525472 1 0 sctp 48 -------S 0 1.0 0.0 1 57 128 65535 65535
- 4.525472 1 0 sctp 48 -------S 0 1.0 0.0 1 57 128 65535 65535
r 4.541472 1 0 sctp 48 -------S 0 1.0 0.0 1 50 118 65535 65535
+ 4.541472 0 1 sctp 1500 -------D 0 0.0 1.0 1 61 129 0 60
+ 4.541472 0 1 sctp 1500 -------D 0 0.0 1.0 1 62 130 0 61
- 4.541472 0 1 sctp 1500 -------D 0 0.0 1.0 1 61 129 0 60
r 4.565472 1 0 sctp 48 -------S 0 1.0 0.0 1 51 119 65535 65535
+ 4.565472 0 1 sctp 1500 -------D 0 0.0 1.0 1 63 131 0 62
- 4.565472 0 1 sctp 1500 -------D 0 0.0 1.0 1 62 130 0 61
r 4.589472 1 0 sctp 48 -------S 0 1.0 0.0 1 52 120 65535 65535
+ 4.589472 0 1 sctp 1500 -------D 0 0.0 1.0 1 64 132 0 63
- 4.589472 0 1 sctp 1500 -------D 0 0.0 1.0 1 63 131 0 62
r 4.613472 1 0 sctp 48 -------S 0 1.0 0.0 1 53 121 65535 65535
+ 4.613472 0 1 sctp 1500 -------D 0 0.0 1.0 1 65 133 0 64
- 4.613472 0 1 sctp 1500 -------D 0 0.0 1.0 1 64 132 0 63
r 4.637472 1 0 sctp 48 -------S 0 1.0 0.0 1 54 122 65535 65535
+ 4.637472 0 1 sctp 1500 -------D 0 0.0 1.0 1 66 134 0 65
- 4.637472 0 1 sctp 1500 -------D 0 0.0 1.0 1 65 133 0 64
- 4.661472 0 1 sctp 1500 -------D 0 0.0 1.0 1 66 134 0 65
r 4.67824 1 0 sctp 48 -------S 0 1.0 0.0 1 55 124 65535 65535
+ 4.67824 0 1 sctp 1500 -------D 0 0.0 1.0 1 67 135 0 66
- 4.685472 0 1 sctp 1500 -------D 0 0.0 1.0 1 67 135 0 66
r 4.693472 0 1 sctp 1500 -------D 0 0.0 1.0 1 58 123 0 57
+ 4.693472 1 0 sctp 48 -------S 0 1.0 0.0 1 58 136 65535 65535
- 4.693472 1 0 sctp 48 -------S 0 1.0 0.0 1 58 136 65535 65535
r 4.70224 1 0 sctp 48 -------S 0 1.0 0.0 1 56 126 65535 65535
+ 4.70224 0 1 sctp 1500 -------D 0 0.0 1.0 1 68 137 0 67
- 4.709472 0 1 sctp 1500 -------D 0 0.0 1.0 1 68 137 0 67
r 4.717472 0 1 sctp 1500 -------D 0 0.0 1.0 1 59 125 0 58
+ 4.717472 1 0 sctp 48 -------S 0 1.0 0.0 1 59 138 65535 65535
- 4.717472 1 0 sctp 48 -------S 0 1.0 0.0 1 59 138 65535 65535
r 4.72624 1 0 sctp 48 -------S 0 1.0 0.0 1 57 128 65535 65535
+ 4.72624 0 1 sctp 1500 -------D 0 0.0 1.0 1 69 139 0 68
- 4.733472 0 1 sctp 1500 -------D 0 0.0 1.0 1 69 139 0 68
r 4.741472 0 1 sctp 1500 -------D 0 0.0 1.0 1 60 127 0 59
+ 4.741472 1 0 sctp 48 -------S 0 1.0 0.0 1 60 140 65535 65535
- 4.741472 1 0 sctp 48 -------S 0 1.0 0.0 1 60 140 65535 65535
r 4.765472 0 1 sctp 1500 -------D 0 0.0 1.0 1 61 129 0 60
+ 4.765472 1 0 sctp 48 -------S 0 1.0 0.0 1 61 141 65535 65535
- 4.765472 1 0 sctp 48 -------S 0 1.0 0.0 1 61 141 65535 65535
r 4.789472 0 1 sctp 1500 -------D 0 0.0 1.0 1 62 130 0 61
+ 4.789472 1 0 sctp 48 -------S 0 1.0 0.0 1 62 142 65535 65535
- 4.789472 1 0 sctp 48 -------S 0 1.0 0.0 1 62 142 65535 65535
r 4.813472 0 1 sctp 1500 -------D 0 0.0 1.0 1 63 131 0 62
+ 4.813472 1 0 sctp 48 -------S 0 1.0 0.0 1 63 143 65535 65535
- 4.813472 1 0 sctp 48 -------S 0 1.0 0.0 1 63 143 65535 65535
r 4.837472 0 1 sctp 1500 -------D 0 0.0 1.0 1 64 132 0 63
+ 4.837472 1 0 sctp 48 -------S 0 1.0 0.0 1 64 144 65535 65535
- 4.837472 1 0 sctp 48 -------S 0 1.0 0.0 1 64 144 65535 65535
r 4.861472 0 1 sctp 1500 -------D 0 0.0 1.0 1 65 133 0 64
+ 4.861472 1 0 sctp 48 -------S 0 1.0 0.0 1 65 145 65535 65535
- 4.861472 1 0 sctp 48 -------S 0 1.0 0.0 1 65 145 65535 65535
r 4.885472 0 1 sctp 1500 -------D 0 0.0 1.0 1 66 134 0 65
+ 4.885472 1 0 sctp 48 -------S 0 1.0 0.0 1 66 146 65535 65535
- 4.885472 1 0 sctp 48 -------S 0 1.0 0.0 1 66 146 65535 65535
r 4.89424 1 0 sctp 48 -------S 0 1.0 0.0 1 58 136 65535 65535
+ 4.89424 0 1 sctp 1500 -------D 0 0.0 1.0 1 70 147 0 69
- 4.89424 0 1 sctp 1500 -------D 0 0.0 1.0 1 70 147 0 69
r 4.909472 0 1 sctp 1500 -------D 0 0.0 1.0 1 67 135 0 66
+ 4.909472 1 0 sctp 48 -------S 0 1.0 0.0 1 67 148 65535 65535
- 4.909472 1 0 sctp 48 -------S 0 1.0 0.0 1 67 148 65535 65535
r 4.91824 1 0 sctp 48 -------S 0 1.0 0.0 1 59 138 65535 65535
+ 4.91824 0 1 sctp 1500 -------D 0 0.0 1.0 1 71 149 0 70
- 4.91824 0 1 sctp 1500 -------D 0 0.0 1.0 1 71 149 0 70
r 4.933472 0 1 sctp 1500 -------D 0 0.0 1.0 1 68 137 0 67
+ 4.933472 1 0 sctp 48 -------S 0 1.0 0.0 1 68 150 65535 65535
- 4.933472 1 0 sctp 48 -------S 0 1.0 0.0 1 68 150 65535 65535
r 4.94224 1 0 sctp 48 -------S 0 1.0 0.0 1 60 140 65535 65535
+ 4.94224 0 1 sctp 1500 -------D 0 0.0 1.0 1 72 151 0 71
- 4.94224 0 1 sctp 1500 -------D 0 0.0 1.0 1 72 151 0 71
r 4.957472 0 1 sctp 1500 -------D 0 0.0 1.0 1 69 139 0 68
+ 4.957472 1 0 sctp 48 -------S 0 1.0 0.0 1 69 152 65535 65535
- 4.957472 1 0 sctp 48 -------S 0 1.0 0.0 1 69 152 65535 65535
r 4.96624 1 0 sctp 48 -------S 0 1.0 0.0 1 61 141 65535 65535
+ 4.96624 0 1 sctp 1500 -------D 0 0.0 1.0 1 73 153 0 72
- 4.96624 0 1 sctp 1500 -------D 0 0.0 1.0 1 73 153 0 72
r 4.99024 1 0 sctp 48 -------S 0 1.0 0.0 1 62 142 65535 65535
+ 4.99024 0 1 sctp 1500 -------D 0 0.0 1.0 1 74 154 0 73
+ 4.99024 0 1 sctp 1500 -------D 0 0.0 1.0 1 75 155 0 74
- 4.99024 0 1 sctp 1500 -------D 0 0.0 1.0 1 74 154 0 73
r 5.01424 1 0 sctp 48 -------S 0 1.0 0.0 1 63 143 65535 65535
+ 5.01424 0 1 sctp 1500 -------D 0 0.0 1.0 1 76 156 0 75
- 5.01424 0 1 sctp 1500 -------D 0 0.0 1.0 1 75 155 0 74
r 5.03824 1 0 sctp 48 -------S 0 1.0 0.0 1 64 144 65535 65535
+ 5.03824 0 1 sctp 1500 -------D 0 0.0 1.0 1 77 157 0 76
- 5.03824 0 1 sctp 1500 -------D 0 0.0 1.0 1 76 156 0 75
r 5.06224 1 0 sctp 48 -------S 0 1.0 0.0 1 65 145 65535 65535
+ 5.06224 0 1 sctp 1500 -------D 0 0.0 1.0 1 78 158 0 77
- 5.06224 0 1 sctp 1500 -------D 0 0.0 1.0 1 77 157 0 76
r 5.08624 1 0 sctp 48 -------S 0 1.0 0.0 1 66 146 65535 65535
+ 5.08624 0 1 sctp 1500 -------D 0 0.0 1.0 1 79 159 0 78
- 5.08624 0 1 sctp 1500 -------D 0 0.0 1.0 1 78 158 0 77
r 5.11024 1 0 sctp 48 -------S 0 1.0 0.0 1 67 148 65535 65535
+ 5.11024 0 1 sctp 1500 -------D 0 0.0 1.0 1 80 160 0 79
- 5.11024 0 1 sctp 1500 -------D 0 0.0 1.0 1 79 159 0 78
r 5.11824 0 1 sctp 1500 -------D 0 0.0 1.0 1 70 147 0 69
+ 5.11824 1 0 sctp 48 -------S 0 1.0 0.0 1 70 161 65535 65535
- 5.11824 1 0 sctp 48 -------S 0 1.0 0.0 1 70 161 65535 65535
r 5.13424 1 0 sctp 48 -------S 0 1.0 0.0 1 68 150 65535 65535
+ 5.13424 0 1 sctp 1500 -------D 0 0.0 1.0 1 81 162 0 80
- 5.13424 0 1 sctp 1500 -------D 0 0.0 1.0 1 80 160 0 79
r 5.14224 0 1 sctp 1500 -------D 0 0.0 1.0 1 71 149 0 70
+ 5.14224 1 0 sctp 48 -------S 0 1.0 0.0 1 71 163 65535 65535
- 5.14224 1 0 sctp 48 -------S 0 1.0 0.0 1 71 163 65535 65535
r 5.15824 1 0 sctp 48 -------S 0 1.0 0.0 1 69 152 65535 65535
+ 5.15824 0 1 sctp 1500 -------D 0 0.0 1.0 1 82 164 0 81
- 5.15824 0 1 sctp 1500 -------D 0 0.0 1.0 1 81 162 0 80
r 5.16624 0 1 sctp 1500 -------D 0 0.0 1.0 1 72 151 0 71
+ 5.16624 1 0 sctp 48 -------S 0 1.0 0.0 1 72 165 65535 65535
- 5.16624 1 0 sctp 48 -------S 0 1.0 0.0 1 72 165 65535 65535
- 5.18224 0 1 sctp 1500 -------D 0 0.0 1.0 1 82 164 0 81
r 5.19024 0 1 sctp 1500 -------D 0 0.0 1.0 1 73 153 0 72
+ 5.19024 1 0 sctp 48 -------S 0 1.0 0.0 1 73 166 65535 65535
- 5.19024 1 0 sctp 48 -------S 0 1.0 0.0 1 73 166 65535 65535
r 5.21424 0 1 sctp 1500 -------D 0 0.0 1.0 1 74 154 0 73
+ 5.21424 1 0 sctp 48 -------S 0 1.0 0.0 1 74 167 65535 65535
- 5.21424 1 0 sctp 48 -------S 0 1.0 0.0 1 74 167 65535 65535
r 5.23824 0 1 sctp 1500 -------D 0 0.0 1.0 1 75 155 0 74
+ 5.23824 1 0 sctp 48 -------S 0 1.0 0.0 1 75 168 65535 65535
- 5.23824 1 0 sctp 48 -------S 0 1.0 0.0 1 75 168 65535 65535
r 5.26224 0 1 sctp 1500 -------D 0 0.0 1.0 1 76 156 0 75
+ 5.26224 1 0 sctp 48 -------S 0 1.0 0.0 1 76 169 65535 65535
- 5.26224 1 0 sctp 48 -------S 0 1.0 0.0 1 76 169 65535 65535
r 5.28624 0 1 sctp 1500 -------D 0 0.0 1.0 1 77 157 0 76
+ 5.28624 1 0 sctp 48 -------S 0 1.0 0.0 1 77 170 65535 65535
- 5.28624 1 0 sctp 48 -------S 0 1.0 0.0 1 77 170 65535 65535
r 5.31024 0 1 sctp 1500 -------D 0 0.0 1.0 1 78 158 0 77
+ 5.31024 1 0 sctp 48 -------S 0 1.0 0.0 1 78 171 65535 65535
- 5.31024 1 0 sctp 48 -------S 0 1.0 0.0 1 78 171 65535 65535
r 5.319008 1 0 sctp 48 -------S 0 1.0 0.0 1 70 161 65535 65535
+ 5.319008 0 1 sctp 1500 -------D 0 0.0 1.0 1 83 172 0 82
- 5.319008 0 1 sctp 1500 -------D 0 0.0 1.0 1 83 172 0 82
r 5.33424 0 1 sctp 1500 -------D 0 0.0 1.0 1 79 159 0 78
+ 5.33424 1 0 sctp 48 -------S 0 1.0 0.0 1 79 173 65535 65535
- 5.33424 1 0 sctp 48 -------S 0 1.0 0.0 1 79 173 65535 65535
r 5.343008 1 0 sctp 48 -------S 0 1.0 0.0 1 71 163 65535 65535
+ 5.343008 0 1 sctp 1500 -------D 0 0.0 1.0 1 84 174 0 83
- 5.343008 0 1 sctp 1500 -------D 0 0.0 1.0 1 84 174 0 83
r 5.35824 0 1 sctp 1500 -------D 0 0.0 1.0 1 80 160 0 79
+ 5.35824 1 0 sctp 48 -------S 0 1.0 0.0 1 80 175 65535 65535
- 5.35824 1 0 sctp 48 -------S 0 1.0 0.0 1 80 175 65535 65535
r 5.367008 1 0 sctp 48 -------S 0 1.0 0.0 1 72 165 65535 65535
+ 5.367008 0 1 sctp 1500 -------D 0 0.0 1.0 1 85 176 0 84
- 5.367008 0 1 sctp 1500 -------D 0 0.0 1.0 1 85 176 0 84
r 5.38224 0 1 sctp 1500 -------D 0 0.0 1.0 1 81 162 0 80