+ 0.5 0 1 sctp 60 -------I 0 0.0 1.0 1 -1 2 65535 65535
- 0.5 0 1 sctp 60 -------I 0 0.0 1.0 1 -1 2 65535 65535
r 0.70096 0 1 sctp 60 -------I 0 0.0 1.0 1 -1 2 65535 65535
+ 0.70096 1 0 sctp 56 -------I 0 1.0 0.0 1 -1 3 65535 65535
- 0.70096 1 0 sctp 56 -------I 0 1.0 0.0 1 -1 3 65535 65535
r 0.901856 1 0 sctp 56 -------I 0 1.0 0.0 1 -1 3 65535 65535
+ 0.901856 0 1 sctp 36 -------I 0 0.0 1.0 1 -1 4 65535 65535
- 0.901856 0 1 sctp 36 -------I 0 0.0 1.0 1 -1 4 65535 65535
r 1.102432 0 1 sctp 36 -------I 0 0.0 1.0 1 -1 4 65535 65535
+ 1.102432 1 0 sctp 36 -------I 0 1.0 0.0 1 -1 5 65535 65535
- 1.102432 1 0 sctp 36 -------I 0 1.0 0.0 1 -1 5 65535 65535
r 1.303008 1 0 sctp 36 -------I 0 1.0 0.0 1 -1 5 65535 65535
+ 1.303008 0 1 sctp 56 -------H 0 0.0 1.0 1 -1 6 65535 65535
- 1.303008 0 1 sctp 56 -------H 0 0.0 1.0 1 -1 6 65535 65535
r 1.503904 0 1 sctp 56 -------H 0 0.0 1.0 1 -1 6 65535 65535
+ 1.503904 1 0 sctp 56 -------B 0 1.0 0.0 1 -1 7 65535 65535
- 1.503904 1 0 sctp 56 -------B 0 1.0 0.0 1 -1 7 65535 65535
r 1.7048 1 0 sctp 56 -------B 0 1.0 0.0 1 -1 7 65535 65535
+ 1.7048 0 1 sctp 1500 -------D 0 0.0 1.0 1 1 8 0 0
- 1.7048 0 1 sctp 1500 -------D 0 0.0 1.0 1 1 8 0 0
+ 1.7048 0 1 sctp 1500 -------D 0 0.0 1.0 1 2 9 0 1
+ 1.7048 0 1 sctp 1500 -------D 0 0.0 1.0 1 3 10 0 2
- 1.7288 0 1 sctp 1500 -------D 0 0.0 1.0 1 2 9 0 1
- 1.7528 0 1 sctp 1500 -------D 0 0.0 1.0 1 3 10 0 2
r 1.9288 0 1 sctp 1500 -------D 0 0.0 1.0 1 1 8 0 0
+ 1.9288 1 0 sctp 48 -------S 0 1.0 0.0 1 1 11 65535 65535
- 1.9288 1 0 sctp 48 -------S 0 1.0 0.0 1 1 11 65535 65535
r 1.9528 0 1 sctp 1500 -------D 0 0.0 1.0 1 2 9 0 1
+ 1.9528 1 0 sctp 48 -------S 0 1.0 0.0 1 2 12 65535 65535
- 1.9528 1 0 sctp 48 -------S 0 1.0 0.0 1 2 12 65535 65535
r 1.9768 0 1 sctp 1500 -------D 0 0.0 1.0 1 3 10 0 2
+ 1.9768 1 0 sctp 48 -------S 0 1.0 0.0 1 3 13 65535 65535
- 1.9768 1 0 sctp 48 -------S 0 1.0 0.0 1 3 13 65535 65535
r 2.129568 1 0 sctp 48 -------S 0 1.0 0.0 1 1 11 65535 65535
+ 2.129568 0 1 sctp 1500 -------D 0 0.0 1.0 1 4 14 0 3
- 2.129568 0 1 sctp 1500 -------D 0 0.0 1.0 1 4 14 0 3
+ 2.129568 0 1 sctp 1500 -------D 0 0.0 1.0 1 5 15 0 4
r 2.153568 1 0 sctp 48 -------S 0 1.0 0.0 1 2 12 65535 65535
+ 2.153568 0 1 sctp 1500 -------D 0 0.0 1.0 1 6 16 0 5
+ 2.153568 0 1 sctp 1500 -------D 0 0.0 1.0 1 7 17 0 6
- 2.153568 0 1 sctp 1500 -------D 0 0.0 1.0 1 5 15 0 4
r 2.177568 1 0 sctp 48 -------S 0 1.0 0.0 1 3 13 65535 65535
+ 2.177568 0 1 sctp 1500 -------D 0 0.0 1.0 1 8 18 0 7
+ 2.177568 0 1 sctp 1500 -------D 0 0.0 1.0 1 9 19 0 8
- 2.177568 0 1 sctp 1500 -------D 0 0.0 1.0 1 6 16 0 5
- 2.201568 0 1 sctp 1500 -------D 0 0.0 1.0 1 7 17 0 6
- 2.225568 0 1 sctp 1500 -------D 0 0.0 1.0 1 8 18 0 7
- 2.249568 0 1 sctp 1500 -------D 0 0.0 1.0 1 9 19 0 8
r 2.353568 0 1 sctp 1500 -------D 0 0.0 1.0 1 4 14 0 3
+ 2.353568 1 0 sctp 48 -------S 0 1.0 0.0 1 4 20 65535 65535
- 2.353568 1 0 sctp 48 -------S 0 1.0 0.0 1 4 20 65535 65535
r 2.377568 0 1 sctp 1500 -------D 0 0.0 1.0 1 5 15 0 4
+ 2.377568 1 0 sctp 48 -------S 0 1.0 0.0 1 5 21 65535 65535
- 2.377568 1 0 sctp 48 -------S 0 1.0 0.0 1 5 21 65535 65535
r 2.401568 0 1 sctp 1500 -------D 0 0.0 1.0 1 6 16 0 5
+ 2.401568 1 0 sctp 48 -------S 0 1.0 0.0 1 6 22 65535 65535
- 2.401568 1 0 sctp 48 -------S 0 1.0 0.0 1 6 22 65535 65535
r 2.425568 0 1 sctp 1500 -------D 0 0.0 1.0 1 7 17 0 6
+ 2.425568 1 0 sctp 48 -------S 0 1.0 0.0 1 7 23 65535 65535
- 2.425568 1 0 sctp 48 -------S 0 1.0 0.0 1 7 23 65535 65535
r 2.449568 0 1 sctp 1500 -------D 0 0.0 1.0 1 8 18 0 7
+ 2.449568 1 0 sctp 48 -------S 0 1.0 0.0 1 8 24 65535 65535
- 2.449568 1 0 sctp 48 -------S 0 1.0 0.0 1 8 24 65535 65535
r 2.473568 0 1 sctp 1500 -------D 0 0.0 1.0 1 9 19 0 8
+ 2.473568 1 0 sctp 48 -------S 0 1.0 0.0 1 9 25 65535 65535
- 2.473568 1 0 sctp 48 -------S 0 1.0 0.0 1 9 25 65535 65535
r 2.554336 1 0 sctp 48 -------S 0 1.0 0.0 1 4 20 65535 65535
+ 2.554336 0 1 sctp 1500 -------D 0 0.0 1.0 1 10 26 0 9
- 2.554336 0 1 sctp 1500 -------D 0 0.0 1.0 1 10 26 0 9
+ 2.554336 0 1 sctp 1500 -------D 0 0.0 1.0 1 11 27 0 10
r 2.578336 1 0 sctp 48 -------S 0 1.0 0.0 1 5 21 65535 65535
+ 2.578336 0 1 sctp 1500 -------D 0 0.0 1.0 1 12 28 0 11
+ 2.578336 0 1 sctp 1500 -------D 0 0.0 1.0 1 13 29 0 12
- 2.578336 0 1 sctp 1500 -------D 0 0.0 1.0 1 11 27 0 10
r 2.602336 1 0 sctp 48 -------S 0 1.0 0.0 1 6 22 65535 65535
+ 2.602336 0 1 sctp 1500 -------D 0 0.0 1.0 1 14 30 0 13
d 2.602336 0 1 sctp 1500 -------D 0 0.0 1.0 1 15 31 0 14
- 2.602336 0 1 sctp 1500 -------D 0 0.0 1.0 1 12 28 0 11
r 2.626336 1 0 sctp 48 -------S 0 1.0 0.0 1 7 23 65535 65535
d 2.626336 0 1 sctp 1500 -------D 0 0.0 1.0 1 16 32 0 15
d 2.626336 0 1 sctp 1500 -------D 0 0.0 1.0 1 17 33 0 16
- 2.626336 0 1 sctp 1500 -------D 0 0.0 1.0 1 13 29 0 12
r 2.650336 1 0 sctp 48 -------S 0 1.0 0.0 1 8 24 65535 65535
d 2.650336 0 1 sctp 1500 -------D 0 0.0 1.0 1 18 34 0 17
d 2.650336 0 1 sctp 1500 -------D 0 0.0 1.0 1 19 35 0 18
- 2.650336 0 1 sctp 1500 -------D 0 0.0 1.0 1 14 30 0 13
r 2.674336 1 0 sctp 48 -------S 0 1.0 0.0 1 9 25 65535 65535
+ 2.674336 0 1 sctp 1500 -------D 0 0.0 1.0 1 20 36 0 19
+ 2.674336 0 1 sctp 1500 -------D 0 0.0 1.0 1 21 37 0 20
- 2.674336 0 1 sctp 1500 -------D 0 0.0 1.0 1 20 36 0 19
- 2.698336 0 1 sctp 1500 -------D 0 0.0 1.0 1 21 37 0 20
r 2.778336 0 1 sctp 1500 -------D 0 0.0 1.0 1 10 26 0 9
+ 2.778336 1 0 sctp 48 -------S 0 1.0 0.0 1 10 38 65535 65535
- 2.778336 1 0 sctp 48 -------S 0 1.0 0.0 1 10 38 65535 65535
r 2.802336 0 1 sctp 1500 -------D 0 0.0 1.0 1 11 27 0 10
+ 2.802336 1 0 sctp 48 -------S 0 1.0 0.0 1 11 39 65535 65535
- 2.802336 1 0 sctp 48 -------S 0 1.0 0.0 1 11 39 65535 65535
r 2.826336 0 1 sctp 1500 -------D 0 0.0 1.0 1 12 28 0 11
+ 2.826336 1 0 sctp 48 -------S 0 1.0 0.0 1 12 40 65535 65535
- 2.826336 1 0 sctp 48 -------S 0 1.0 0.0 1 12 40 65535 65535
r 2.850336 0 1 sctp 1500 -------D 0 0.0 1.0 1 13 29 0 12
+ 2.850336 1 0 sctp 48 -------S 0 1.0 0.0 1 13 41 65535 65535
- 2.850336 1 0 sctp 48 -------S 0 1.0 0.0 1 13 41 65535 65535
r 2.874336 0 1 sctp 1500 -------D 0 0.0 1.0 1 14 30 0 13
+ 2.874336 1 0 sctp 48 -------S 0 1.0 0.0 1 14 42 65535 65535
- 2.874336 1 0 sctp 48 -------S 0 1.0 0.0 1 14 42 65535 65535
r 2.898336 0 1 sctp 1500 -------D 0 0.0 1.0 1 20 36 0 19
+ 2.898336 1 0 sctp 52 -------S 0 1.0 0.0 1 14 43 65535 65535
- 2.898336 1 0 sctp 52 -------S 0 1.0 0.0 1 14 43 65535 65535
r 2.922336 0 1 sctp 1500 -------D 0 0.0 1.0 1 21 37 0 20
+ 2.922336 1 0 sctp 52 -------S 0 1.0 0.0 1 14 44 65535 65535
- 2.922336 1 0 sctp 52 -------S 0 1.0 0.0 1 14 44 65535 65535
r 2.979104 1 0 sctp 48 -------S 0 1.0 0.0 1 10 38 65535 65535
+ 2.979104 0 1 sctp 1500 -------D 0 0.0 1.0 1 22 45 0 21
- 2.979104 0 1 sctp 1500 -------D 0 0.0 1.0 1 22 45 0 21
+ 2.979104 0 1 sctp 1500 -------D 0 0.0 1.0 1 23 46 0 22
r 3.003104 1 0 sctp 48 -------S 0 1.0 0.0 1 11 39 65535 65535
+ 3.003104 0 1 sctp 1500 -------D 0 0.0 1.0 1 24 47 0 23
+ 3.003104 0 1 sctp 1500 -------D 0 0.0 1.0 1 25 48 0 24
- 3.003104 0 1 sctp 1500 -------D 0 0.0 1.0 1 23 46 0 22
r 3.027104 1 0 sctp 48 -------S 0 1.0 0.0 1 12 40 65535 65535
+ 3.027104 0 1 sctp 1500 -------D 0 0.0 1.0 1 26 49 0 25
+ 3.027104 0 1 sctp 1500 -------D 0 0.0 1.0 1 27 50 0 26
- 3.027104 0 1 sctp 1500 -------D 0 0.0 1.0 1 24 47 0 23
r 3.051104 1 0 sctp 48 -------S 0 1.0 0.0 1 13 41 65535 65535
+ 3.051104 0 1 sctp 1500 -------D 0 0.0 1.0 1 28 51 0 27
+ 3.051104 0 1 sctp 1500 -------D 0 0.0 1.0 1 29 52 0 28
- 3.051104 0 1 sctp 1500 -------D 0 0.0 1.0 1 25 48 0 24
r 3.075104 1 0 sctp 48 -------S 0 1.0 0.0 1 14 42 65535 65535
+ 3.075104 0 1 sctp 1500 -------D 0 0.0 1.0 1 30 53 0 29
+ 3.075104 0 1 sctp 1500 -------D 0 0.0 1.0 1 31 54 0 30
- 3.075104 0 1 sctp 1500 -------D 0 0.0 1.0 1 26 49 0 25
- 3.099104 0 1 sctp 1500 -------D 0 0.0 1.0 1 27 50 0 26
r 3.099168 1 0 sctp 52 -------S 0 1.0 0.0 1 14 43 65535 65535
+ 3.099168 0 1 sctp 1500 -------D 0 0.0 1.0 1 32 55 0 31
- 3.123104 0 1 sctp 1500 -------D 0 0.0 1.0 1 28 51 0 27
r 3.123168 1 0 sctp 52 -------S 0 1.0 0.0 1 14 44 65535 65535
+ 3.123168 0 1 sctp 1500 -------D 0 0.0 1.0 1 33 56 0 32
- 3.147104 0 1 sctp 1500 -------D 0 0.0 1.0 1 29 52 0 28
- 3.171104 0 1 sctp 1500 -------D 0 0.0 1.0 1 30 53 0 29
- 3.195104 0 1 sctp 1500 -------D 0 0.0 1.0 1 31 54 0 30
r 3.203104 0 1 sctp 1500 -------D 0 0.0 1.0 1 22 45 0 21
+ 3.203104 1 0 sctp 52 -------S 0 1.0 0.0 1 14 57 65535 65535
- 3.203104 1 0 sctp 52 -------S 0 1.0 0.0 1 14 57 65535 65535
- 3.219104 0 1 sctp 1500 -------D 0 0.0 1.0 1 32 55 0 31
r 3.227104 0 1 sctp 1500 -------D 0 0.0 1.0 1 23 46 0 22
+ 3.227104 1 0 sctp 52 -------S 0 1.0 0.0 1 14 58 65535 65535
- 3.227104 1 0 sctp 52 -------S 0 1.0 0.0 1 14 58 65535 65535
- 3.243104 0 1 sctp 1500 -------D 0 0.0 1.0 1 33 56 0 32
r 3.251104 0 1 sctp 1500 -------D 0 0.0 1.0 1 24 47 0 23
+ 3.251104 1 0 sctp 52 -------S 0 1.0 0.0 1 14 59 65535 65535
- 3.251104 1 0 sctp 52 -------S 0 1.0 0.0 1 14 59 65535 65535
r 3.275104 0 1 sctp 1500 -------D 0 0.0 1.0 1 25 48 0 24
+ 3.275104 1 0 sctp 52 -------S 0 1.0 0.0 1 14 60 65535 65535
- 3.275104 1 0 sctp 52 -------S 0 1.0 0.0 1 14 60 65535 65535
r 3.299104 0 1 sctp 1500 -------D 0 0.0 1.0 1 26 49 0 25
+ 3.299104 1 0 sctp 52 -------S 0 1.0 0.0 1 14 61 65535 65535
- 3.299104 1 0 sctp 52 -------S 0 1.0 0.0 1 14 61 65535 65535
r 3.323104 0 1 sctp 1500 -------D 0 0.0 1.0 1 27 50 0 26
+ 3.323104 1 0 sctp 52 -------S 0 1.0 0.0 1 14 62 65535 65535
- 3.323104 1 0 sctp 52 -------S 0 1.0 0.0 1 14 62 65535 65535
r 3.347104 0 1 sctp 1500 -------D 0 0.0 1.0 1 28 51 0 27
+ 3.347104 1 0 sctp 52 -------S 0 1.0 0.0 1 14 63 65535 65535
- 3.347104 1 0 sctp 52 -------S 0 1.0 0.0 1 14 63 65535 65535
r 3.371104 0 1 sctp 1500 -------D 0 0.0 1.0 1 29 52 0 28
+ 3.371104 1 0 sctp 52 -------S 0 1.0 0.0 1 14 64 65535 65535
- 3.371104 1 0 sctp 52 -------S 0 1.0 0.0 1 14 64 65535 65535
r 3.395104 0 1 sctp 1500 -------D 0 0.0 1.0 1 30 53 0 29
+ 3.395104 1 0 sctp 52 -------S 0 1.0 0.0 1 14 65 65535 65535
- 3.395104 1 0 sctp 52 -------S 0 1.0 0.0 1 14 65 65535 65535
r 3.403936 1 0 sctp 52 -------S 0 1.0 0.0 1 14 57 65535 65535
+ 3.403936 0 1 sctp 40 -------R 0 0.0 1.0 1 22 66 65535 65535
- 3.403936 0 1 sctp 40 -------R 0 0.0 1.0 1 22 66 65535 65535
r 3.419104 0 1 sctp 1500 -------D 0 0.0 1.0 1 31 54 0 30
+ 3.419104 1 0 sctp 52 -------S 0 1.0 0.0 1 14 67 65535 65535
- 3.419104 1 0 sctp 52 -------S 0 1.0 0.0 1 14 67 65535 65535
r 3.427936 1 0 sctp 52 -------S 0 1.0 0.0 1 14 58 65535 65535
+ 3.427936 0 1 sctp 40 -------R 0 0.0 1.0 1 23 68 65535 65535
- 3.427936 0 1 sctp 40 -------R 0 0.0 1.0 1 23 68 65535 65535
r 3.443104 0 1 sctp 1500 -------D 0 0.0 1.0 1 32 55 0 31
+ 3.443104 1 0 sctp 52 -------S 0 1.0 0.0 1 14 69 65535 65535
- 3.443104 1 0 sctp 52 -------S 0 1.0 0.0 1 14 69 65535 65535
r 3.451936 1 0 sctp 52 -------S 0 1.0 0.0 1 14 59 65535 65535
+ 3.451936 0 1 sctp 40 -------R 0 0.0 1.0 1 24 70 65535 65535
- 3.451936 0 1 sctp 40 -------R 0 0.0 1.0 1 24 70 65535 65535
r 3.467104 0 1 sctp 1500 -------D 0 0.0 1.0 1 33 56 0 32
+ 3.467104 1 0 sctp 52 -------S 0 1.0 0.0 1 14 71 65535 65535
- 3.467104 1 0 sctp 52 -------S 0 1.0 0.0 1 14 71 65535 65535
r 3.475936 1 0 sctp 52 -------S 0 1.0 0.0 1 14 60 65535 65535
+ 3.475936 0 1 sctp 40 -------R 0 0.0 1.0 1 25 72 65535 65535
- 3.475936 0 1 sctp 40 -------R 0 0.0 1.0 1 25 72 65535 65535
+ 3.475936 0 1 sctp 1500 -------D 0 0.0 1.0 1 34 73 0 33
- 3.476576 0 1 sctp 1500 -------D 0 0.0 1.0 1 34 73 0 33
r 3.499936 1 0 sctp 52 -------S 0 1.0 0.0 1 14 61 65535 65535
+ 3.499936 0 1 sctp 40 -------R 0 0.0 1.0 1 26 74 65535 65535
+ 3.499936 0 1 sctp 1500 -------D 0 0.0 1.0 1 35 75 0 34
- 3.500576 0 1 sctp 40 -------R 0 0.0 1.0 1 26 74 65535 65535
- 3.501216 0 1 sctp 1500 -------D 0 0.0 1.0 1 35 75 0 34
r 3.523936 1 0 sctp 52 -------S 0 1.0 0.0 1 14 62 65535 65535
+ 3.523936 0 1 sctp 40 -------R 0 0.0 1.0 1 27 76 65535 65535
+ 3.523936 0 1 sctp 1500 -------D 0 0.0 1.0 1 36 77 0 35
- 3.525216 0 1 sctp 40 -------R 0 0.0 1.0 1 27 76 65535 65535
- 3.525856 0 1 sctp 1500 -------D 0 0.0 1.0 1 36 77 0 35
r 3.547936 1 0 sctp 52 -------S 0 1.0 0.0 1 14 63 65535 65535
+ 3.547936 0 1 sctp 40 -------R 0 0.0 1.0 1 28 78 65535 65535
+ 3.547936 0 1 sctp 1500 -------D 0 0.0 1.0 1 37 79 0 36
- 3.549856 0 1 sctp 40 -------R 0 0.0 1.0 1 28 78 65535 65535
- 3.550496 0 1 sctp 1500 -------D 0 0.0 1.0 1 37 79 0 36
r 3.571936 1 0 sctp 52 -------S 0 1.0 0.0 1 14 64 65535 65535
+ 3.571936 0 1 sctp 40 -------R 0 0.0 1.0 1 29 80 65535 65535
+ 3.571936 0 1 sctp 1500 -------D 0 0.0 1.0 1 38 81 0 37
- 3.574496 0 1 sctp 40 -------R 0 0.0 1.0 1 29 80 65535 65535
- 3.575136 0 1 sctp 1500 -------D 0 0.0 1.0 1 38 81 0 37
r 3.595936 1 0 sctp 52 -------S 0 1.0 0.0 1 14 65 65535 65535
+ 3.595936 0 1 sctp 40 -------R 0 0.0 1.0 1 30 82 65535 65535
+ 3.595936 0 1 sctp 1500 -------D 0 0.0 1.0 1 39 83 0 38
- 3.599136 0 1 sctp 40 -------R 0 0.0 1.0 1 30 82 65535 65535
- 3.599776 0 1 sctp 1500 -------D 0 0.0 1.0 1 39 83 0 38
r 3.604576 0 1 sctp 40 -------R 0 0.0 1.0 1 22 66 65535 65535
r 3.619936 1 0 sctp 52 -------S 0 1.0 0.0 1 14 67 65535 65535
+ 3.619936 0 1 sctp 40 -------R 0 0.0 1.0 1 31 84 65535 65535
+ 3.619936 0 1 sctp 1500 -------D 0 0.0 1.0 1 40 85 0 39
- 3.623776 0 1 sctp 40 -------R 0 0.0 1.0 1 31 84 65535 65535
- 3.624416 0 1 sctp 1500 -------D 0 0.0 1.0 1 40 85 0 39
r 3.628576 0 1 sctp 40 -------R 0 0.0 1.0 1 23 68 65535 65535
r 3.643936 1 0 sctp 52 -------S 0 1.0 0.0 1 14 69 65535 65535
+ 3.643936 0 1 sctp 40 -------R 0 0.0 1.0 1 32 86 65535 65535
+ 3.643936 0 1 sctp 1500 -------D 0 0.0 1.0 1 41 87 0 40
- 3.648416 0 1 sctp 40 -------R 0 0.0 1.0 1 32 86 65535 65535
- 3.649056 0 1 sctp 1500 -------D 0 0.0 1.0 1 41 87 0 40
r 3.652576 0 1 sctp 40 -------R 0 0.0 1.0 1 24 70 65535 65535
r 3.667936 1 0 sctp 52 -------S 0 1.0 0.0 1 14 71 65535 65535
+ 3.667936 0 1 sctp 40 -------R 0 0.0 1.0 1 33 88 65535 65535
+ 3.667936 0 1 sctp 1500 -------D 0 0.0 1.0 1 42 89 0 41
- 3.673056 0 1 sctp 40 -------R 0 0.0 1.0 1 33 88 65535 65535
- 3.673696 0 1 sctp 1500 -------D 0 0.0 1.0 1 42 89 0 41
r 3.676576 0 1 sctp 40 -------R 0 0.0 1.0 1 25 72 65535 65535
r 3.700576 0 1 sctp 1500 -------D 0 0.0 1.0 1 34 73 0 33
+ 3.700576 1 0 sctp 48 -------S 0 1.0 0.0 1 34 90 65535 65535
- 3.700576 1 0 sctp 48 -------S 0 1.0 0.0 1 34 90 65535 65535
r 3.701216 0 1 sctp 40 -------R 0 0.0 1.0 1 26 74 65535 65535
r 3.725216 0 1 sctp 1500 -------D 0 0.0 1.0 1 35 75 0 34
+ 3.725216 1 0 sctp 48 -------S 0 1.0 0.0 1 35 91 65535 65535
- 3.725216 1 0 sctp 48 -------S 0 1.0 0.0 1 35 91 65535 65535
r 3.725856 0 1 sctp 40 -------R 0 0.0 1.0 1 27 76 65535 65535
r 3.749856 0 1 sctp 1500 -------D 0 0.0 1.0 1 36 77 0 35
+ 3.749856 1 0 sctp 48 -------S 0 1.0 0.0 1 36 92 65535 65535
- 3.749856 1 0 sctp 48 -------S 0 1.0 0.0 1 36 92 65535 65535
r 3.750496 0 1 sctp 40 -------R 0 0.0 1.0 1 28 78 65535 65535
r 3.774496 0 1 sctp 1500 -------D 0 0.0 1.0 1 37 79 0 36
+ 3.774496 1 0 sctp 48 -------S 0 1.0 0.0 1 37 93 65535 65535
- 3.774496 1 0 sctp 48 -------S 0 1.0 0.0 1 37 93 65535 65535
r 3.775136 0 1 sctp 40 -------R 0 0.0 1.0 1 29 80 65535 65535
r 3.799136 0 1 sctp 1500 -------D 0 0.0 1.0 1 38 81 0 37
+ 3.799136 1 0 sctp 48 -------S 0 1.0 0.0 1 38 94 65535 65535
- 3.799136 1 0 sctp 48 -------S 0 1.0 0.0 1 38 94 65535 65535
r 3.799776 0 1 sctp 40 -------R 0 0.0 1.0 1 30 82 65535 65535
r 3.823776 0 1 sctp 1500 -------D 0 0.0 1.0 1 39 83 0 38
+ 3.823776 1 0 sctp 48 -------S 0 1.0 0.0 1 39 95 65535 65535
- 3.823776 1 0 sctp 48 -------S 0 1.0 0.0 1 39 95 65535 65535
r 3.824416 0 1 sctp 40 -------R 0 0.0 1.0 1 31 84 65535 65535
r 3.848416 0 1 sctp 1500 -------D 0 0.0 1.0 1 40 85 0 39
+ 3.848416 1 0 sctp 48 -------S 0 1.0 0.0 1 40 96 65535 65535
- 3.848416 1 0 sctp 48 -------S 0 1.0 0.0 1 40 96 65535 65535
r 3.849056 0 1 sctp 40 -------R 0 0.0 1.0 1 32 86 65535 65535
r 3.873056 0 1 sctp 1500 -------D 0 0.0 1.0 1 41 87 0 40
+ 3.873056 1 0 sctp 48 -------S 0 1.0 0.0 1 41 97 65535 65535
- 3.873056 1 0 sctp 48 -------S 0 1.0 0.0 1 41 97 65535 65535
r 3.873696 0 1 sctp 40 -------R 0 0.0 1.0 1 33 88 65535 65535
r 3.897696 0 1 sctp 1500 -------D 0 0.0 1.0 1 42 89 0 41
+ 3.897696 1 0 sctp 48 -------S 0 1.0 0.0 1 42 98 65535 65535
- 3.897696 1 0 sctp 48 -------S 0 1.0 0.0 1 42 98 65535 65535
r 3.901344 1 0 sctp 48 -------S 0 1.0 0.0 1 34 90 65535 65535
+ 3.901344 0 1 sctp 1500 -------D 0 0.0 1.0 1 43 99 0 42
- 3.901344 0 1 sctp 1500 -------D 0 0.0 1.0 1 43 99 0 42
+ 3.901344 0 1 sctp 1500 -------D 0 0.0 1.0 1 44 100 0 43
- 3.925344 0 1 sctp 1500 -------D 0 0.0 1.0 1 44 100 0 43
r 3.925984 1 0 sctp 48 -------S 0 1.0 0.0 1 35 91 65535 65535
+ 3.925984 0 1 sctp 1500 -------D 0 0.0 1.0 1 45 101 0 44
- 3.949344 0 1 sctp 1500 -------D 0 0.0 1.0 1 45 101 0 44
r 3.950624 1 0 sctp 48 -------S 0 1.0 0.0 1 36 92 65535 65535
+ 3.950624 0 1 sctp 1500 -------D 0 0.0 1.0 1 46 102 0 45
- 3.973344 0 1 sctp 1500 -------D 0 0.0 1.0 1 46 102 0 45
r 3.975264 1 0 sctp 48 -------S 0 1.0 0.0 1 37 93 65535 65535
+ 3.975264 0 1 sctp 1500 -------D 0 0.0 1.0 1 47 103 0 46
- 3.997344 0 1 sctp 1500 -------D 0 0.0 1.0 1 47 103 0 46
r 3.999904 1 0 sctp 48 -------S 0 1.0 0.0 1 38 94 65535 65535
+ 3.999904 0 1 sctp 1500 -------D 0 0.0 1.0 1 48 104 0 47
- 4.021344 0 1 sctp 1500 -------D 0 0.0 1.0 1 48 104 0 47
r 4.024544 1 0 sctp 48 -------S 0 1.0 0.0 1 39 95 65535 65535
+ 4.024544 0 1 sctp 1500 -------D 0 0.0 1.0 1 49 105 0 48
- 4.045344 0 1 sctp 1500 -------D 0 0.0 1.0 1 49 105 0 48
r 4.049184 1 0 sctp 48 -------S 0 1.0 0.0 1 40 96 65535 65535
+ 4.049184 0 1 sctp 1500 -------D 0 0.0 1.0 1 50 106 0 49
- 4.069344 0 1 sctp 1500 -------D 0 0.0 1.0 1 50 106 0 49
r 4.073824 1 0 sctp 48 -------S 0 1.0 0.0 1 41 97 65535 65535
+ 4.073824 0 1 sctp 1500 -------D 0 0.0 1.0 1 51 107 0 50
- 4.093344 0 1 sctp 1500 -------D 0 0.0 1.0 1 51 107 0 50
r 4.098464 1 0 sctp 48 -------S 0 1.0 0.0 1 42 98 65535 65535
+ 4.098464 0 1 sctp 1500 -------D 0 0.0 1.0 1 52 108 0 51
- 4.117344 0 1 sctp 1500 -------D 0 0.0 1.0 1 52 108 0 51
r 4.125344 0 1 sctp 1500 -------D 0 0.0 1.0 1 43 99 0 42
+ 4.125344 1 0 sctp 48 -------S 0 1.0 0.0 1 43 109 65535 65535
- 4.125344 1 0 sctp 48 -------S 0 1.0 0.0 1 43 109 65535 65535
r 4.149344 0 1 sctp 1500 -------D 0 0.0 1.0 1 44 100 0 43
+ 4.149344 1 0 sctp 48 -------S 0 1.0 0.0 1 44 110 65535 65535
- 4.149344 1 0 sctp 48 -------S 0 1.0 0.0 1 44 110 65535 65535
r 4.173344 0 1 sctp 1500 -------D 0 0.0 1.0 1 45 101 0 44
+ 4.173344 1 0 sctp 48 -------S 0 1.0 0.0 1 45 111 65535 65535
- 4.173344 1 0 sctp 48 -------S 0 1.0 0.0 1 45 111 65535 65535
r 4.197344 0 1 sctp 1500 -------D 0 0.0 1.0 1 46 102 0 45
+ 4.197344 1 0 sctp 48 -------S 0 1.0 0.0 1 46 112 65535 65535
- 4.197344 1 0 sctp 48 -------S 0 1.0 0.0 1 46 112 65535 65535
r 4.221344 0 1 sctp 1500 -------D 0 0.0 1.0 1 47 103 0 46
+ 4.221344 1 0 sctp 48 -------S 0 1.0 0.0 1 47 113 65535 65535
- 4.221344 1 0 sctp 48 -------S 0 1.0 0.0 1 47 113 65535 65535
r 4.245344 0 1 sctp 1500 -------D 0 0.0 1.0 1 48 104 0 47
+ 4.245344 1 0 sctp 48 -------S 0 1.0 0.0 1 48 114 65535 65535
- 4.245344 1 0 sctp 48 -------S 0 1.0 0.0 1 48 114 65535 65535
r 4.269344 0 1 sctp 1500 -------D 0 0.0 1.0 1 49 105 0 48
+ 4.269344 1 0 sctp 48 -------S 0 1.0 0.0 1 49 115 65535 65535
- 4.269344 1 0 sctp 48 -------S 0 1.0 0.0 1 49 115 65535 65535
r 4.293344 0 1 sctp 1500 -------D 0 0.0 1.0 1 50 106 0 49
+ 4.293344 1 0 sctp 48 -------S 0 1.0 0.0 1 50 116 65535 65535
- 4.293344 1 0 sctp 48 -------S 0 1.0 0.0 1 50 116 65535 65535
r 4.317344 0 1 sctp 1500 -------D 0 0.0 1.0 1 51 107 0 50
+ 4.317344 1 0 sctp 48 -------S 0 1.0 0.0 1 51 117 65535 65535
- 4.317344 1 0 sctp 48 -------S 0 1.0 0.0 1 51 117 65535 65535
r 4.326112 1 0 sctp 48 -------S 0 1.0 0.0 1 43 109 65535 65535
+ 4.326112 0 1 sctp 1500 -------D 0 0.0 1.0 1 53 118 0 52
- 4.326112 0 1 sctp 1500 -------D 0 0.0 1.0 1 53 118 0 52
r 4.341344 0 1 sctp 1500 -------D 0 0.0 1.0 1 52 108 0 51
+ 4.341344 1 0 sctp 48 -------S 0 1.0 0.0 1 52 119 65535 65535
- 4.341344 1 0 sctp 48 -------S 0 1.0 0.0 1 52 119 65535 65535
r 4.350112 1 0 sctp 48 -------S 0 1.0 0.0 1 44 110 65535 65535
+ 4.350112 0 1 sctp 1500 -------D 0 0.0 1.0 1 54 120 0 53
+ 4.350112 0 1 sctp 1500 -------D 0 0.0 1.0 1 55 121 0 54
- 4.350112 0 1 sctp 1500 -------D 0 0.0 1.0 1 54 120 0 53
r 4.374112 1 0 sctp 48 -------S 0 1.0 0.0 1 45 111 65535 65535
+ 4.374112 0 1 sctp 1500 -------D 0 0.0 1.0 1 56 122 0 55
- 4.374112 0 1 sctp 1500 -------D 0 0.0 1.0 1 55 121 0 54
r 4.398112 1 0 sctp 48 -------S 0 1.0 0.0 1 46 112 65535 65535
+ 4.398112 0 1 sctp 1500 -------D 0 0.0 1.0 1 57 123 0 56
- 4.398112 0 1 sctp 1500 -------D 0 0.0 1.0 1 56 122 0 55
r 4.422112 1 0 sctp 48 -------S 0 1.0 0.0 1 47 113 65535 65535
+ 4.422112 0 1 sctp 1500 -------D 0 0.0 1.0 1 58 124 0 57
- 4.422112 0 1 sctp 1500 -------D 0 0.0 1.0 1 57 123 0 56
r 4.446112 1 0 sctp 48 -------S 0 1.0 0.0 1 48 114 65535 65535
+ 4.446112 0 1 sctp 1500 -------D 0 0.0 1.0 1 59 125 0 58
- 4.446112 0 1 sctp 1500 -------D 0 0.0 1.0 1 58 124 0 57
r 4.470112 1 0 sctp 48 -------S 0 1.0 0.0 1 49 115 65535 65535
+ 4.470112 0 1 sctp 1500 -------D 0 0.0 1.0 1 60 126 0 59
- 4.470112 0 1 sctp 1500 -------D 0 0.0 1.0 1 59 125 0 58
r 4.494112 1 0 sctp 48 -------S 0 1.0 0.0 1 50 116 65535 65535
+ 4.494112 0 1 sctp 1500 -------D 0 0.0 1.0 1 61 127 0 60
- 4.494112 0 1 sctp 1500 -------D 0 0.0 1.0 1 60 126 0 59
r 4.518112 1 0 sctp 48 -------S 0 1.0 0.0 1 51 117 65535 65535
+ 4.518112 0 1 sctp 1500 -------D 0 0.0 1.0 1 62 128 0 61
- 4.518112 0 1 sctp 1500 -------D 0 0.0 1.0 1 61 127 0 60
r 4.542112 1 0 sctp 48 -------S 0 1.0 0.0 1 52 119 65535 65535
+ 4.542112 0 1 sctp 1500 -------D 0 0.0 1.0 1 63 129 0 62
- 4.542112 0 1 sctp 1500 -------D 0 0.0 1.0 1 62 128 0 61
r 4.550112 0 1 sctp 1500 -------D 0 0.0 1.0 1 53 118 0 52
+ 4.550112 1 0 sctp 48 -------S 0 1.0 0.0 1 53 130 65535 65535
- 4.550112 1 0 sctp 48 -------S 0 1.0 0.0 1 53 130 65535 65535
- 4.566112 0 1 sctp 1500 -------D 0 0.0 1.0 1 63 129 0 62
r 4.574112 0 1 sctp 1500 -------D 0 0.0 1.0 1 54 120 0 53
+ 4.574112 1 0 sctp 48 -------S 0 1.0 0.0 1 54 131 65535 65535
- 4.574112 1 0 sctp 48 -------S 0 1.0 0.0 1 54 131 65535 65535
r 4.598112 0 1 sctp 1500 -------D 0 0.0 1.0 1 55 121 0 54
+ 4.598112 1 0 sctp 48 -------S 0 1.0 0.0 1 55 132 65535 65535
- 4.598112 1 0 sctp 48 -------S 0 1.0 0.0 1 55 132 65535 65535
r 4.622112 0 1 sctp 1500 -------D 0 0.0 1.0 1 56 122 0 55
+ 4.622112 1 0 sctp 48 -------S 0 1.0 0.0 1 56 133 65535 65535
- 4.622112 1 0 sctp 48 -------S 0 1.0 0.0 1 56 133 65535 65535
r 4.646112 0 1 sctp 1500 -------D 0 0.0 1.0 1 57 123 0 56
+ 4.646112 1 0 sctp 48 -------S 0 1.0 0.0 1 57 134 65535 65535
- 4.646112 1 0 sctp 48 -------S 0 1.0 0.0 1 57 134 65535 65535
r 4.670112 0 1 sctp 1500 -------D 0 0.0 1.0 1 58 124 0 57
+ 4.670112 1 0 sctp 48 -------S 0 1.0 0.0 1 58 135 65535 65535
- 4.670112 1 0 sctp 48 -------S 0 1.0 0.0 1 58 135 65535 65535
r 4.694112 0 1 sctp 1500 -------D 0 0.0 1.0 1 59 125 0 58
+ 4.694112 1 0 sctp 48 -------S 0 1.0 0.0 1 59 136 65535 65535
- 4.694112 1 0 sctp 48 -------S 0 1.0 0.0 1 59 136 65535 65535
r 4.718112 0 1 sctp 1500 -------D 0 0.0 1.0 1 60 126 0 59
+ 4.718112 1 0 sctp 48 -------S 0 1.0 0.0 1 60 137 65535 65535
- 4.718112 1 0 sctp 48 -------S 0 1.0 0.0 1 60 137 65535 65535
r 4.742112 0 1 sctp 1500 -------D 0 0.0 1.0 1 61 127 0 60
+ 4.742112 1 0 sctp 48 -------S 0 1.0 0.0 1 61 138 65535 65535
- 4.742112 1 0 sctp 48 -------S 0 1.0 0.0 1 61 138 65535 65535
r 4.75088 1 0 sctp 48 -------S 0 1.0 0.0 1 53 130 65535 65535
+ 4.75088 0 1 sctp 1500 -------D 0 0.0 1.0 1 64 139 0 63
- 4.75088 0 1 sctp 1500 -------D 0 0.0 1.0 1 64 139 0 63
r 4.766112 0 1 sctp 1500 -------D 0 0.0 1.0 1 62 128 0 61
+ 4.766112 1 0 sctp 48 -------S 0 1.0 0.0 1 62 140 65535 65535
- 4.766112 1 0 sctp 48 -------S 0 1.0 0.0 1 62 140 65535 65535
r 4.77488 1 0 sctp 48 -------S 0 1.0 0.0 1 54 131 65535 65535
+ 4.77488 0 1 sctp 1500 -------D 0 0.0 1.0 1 65 141 0 64
+ 4.77488 0 1 sctp 1500 -------D 0 0.0 1.0 1 66 142 0 65
- 4.77488 0 1 sctp 1500 -------D 0 0.0 1.0 1 65 141 0 64
r 4.790112 0 1 sctp 1500 -------D 0 0.0 1.0 1 63 129 0 62
+ 4.790112 1 0 sctp 48 -------S 0 1.0 0.0 1 63 143 65535 65535
- 4.790112 1 0 sctp 48 -------S 0 1.0 0.0 1 63 143 65535 65535
r 4.79888 1 0 sctp 48 -------S 0 1.0 0.0 1 55 132 65535 65535
+ 4.79888 0 1 sctp 1500 -------D 0 0.0 1.0 1 67 144 0 66
- 4.79888 0 1 sctp 1500 -------D 0 0.0 1.0 1 66 142 0 65
r 4.82288 1 0 sctp 48 -------S 0 1.0 0.0 1 56 133 65535 65535
+ 4.82288 0 1 sctp 1500 -------D 0 0.0 1.0 1 68 145 0 67
- 4.82288 0 1 sctp 1500 -------D 0 0.0 1.0 1 67 144 0 66
r 4.84688 1 0 sctp 48 -------S 0 1.0 0.0 1 57 134 65535 65535
+ 4.84688 0 1 sctp 1500 -------D 0 0.0 1.0 1 69 146 0 68
- 4.84688 0 1 sctp 1500 -------D 0 0.0 1.0 1 68 145 0 67
r 4.87088 1 0 sctp 48 -------S 0 1.0 0.0 1 58 135 65535 65535
+ 4.87088 0 1 sctp 1500 -------D 0 0.0 1.0 1 70 147 0 69
- 4.87088 0 1 sctp 1500 -------D 0 0.0 1.0 1 69 146 0 68
r 4.89488 1 0 sctp 48 -------S 0 1.0 0.0 1 59 136 65535 65535
+ 4.89488 0 1 sctp 1500 -------D 0 0.0 1.0 1 71 148 0 70
- 4.89488 0 1 sctp 1500 -------D 0 0.0 1.0 1 70 147 0 69
r 4.91888 1 0 sctp 48 -------S 0 1.0 0.0 1 60 137 65535 65535
+ 4.91888 0 1 sctp 1500 -------D 0 0.0 1.0 1 72 149 0 71
- 4.91888 0 1 sctp 1500 -------D 0 0.0 1.0 1 71 148 0 70
r 4.94288 1 0 sctp 48 -------S 0 1.0 0.0 1 61 138 65535 65535
+ 4.94288 0 1 sctp 1500 -------D 0 0.0 1.0 1 73 150 0 72
- 4.94288 0 1 sctp 1500 -------D 0 0.0 1.0 1 72 149 0 71
r 4.96688 1 0 sctp 48 -------S 0 1.0 0.0 1 62 140 65535 65535
+ 4.96688 0 1 sctp 1500 -------D 0 0.0 1.0 1 74 151 0 73
- 4.96688 0 1 sctp 1500 -------D 0 0.0 1.0 1 73 150 0 72
r 4.97488 0 1 sctp 1500 -------D 0 0.0 1.0 1 64 139 0 63
+ 4.97488 1 0 sctp 48 -------S 0 1.0 0.0 1 64 152 65535 65535
- 4.97488 1 0 sctp 48 -------S 0 1.0 0.0 1 64 152 65535 65535
r 4.99088 1 0 sctp 48 -------S 0 1.0 0.0 1 63 143 65535 65535
+ 4.99088 0 1 sctp 1500 -------D 0 0.0 1.0 1 75 153 0 74
- 4.99088 0 1 sctp 1500 -------D 0 0.0 1.0 1 74 151 0 73
r 4.99888 0 1 sctp 1500 -------D 0 0.0 1.0 1 65 141 0 64
+ 4.99888 1 0 sctp 48 -------S 0 1.0 0.0 1 65 154 65535 65535
- 4.99888 1 0 sctp 48 -------S 0 1.0 0.0 1 65 154 65535 65535
