+ 0.5 1 4 sctp 56 -------I 0 1.0 4.0 1 -1 4 65535 65535
- 0.5 1 4 sctp 56 -------I 0 1.0 4.0 1 -1 4 65535 65535
r 0.700896 1 4 sctp 56 -------I 0 1.0 4.0 1 -1 4 65535 65535
+ 0.700896 4 1 sctp 56 -------I 0 4.0 1.0 1 -1 5 65535 65535
- 0.700896 4 1 sctp 56 -------I 0 4.0 1.0 1 -1 5 65535 65535
r 0.901792 4 1 sctp 56 -------I 0 4.0 1.0 1 -1 5 65535 65535
+ 0.901792 1 4 sctp 36 -------I 0 1.0 4.0 1 -1 6 65535 65535
- 0.901792 1 4 sctp 36 -------I 0 1.0 4.0 1 -1 6 65535 65535
r 1.102368 1 4 sctp 36 -------I 0 1.0 4.0 1 -1 6 65535 65535
+ 1.102368 4 1 sctp 36 -------I 0 4.0 1.0 1 -1 7 65535 65535
- 1.102368 4 1 sctp 36 -------I 0 4.0 1.0 1 -1 7 65535 65535
r 1.302944 4 1 sctp 36 -------I 0 4.0 1.0 1 -1 7 65535 65535
+ 1.302944 1 4 sctp 56 -------H 0 1.0 4.0 1 -1 8 65535 65535
- 1.302944 1 4 sctp 56 -------H 0 1.0 4.0 1 -1 8 65535 65535
+ 1.302944 2 5 sctp 56 -------H 0 2.0 5.0 1 -1 9 65535 65535
- 1.302944 2 5 sctp 56 -------H 0 2.0 5.0 1 -1 9 65535 65535
r 1.50384 1 4 sctp 56 -------H 0 1.0 4.0 1 -1 8 65535 65535
+ 1.50384 4 1 sctp 56 -------B 0 4.0 1.0 1 -1 10 65535 65535
- 1.50384 4 1 sctp 56 -------B 0 4.0 1.0 1 -1 10 65535 65535
r 1.50384 2 5 sctp 56 -------H 0 2.0 5.0 1 -1 9 65535 65535
+ 1.50384 5 2 sctp 56 -------B 0 5.0 2.0 1 -1 11 65535 65535
- 1.50384 5 2 sctp 56 -------B 0 5.0 2.0 1 -1 11 65535 65535
r 1.704736 4 1 sctp 56 -------B 0 4.0 1.0 1 -1 10 65535 65535
r 1.704736 5 2 sctp 56 -------B 0 5.0 2.0 1 -1 11 65535 65535
+ 1.704736 1 4 sctp 1500 -------D 0 1.0 4.0 1 1 12 0 0
- 1.704736 1 4 sctp 1500 -------D 0 1.0 4.0 1 1 12 0 0
+ 1.704736 1 4 sctp 1500 -------D 0 1.0 4.0 1 2 13 0 1
+ 1.704736 1 4 sctp 1500 -------D 0 1.0 4.0 1 3 14 0 2
- 1.728736 1 4 sctp 1500 -------D 0 1.0 4.0 1 2 13 0 1
- 1.752736 1 4 sctp 1500 -------D 0 1.0 4.0 1 3 14 0 2
r 1.928736 1 4 sctp 1500 -------D 0 1.0 4.0 1 1 12 0 0
+ 1.928736 4 1 sctp 48 -------S 0 4.0 1.0 1 1 15 65535 65535
- 1.928736 4 1 sctp 48 -------S 0 4.0 1.0 1 1 15 65535 65535
r 1.952736 1 4 sctp 1500 -------D 0 1.0 4.0 1 2 13 0 1
r 1.976736 1 4 sctp 1500 -------D 0 1.0 4.0 1 3 14 0 2
+ 1.976736 4 1 sctp 48 -------S 0 4.0 1.0 1 3 16 65535 65535
- 1.976736 4 1 sctp 48 -------S 0 4.0 1.0 1 3 16 65535 65535
r 2.129504 4 1 sctp 48 -------S 0 4.0 1.0 1 1 15 65535 65535
+ 2.129504 1 4 sctp 1500 -------D 0 1.0 4.0 1 4 17 0 3
- 2.129504 1 4 sctp 1500 -------D 0 1.0 4.0 1 4 17 0 3
+ 2.129504 1 4 sctp 1500 -------D 0 1.0 4.0 1 5 18 0 4
- 2.153504 1 4 sctp 1500 -------D 0 1.0 4.0 1 5 18 0 4
r 2.177504 4 1 sctp 48 -------S 0 4.0 1.0 1 3 16 65535 65535
+ 2.177504 1 4 sctp 1500 -------D 0 1.0 4.0 1 6 19 0 5
+ 2.177504 1 4 sctp 1500 -------D 0 1.0 4.0 1 7 20 0 6
+ 2.177504 1 4 sctp 1500 -------D 0 1.0 4.0 1 8 21 0 7
- 2.177504 1 4 sctp 1500 -------D 0 1.0 4.0 1 6 19 0 5
- 2.201504 1 4 sctp 1500 -------D 0 1.0 4.0 1 7 20 0 6
- 2.225504 1 4 sctp 1500 -------D 0 1.0 4.0 1 8 21 0 7
r 2.353504 1 4 sctp 1500 -------D 0 1.0 4.0 1 4 17 0 3
r 2.377504 1 4 sctp 1500 -------D 0 1.0 4.0 1 5 18 0 4
+ 2.377504 4 1 sctp 48 -------S 0 4.0 1.0 1 5 22 65535 65535
- 2.377504 4 1 sctp 48 -------S 0 4.0 1.0 1 5 22 65535 65535
r 2.401504 1 4 sctp 1500 -------D 0 1.0 4.0 1 6 19 0 5
r 2.425504 1 4 sctp 1500 -------D 0 1.0 4.0 1 7 20 0 6
+ 2.425504 4 1 sctp 48 -------S 0 4.0 1.0 1 7 23 65535 65535
- 2.425504 4 1 sctp 48 -------S 0 4.0 1.0 1 7 23 65535 65535
r 2.449504 1 4 sctp 1500 -------D 0 1.0 4.0 1 8 21 0 7
r 2.578272 4 1 sctp 48 -------S 0 4.0 1.0 1 5 22 65535 65535
+ 2.578272 1 4 sctp 1500 -------D 0 1.0 4.0 1 9 24 0 8
- 2.578272 1 4 sctp 1500 -------D 0 1.0 4.0 1 9 24 0 8
+ 2.578272 1 4 sctp 1500 -------D 0 1.0 4.0 1 10 25 0 9
+ 2.578272 1 4 sctp 1500 -------D 0 1.0 4.0 1 11 26 0 10
- 2.602272 1 4 sctp 1500 -------D 0 1.0 4.0 1 10 25 0 9
r 2.626272 4 1 sctp 48 -------S 0 4.0 1.0 1 7 23 65535 65535
+ 2.626272 1 4 sctp 1500 -------D 0 1.0 4.0 1 12 27 0 11
+ 2.626272 1 4 sctp 1500 -------D 0 1.0 4.0 1 13 28 0 12
d 2.626272 1 4 sctp 1500 -------D 0 1.0 4.0 1 14 29 0 13
- 2.626272 1 4 sctp 1500 -------D 0 1.0 4.0 1 11 26 0 10
+ 2.649504 4 1 sctp 48 -------S 0 4.0 1.0 1 8 30 65535 65535
- 2.649504 4 1 sctp 48 -------S 0 4.0 1.0 1 8 30 65535 65535
- 2.650272 1 4 sctp 1500 -------D 0 1.0 4.0 1 12 27 0 11
- 2.674272 1 4 sctp 1500 -------D 0 1.0 4.0 1 13 28 0 12
r 2.802272 1 4 sctp 1500 -------D 0 1.0 4.0 1 9 24 0 8
r 2.826272 1 4 sctp 1500 -------D 0 1.0 4.0 1 10 25 0 9
+ 2.826272 4 1 sctp 48 -------S 0 4.0 1.0 1 10 31 65535 65535
- 2.826272 4 1 sctp 48 -------S 0 4.0 1.0 1 10 31 65535 65535
r 2.850272 1 4 sctp 1500 -------D 0 1.0 4.0 1 11 26 0 10
r 2.850272 4 1 sctp 48 -------S 0 4.0 1.0 1 8 30 65535 65535
+ 2.850272 1 4 sctp 1500 -------D 0 1.0 4.0 1 15 32 0 14
- 2.850272 1 4 sctp 1500 -------D 0 1.0 4.0 1 15 32 0 14
+ 2.850272 1 4 sctp 1500 -------D 0 1.0 4.0 1 16 33 0 15
r 2.874272 1 4 sctp 1500 -------D 0 1.0 4.0 1 12 27 0 11
+ 2.874272 4 1 sctp 48 -------S 0 4.0 1.0 1 12 34 65535 65535
- 2.874272 4 1 sctp 48 -------S 0 4.0 1.0 1 12 34 65535 65535
- 2.874272 1 4 sctp 1500 -------D 0 1.0 4.0 1 16 33 0 15
r 2.898272 1 4 sctp 1500 -------D 0 1.0 4.0 1 13 28 0 12
r 3.02704 4 1 sctp 48 -------S 0 4.0 1.0 1 10 31 65535 65535
+ 3.02704 1 4 sctp 1500 -------D 0 1.0 4.0 1 17 35 0 16
- 3.02704 1 4 sctp 1500 -------D 0 1.0 4.0 1 17 35 0 16
+ 3.02704 1 4 sctp 1500 -------D 0 1.0 4.0 1 18 36 0 17
+ 3.02704 1 4 sctp 1500 -------D 0 1.0 4.0 1 19 37 0 18
- 3.05104 1 4 sctp 1500 -------D 0 1.0 4.0 1 18 36 0 17
r 3.074272 1 4 sctp 1500 -------D 0 1.0 4.0 1 15 32 0 14
+ 3.074272 4 1 sctp 52 -------S 0 4.0 1.0 1 13 38 65535 65535
- 3.074272 4 1 sctp 52 -------S 0 4.0 1.0 1 13 38 65535 65535
r 3.07504 4 1 sctp 48 -------S 0 4.0 1.0 1 12 34 65535 65535
+ 3.07504 1 4 sctp 1500 -------D 0 1.0 4.0 1 20 39 0 19
+ 3.07504 1 4 sctp 1500 -------D 0 1.0 4.0 1 21 40 0 20
+ 3.07504 1 4 sctp 1500 -------D 0 1.0 4.0 1 22 41 0 21
- 3.07504 1 4 sctp 1500 -------D 0 1.0 4.0 1 19 37 0 18
r 3.098272 1 4 sctp 1500 -------D 0 1.0 4.0 1 16 33 0 15
+ 3.098272 4 1 sctp 52 -------S 0 4.0 1.0 1 13 42 65535 65535
- 3.098272 4 1 sctp 52 -------S 0 4.0 1.0 1 13 42 65535 65535
- 3.09904 1 4 sctp 1500 -------D 0 1.0 4.0 1 20 39 0 19
- 3.12304 1 4 sctp 1500 -------D 0 1.0 4.0 1 21 40 0 20
- 3.14704 1 4 sctp 1500 -------D 0 1.0 4.0 1 22 41 0 21
r 3.25104 1 4 sctp 1500 -------D 0 1.0 4.0 1 17 35 0 16
+ 3.25104 4 1 sctp 52 -------S 0 4.0 1.0 1 13 43 65535 65535
- 3.25104 4 1 sctp 52 -------S 0 4.0 1.0 1 13 43 65535 65535
r 3.27504 1 4 sctp 1500 -------D 0 1.0 4.0 1 18 36 0 17
+ 3.27504 4 1 sctp 52 -------S 0 4.0 1.0 1 13 44 65535 65535
- 3.27504 4 1 sctp 52 -------S 0 4.0 1.0 1 13 44 65535 65535
r 3.275104 4 1 sctp 52 -------S 0 4.0 1.0 1 13 38 65535 65535
+ 3.275104 1 4 sctp 1500 -------D 0 1.0 4.0 1 23 45 0 22
- 3.275104 1 4 sctp 1500 -------D 0 1.0 4.0 1 23 45 0 22
+ 3.275104 1 4 sctp 1500 -------D 0 1.0 4.0 1 24 46 0 23
+ 3.275104 1 4 sctp 1500 -------D 0 1.0 4.0 1 25 47 0 24
r 3.29904 1 4 sctp 1500 -------D 0 1.0 4.0 1 19 37 0 18
+ 3.29904 4 1 sctp 52 -------S 0 4.0 1.0 1 13 48 65535 65535
- 3.29904 4 1 sctp 52 -------S 0 4.0 1.0 1 13 48 65535 65535
r 3.299104 4 1 sctp 52 -------S 0 4.0 1.0 1 13 42 65535 65535
+ 3.299104 1 4 sctp 1500 -------D 0 1.0 4.0 1 26 49 0 25
- 3.299104 1 4 sctp 1500 -------D 0 1.0 4.0 1 24 46 0 23
r 3.32304 1 4 sctp 1500 -------D 0 1.0 4.0 1 20 39 0 19
+ 3.32304 4 1 sctp 52 -------S 0 4.0 1.0 1 13 50 65535 65535
- 3.32304 4 1 sctp 52 -------S 0 4.0 1.0 1 13 50 65535 65535
- 3.323104 1 4 sctp 1500 -------D 0 1.0 4.0 1 25 47 0 24
r 3.34704 1 4 sctp 1500 -------D 0 1.0 4.0 1 21 40 0 20
+ 3.34704 4 1 sctp 52 -------S 0 4.0 1.0 1 13 51 65535 65535
- 3.34704 4 1 sctp 52 -------S 0 4.0 1.0 1 13 51 65535 65535
- 3.347104 1 4 sctp 1500 -------D 0 1.0 4.0 1 26 49 0 25
r 3.37104 1 4 sctp 1500 -------D 0 1.0 4.0 1 22 41 0 21
+ 3.37104 4 1 sctp 52 -------S 0 4.0 1.0 1 13 52 65535 65535
- 3.37104 4 1 sctp 52 -------S 0 4.0 1.0 1 13 52 65535 65535
r 3.451872 4 1 sctp 52 -------S 0 4.0 1.0 1 13 43 65535 65535
+ 3.451872 2 5 sctp 1500 -------D 0 2.0 5.0 1 14 53 0 13
- 3.451872 2 5 sctp 1500 -------D 0 2.0 5.0 1 14 53 0 13
r 3.475872 4 1 sctp 52 -------S 0 4.0 1.0 1 13 44 65535 65535
r 3.499104 1 4 sctp 1500 -------D 0 1.0 4.0 1 23 45 0 22
+ 3.499104 4 1 sctp 52 -------S 0 4.0 1.0 1 13 54 65535 65535
- 3.499104 4 1 sctp 52 -------S 0 4.0 1.0 1 13 54 65535 65535
r 3.499872 4 1 sctp 52 -------S 0 4.0 1.0 1 13 48 65535 65535
r 3.523104 1 4 sctp 1500 -------D 0 1.0 4.0 1 24 46 0 23
+ 3.523104 4 1 sctp 52 -------S 0 4.0 1.0 1 13 55 65535 65535
- 3.523104 4 1 sctp 52 -------S 0 4.0 1.0 1 13 55 65535 65535
r 3.523872 4 1 sctp 52 -------S 0 4.0 1.0 1 13 50 65535 65535
r 3.547104 1 4 sctp 1500 -------D 0 1.0 4.0 1 25 47 0 24
+ 3.547104 4 1 sctp 52 -------S 0 4.0 1.0 1 13 56 65535 65535
- 3.547104 4 1 sctp 52 -------S 0 4.0 1.0 1 13 56 65535 65535
r 3.547872 4 1 sctp 52 -------S 0 4.0 1.0 1 13 51 65535 65535
+ 3.547872 1 4 sctp 1500 -------D 0 1.0 4.0 1 27 57 0 26
- 3.547872 1 4 sctp 1500 -------D 0 1.0 4.0 1 27 57 0 26
r 3.571104 1 4 sctp 1500 -------D 0 1.0 4.0 1 26 49 0 25
+ 3.571104 4 1 sctp 52 -------S 0 4.0 1.0 1 13 58 65535 65535
- 3.571104 4 1 sctp 52 -------S 0 4.0 1.0 1 13 58 65535 65535
r 3.571872 4 1 sctp 52 -------S 0 4.0 1.0 1 13 52 65535 65535
+ 3.571872 1 4 sctp 1500 -------D 0 1.0 4.0 1 28 59 0 27
- 3.571872 1 4 sctp 1500 -------D 0 1.0 4.0 1 28 59 0 27
r 3.675872 2 5 sctp 1500 -------D 0 2.0 5.0 1 14 53 0 13
r 3.699936 4 1 sctp 52 -------S 0 4.0 1.0 1 13 54 65535 65535
+ 3.699936 1 4 sctp 1500 -------D 0 1.0 4.0 1 29 60 0 28
- 3.699936 1 4 sctp 1500 -------D 0 1.0 4.0 1 29 60 0 28
r 3.723936 4 1 sctp 52 -------S 0 4.0 1.0 1 13 55 65535 65535
+ 3.723936 1 4 sctp 1500 -------D 0 1.0 4.0 1 30 61 0 29
- 3.723936 1 4 sctp 1500 -------D 0 1.0 4.0 1 30 61 0 29
r 3.747936 4 1 sctp 52 -------S 0 4.0 1.0 1 13 56 65535 65535
+ 3.747936 1 4 sctp 1500 -------D 0 1.0 4.0 1 31 62 0 30
- 3.747936 1 4 sctp 1500 -------D 0 1.0 4.0 1 31 62 0 30
r 3.771872 1 4 sctp 1500 -------D 0 1.0 4.0 1 27 57 0 26
+ 3.771872 4 1 sctp 48 -------S 0 4.0 1.0 1 27 63 65535 65535
- 3.771872 4 1 sctp 48 -------S 0 4.0 1.0 1 27 63 65535 65535
r 3.771936 4 1 sctp 52 -------S 0 4.0 1.0 1 13 58 65535 65535
+ 3.771936 1 4 sctp 1500 -------D 0 1.0 4.0 1 32 64 0 31
- 3.771936 1 4 sctp 1500 -------D 0 1.0 4.0 1 32 64 0 31
r 3.795872 1 4 sctp 1500 -------D 0 1.0 4.0 1 28 59 0 27
r 3.923936 1 4 sctp 1500 -------D 0 1.0 4.0 1 29 60 0 28
+ 3.923936 4 1 sctp 48 -------S 0 4.0 1.0 1 29 65 65535 65535
- 3.923936 4 1 sctp 48 -------S 0 4.0 1.0 1 29 65 65535 65535
r 3.947936 1 4 sctp 1500 -------D 0 1.0 4.0 1 30 61 0 29
r 3.971936 1 4 sctp 1500 -------D 0 1.0 4.0 1 31 62 0 30
+ 3.971936 4 1 sctp 48 -------S 0 4.0 1.0 1 31 66 65535 65535
- 3.971936 4 1 sctp 48 -------S 0 4.0 1.0 1 31 66 65535 65535
r 3.97264 4 1 sctp 48 -------S 0 4.0 1.0 1 27 63 65535 65535
+ 3.97264 1 4 sctp 1500 -------D 0 1.0 4.0 1 33 67 0 32
- 3.97264 1 4 sctp 1500 -------D 0 1.0 4.0 1 33 67 0 32
+ 3.97264 1 4 sctp 1500 -------D 0 1.0 4.0 1 34 68 0 33
r 3.995936 1 4 sctp 1500 -------D 0 1.0 4.0 1 32 64 0 31
- 3.99664 1 4 sctp 1500 -------D 0 1.0 4.0 1 34 68 0 33
r 4.124704 4 1 sctp 48 -------S 0 4.0 1.0 1 29 65 65535 65535
+ 4.124704 1 4 sctp 1500 -------D 0 1.0 4.0 1 35 69 0 34
- 4.124704 1 4 sctp 1500 -------D 0 1.0 4.0 1 35 69 0 34
+ 4.124704 1 4 sctp 1500 -------D 0 1.0 4.0 1 36 70 0 35
- 4.148704 1 4 sctp 1500 -------D 0 1.0 4.0 1 36 70 0 35
r 4.172704 4 1 sctp 48 -------S 0 4.0 1.0 1 31 66 65535 65535
+ 4.172704 1 4 sctp 1500 -------D 0 1.0 4.0 1 37 71 0 36
+ 4.172704 1 4 sctp 1500 -------D 0 1.0 4.0 1 38 72 0 37
- 4.172704 1 4 sctp 1500 -------D 0 1.0 4.0 1 37 71 0 36
+ 4.195936 4 1 sctp 48 -------S 0 4.0 1.0 1 32 73 65535 65535
- 4.195936 4 1 sctp 48 -------S 0 4.0 1.0 1 32 73 65535 65535
r 4.19664 1 4 sctp 1500 -------D 0 1.0 4.0 1 33 67 0 32
- 4.196704 1 4 sctp 1500 -------D 0 1.0 4.0 1 38 72 0 37
r 4.22064 1 4 sctp 1500 -------D 0 1.0 4.0 1 34 68 0 33
+ 4.22064 4 1 sctp 48 -------S 0 4.0 1.0 1 34 74 65535 65535
- 4.22064 4 1 sctp 48 -------S 0 4.0 1.0 1 34 74 65535 65535
r 4.348704 1 4 sctp 1500 -------D 0 1.0 4.0 1 35 69 0 34
r 4.372704 1 4 sctp 1500 -------D 0 1.0 4.0 1 36 70 0 35
+ 4.372704 4 1 sctp 48 -------S 0 4.0 1.0 1 36 75 65535 65535
- 4.372704 4 1 sctp 48 -------S 0 4.0 1.0 1 36 75 65535 65535
r 4.396704 1 4 sctp 1500 -------D 0 1.0 4.0 1 37 71 0 36
r 4.396704 4 1 sctp 48 -------S 0 4.0 1.0 1 32 73 65535 65535
+ 4.396704 1 4 sctp 1500 -------D 0 1.0 4.0 1 39 76 0 38
- 4.396704 1 4 sctp 1500 -------D 0 1.0 4.0 1 39 76 0 38
r 4.420704 1 4 sctp 1500 -------D 0 1.0 4.0 1 38 72 0 37
+ 4.420704 4 1 sctp 48 -------S 0 4.0 1.0 1 38 77 65535 65535
- 4.420704 4 1 sctp 48 -------S 0 4.0 1.0 1 38 77 65535 65535
r 4.421408 4 1 sctp 48 -------S 0 4.0 1.0 1 34 74 65535 65535
+ 4.421408 1 4 sctp 1500 -------D 0 1.0 4.0 1 40 78 0 39
- 4.421408 1 4 sctp 1500 -------D 0 1.0 4.0 1 40 78 0 39
+ 4.421408 1 4 sctp 1500 -------D 0 1.0 4.0 1 41 79 0 40
+ 4.421408 1 4 sctp 1500 -------D 0 1.0 4.0 1 42 80 0 41
- 4.445408 1 4 sctp 1500 -------D 0 1.0 4.0 1 41 79 0 40
- 4.469408 1 4 sctp 1500 -------D 0 1.0 4.0 1 42 80 0 41
r 4.573472 4 1 sctp 48 -------S 0 4.0 1.0 1 36 75 65535 65535
+ 4.573472 1 4 sctp 1500 -------D 0 1.0 4.0 1 43 81 0 42
- 4.573472 1 4 sctp 1500 -------D 0 1.0 4.0 1 43 81 0 42
+ 4.573472 1 4 sctp 1500 -------D 0 1.0 4.0 1 44 82 0 43
- 4.597472 1 4 sctp 1500 -------D 0 1.0 4.0 1 44 82 0 43
r 4.620704 1 4 sctp 1500 -------D 0 1.0 4.0 1 39 76 0 38
r 4.621472 4 1 sctp 48 -------S 0 4.0 1.0 1 38 77 65535 65535
+ 4.621472 1 4 sctp 1500 -------D 0 1.0 4.0 1 45 83 0 44
+ 4.621472 1 4 sctp 1500 -------D 0 1.0 4.0 1 46 84 0 45
- 4.621472 1 4 sctp 1500 -------D 0 1.0 4.0 1 45 83 0 44
r 4.645408 1 4 sctp 1500 -------D 0 1.0 4.0 1 40 78 0 39
+ 4.645408 4 1 sctp 48 -------S 0 4.0 1.0 1 40 85 65535 65535
- 4.645408 4 1 sctp 48 -------S 0 4.0 1.0 1 40 85 65535 65535
- 4.645472 1 4 sctp 1500 -------D 0 1.0 4.0 1 46 84 0 45
r 4.669408 1 4 sctp 1500 -------D 0 1.0 4.0 1 41 79 0 40
r 4.693408 1 4 sctp 1500 -------D 0 1.0 4.0 1 42 80 0 41
+ 4.693408 4 1 sctp 48 -------S 0 4.0 1.0 1 42 86 65535 65535
- 4.693408 4 1 sctp 48 -------S 0 4.0 1.0 1 42 86 65535 65535
r 4.797472 1 4 sctp 1500 -------D 0 1.0 4.0 1 43 81 0 42
r 4.821472 1 4 sctp 1500 -------D 0 1.0 4.0 1 44 82 0 43
+ 4.821472 4 1 sctp 48 -------S 0 4.0 1.0 1 44 87 65535 65535
- 4.821472 4 1 sctp 48 -------S 0 4.0 1.0 1 44 87 65535 65535
r 4.845472 1 4 sctp 1500 -------D 0 1.0 4.0 1 45 83 0 44
r 4.846176 4 1 sctp 48 -------S 0 4.0 1.0 1 40 85 65535 65535
+ 4.846176 1 4 sctp 1500 -------D 0 1.0 4.0 1 47 88 0 46
- 4.846176 1 4 sctp 1500 -------D 0 1.0 4.0 1 47 88 0 46
+ 4.846176 1 4 sctp 1500 -------D 0 1.0 4.0 1 48 89 0 47
r 4.869472 1 4 sctp 1500 -------D 0 1.0 4.0 1 46 84 0 45
+ 4.869472 4 1 sctp 48 -------S 0 4.0 1.0 1 46 90 65535 65535
- 4.869472 4 1 sctp 48 -------S 0 4.0 1.0 1 46 90 65535 65535
- 4.870176 1 4 sctp 1500 -------D 0 1.0 4.0 1 48 89 0 47
r 4.894176 4 1 sctp 48 -------S 0 4.0 1.0 1 42 86 65535 65535
+ 4.894176 1 4 sctp 1500 -------D 0 1.0 4.0 1 49 91 0 48
+ 4.894176 1 4 sctp 1500 -------D 0 1.0 4.0 1 50 92 0 49
+ 4.894176 1 4 sctp 1500 -------D 0 1.0 4.0 1 51 93 0 50
- 4.894176 1 4 sctp 1500 -------D 0 1.0 4.0 1 49 91 0 48
- 4.918176 1 4 sctp 1500 -------D 0 1.0 4.0 1 50 92 0 49
- 4.942176 1 4 sctp 1500 -------D 0 1.0 4.0 1 51 93 0 50
r 5.02224 4 1 sctp 48 -------S 0 4.0 1.0 1 44 87 65535 65535
+ 5.02224 1 4 sctp 1500 -------D 0 1.0 4.0 1 52 94 0 51
- 5.02224 1 4 sctp 1500 -------D 0 1.0 4.0 1 52 94 0 51
+ 5.02224 1 4 sctp 1500 -------D 0 1.0 4.0 1 53 95 0 52
- 5.04624 1 4 sctp 1500 -------D 0 1.0 4.0 1 53 95 0 52
r 5.070176 1 4 sctp 1500 -------D 0 1.0 4.0 1 47 88 0 46
r 5.07024 4 1 sctp 48 -------S 0 4.0 1.0 1 46 90 65535 65535
+ 5.07024 1 4 sctp 1500 -------D 0 1.0 4.0 1 54 96 0 53
+ 5.07024 1 4 sctp 1500 -------D 0 1.0 4.0 1 55 97 0 54
- 5.07024 1 4 sctp 1500 -------D 0 1.0 4.0 1 54 96 0 53
r 5.094176 1 4 sctp 1500 -------D 0 1.0 4.0 1 48 89 0 47
+ 5.094176 4 1 sctp 48 -------S 0 4.0 1.0 1 48 98 65535 65535
- 5.094176 4 1 sctp 48 -------S 0 4.0 1.0 1 48 98 65535 65535
- 5.09424 1 4 sctp 1500 -------D 0 1.0 4.0 1 55 97 0 54
r 5.118176 1 4 sctp 1500 -------D 0 1.0 4.0 1 49 91 0 48
r 5.142176 1 4 sctp 1500 -------D 0 1.0 4.0 1 50 92 0 49
+ 5.142176 4 1 sctp 48 -------S 0 4.0 1.0 1 50 99 65535 65535
- 5.142176 4 1 sctp 48 -------S 0 4.0 1.0 1 50 99 65535 65535
r 5.166176 1 4 sctp 1500 -------D 0 1.0 4.0 1 51 93 0 50
r 5.24624 1 4 sctp 1500 -------D 0 1.0 4.0 1 52 94 0 51
+ 5.24624 4 1 sctp 48 -------S 0 4.0 1.0 1 52 100 65535 65535
- 5.24624 4 1 sctp 48 -------S 0 4.0 1.0 1 52 100 65535 65535
r 5.27024 1 4 sctp 1500 -------D 0 1.0 4.0 1 53 95 0 52
r 5.29424 1 4 sctp 1500 -------D 0 1.0 4.0 1 54 96 0 53
+ 5.29424 4 1 sctp 48 -------S 0 4.0 1.0 1 54 101 65535 65535
- 5.29424 4 1 sctp 48 -------S 0 4.0 1.0 1 54 101 65535 65535
r 5.294944 4 1 sctp 48 -------S 0 4.0 1.0 1 48 98 65535 65535
+ 5.294944 1 4 sctp 1500 -------D 0 1.0 4.0 1 56 102 0 55
- 5.294944 1 4 sctp 1500 -------D 0 1.0 4.0 1 56 102 0 55
+ 5.294944 1 4 sctp 1500 -------D 0 1.0 4.0 1 57 103 0 56
r 5.31824 1 4 sctp 1500 -------D 0 1.0 4.0 1 55 97 0 54
- 5.318944 1 4 sctp 1500 -------D 0 1.0 4.0 1 57 103 0 56
r 5.342944 4 1 sctp 48 -------S 0 4.0 1.0 1 50 99 65535 65535
+ 5.342944 1 4 sctp 1500 -------D 0 1.0 4.0 1 58 104 0 57
+ 5.342944 1 4 sctp 1500 -------D 0 1.0 4.0 1 59 105 0 58
+ 5.342944 1 4 sctp 1500 -------D 0 1.0 4.0 1 60 106 0 59
- 5.342944 1 4 sctp 1500 -------D 0 1.0 4.0 1 58 104 0 57
- 5.366944 1 4 sctp 1500 -------D 0 1.0 4.0 1 59 105 0 58
- 5.390944 1 4 sctp 1500 -------D 0 1.0 4.0 1 60 106 0 59
r 5.447008 4 1 sctp 48 -------S 0 4.0 1.0 1 52 100 65535 65535
+ 5.447008 1 4 sctp 1500 -------D 0 1.0 4.0 1 61 107 0 60
- 5.447008 1 4 sctp 1500 -------D 0 1.0 4.0 1 61 107 0 60
+ 5.447008 1 4 sctp 1500 -------D 0 1.0 4.0 1 62 108 0 61
- 5.471008 1 4 sctp 1500 -------D 0 1.0 4.0 1 62 108 0 61
r 5.495008 4 1 sctp 48 -------S 0 4.0 1.0 1 54 101 65535 65535
+ 5.495008 1 4 sctp 1500 -------D 0 1.0 4.0 1 63 109 0 62
+ 5.495008 1 4 sctp 1500 -------D 0 1.0 4.0 1 64 110 0 63
- 5.495008 1 4 sctp 1500 -------D 0 1.0 4.0 1 63 109 0 62
+ 5.51824 4 1 sctp 48 -------S 0 4.0 1.0 1 55 111 65535 65535
- 5.51824 4 1 sctp 48 -------S 0 4.0 1.0 1 55 111 65535 65535
r 5.518944 1 4 sctp 1500 -------D 0 1.0 4.0 1 56 102 0 55
- 5.519008 1 4 sctp 1500 -------D 0 1.0 4.0 1 64 110 0 63
r 5.542944 1 4 sctp 1500 -------D 0 1.0 4.0 1 57 103 0 56
+ 5.542944 4 1 sctp 48 -------S 0 4.0 1.0 1 57 112 65535 65535
- 5.542944 4 1 sctp 48 -------S 0 4.0 1.0 1 57 112 65535 65535
r 5.566944 1 4 sctp 1500 -------D 0 1.0 4.0 1 58 104 0 57
r 5.590944 1 4 sctp 1500 -------D 0 1.0 4.0 1 59 105 0 58
+ 5.590944 4 1 sctp 48 -------S 0 4.0 1.0 1 59 113 65535 65535
- 5.590944 4 1 sctp 48 -------S 0 4.0 1.0 1 59 113 65535 65535
r 5.614944 1 4 sctp 1500 -------D 0 1.0 4.0 1 60 106 0 59
r 5.671008 1 4 sctp 1500 -------D 0 1.0 4.0 1 61 107 0 60
+ 5.671008 4 1 sctp 48 -------S 0 4.0 1.0 1 61 114 65535 65535
- 5.671008 4 1 sctp 48 -------S 0 4.0 1.0 1 61 114 65535 65535
r 5.695008 1 4 sctp 1500 -------D 0 1.0 4.0 1 62 108 0 61
r 5.719008 1 4 sctp 1500 -------D 0 1.0 4.0 1 63 109 0 62
+ 5.719008 4 1 sctp 48 -------S 0 4.0 1.0 1 63 115 65535 65535
- 5.719008 4 1 sctp 48 -------S 0 4.0 1.0 1 63 115 65535 65535
r 5.719008 4 1 sctp 48 -------S 0 4.0 1.0 1 55 111 65535 65535
+ 5.719008 1 4 sctp 1500 -------D 0 1.0 4.0 1 65 116 0 64
- 5.719008 1 4 sctp 1500 -------D 0 1.0 4.0 1 65 116 0 64
r 5.743008 1 4 sctp 1500 -------D 0 1.0 4.0 1 64 110 0 63
r 5.743712 4 1 sctp 48 -------S 0 4.0 1.0 1 57 112 65535 65535
+ 5.743712 1 4 sctp 1500 -------D 0 1.0 4.0 1 66 117 0 65
- 5.743712 1 4 sctp 1500 -------D 0 1.0 4.0 1 66 117 0 65
+ 5.743712 1 4 sctp 1500 -------D 0 1.0 4.0 1 67 118 0 66
- 5.767712 1 4 sctp 1500 -------D 0 1.0 4.0 1 67 118 0 66
r 5.791712 4 1 sctp 48 -------S 0 4.0 1.0 1 59 113 65535 65535
+ 5.791712 1 4 sctp 1500 -------D 0 1.0 4.0 1 68 119 0 67
+ 5.791712 1 4 sctp 1500 -------D 0 1.0 4.0 1 69 120 0 68
+ 5.791712 1 4 sctp 1500 -------D 0 1.0 4.0 1 70 121 0 69
- 5.791712 1 4 sctp 1500 -------D 0 1.0 4.0 1 68 119 0 67
- 5.815712 1 4 sctp 1500 -------D 0 1.0 4.0 1 69 120 0 68
- 5.839712 1 4 sctp 1500 -------D 0 1.0 4.0 1 70 121 0 69
r 5.871776 4 1 sctp 48 -------S 0 4.0 1.0 1 61 114 65535 65535
+ 5.871776 1 4 sctp 1500 -------D 0 1.0 4.0 1 71 122 0 70
- 5.871776 1 4 sctp 1500 -------D 0 1.0 4.0 1 71 122 0 70
+ 5.871776 1 4 sctp 1500 -------D 0 1.0 4.0 1 72 123 0 71
- 5.895776 1 4 sctp 1500 -------D 0 1.0 4.0 1 72 123 0 71
r 5.919776 4 1 sctp 48 -------S 0 4.0 1.0 1 63 115 65535 65535
+ 5.919776 1 4 sctp 1500 -------D 0 1.0 4.0 1 73 124 0 72
+ 5.919776 1 4 sctp 1500 -------D 0 1.0 4.0 1 74 125 0 73
- 5.919776 1 4 sctp 1500 -------D 0 1.0 4.0 1 73 124 0 72
r 5.943008 1 4 sctp 1500 -------D 0 1.0 4.0 1 65 116 0 64
+ 5.943008 4 1 sctp 48 -------S 0 4.0 1.0 1 65 126 65535 65535
- 5.943008 4 1 sctp 48 -------S 0 4.0 1.0 1 65 126 65535 65535
- 5.943776 1 4 sctp 1500 -------D 0 1.0 4.0 1 74 125 0 73
r 5.967712 1 4 sctp 1500 -------D 0 1.0 4.0 1 66 117 0 65
r 5.991712 1 4 sctp 1500 -------D 0 1.0 4.0 1 67 118 0 66
+ 5.991712 4 1 sctp 48 -------S 0 4.0 1.0 1 67 127 65535 65535
- 5.991712 4 1 sctp 48 -------S 0 4.0 1.0 1 67 127 65535 65535
r 6.015712 1 4 sctp 1500 -------D 0 1.0 4.0 1 68 119 0 67
r 6.039712 1 4 sctp 1500 -------D 0 1.0 4.0 1 69 120 0 68
+ 6.039712 4 1 sctp 48 -------S 0 4.0 1.0 1 69 128 65535 65535
- 6.039712 4 1 sctp 48 -------S 0 4.0 1.0 1 69 128 65535 65535
r 6.063712 1 4 sctp 1500 -------D 0 1.0 4.0 1 70 121 0 69
r 6.095776 1 4 sctp 1500 -------D 0 1.0 4.0 1 71 122 0 70
+ 6.095776 4 1 sctp 48 -------S 0 4.0 1.0 1 71 129 65535 65535
- 6.095776 4 1 sctp 48 -------S 0 4.0 1.0 1 71 129 65535 65535
r 6.119776 1 4 sctp 1500 -------D 0 1.0 4.0 1 72 123 0 71
r 6.143776 1 4 sctp 1500 -------D 0 1.0 4.0 1 73 124 0 72
+ 6.143776 4 1 sctp 48 -------S 0 4.0 1.0 1 73 130 65535 65535
- 6.143776 4 1 sctp 48 -------S 0 4.0 1.0 1 73 130 65535 65535
r 6.143776 4 1 sctp 48 -------S 0 4.0 1.0 1 65 126 65535 65535
+ 6.143776 1 4 sctp 1500 -------D 0 1.0 4.0 1 75 131 0 74
- 6.143776 1 4 sctp 1500 -------D 0 1.0 4.0 1 75 131 0 74
+ 6.143776 1 4 sctp 1500 -------D 0 1.0 4.0 1 76 132 0 75
r 6.167776 1 4 sctp 1500 -------D 0 1.0 4.0 1 74 125 0 73
- 6.167776 1 4 sctp 1500 -------D 0 1.0 4.0 1 76 132 0 75
r 6.19248 4 1 sctp 48 -------S 0 4.0 1.0 1 67 127 65535 65535
+ 6.19248 1 4 sctp 1500 -------D 0 1.0 4.0 1 77 133 0 76
- 6.19248 1 4 sctp 1500 -------D 0 1.0 4.0 1 77 133 0 76
+ 6.19248 1 4 sctp 1500 -------D 0 1.0 4.0 1 78 134 0 77
- 6.21648 1 4 sctp 1500 -------D 0 1.0 4.0 1 78 134 0 77
r 6.24048 4 1 sctp 48 -------S 0 4.0 1.0 1 69 128 65535 65535
+ 6.24048 1 4 sctp 1500 -------D 0 1.0 4.0 1 79 135 0 78
+ 6.24048 1 4 sctp 1500 -------D 0 1.0 4.0 1 80 136 0 79
- 6.24048 1 4 sctp 1500 -------D 0 1.0 4.0 1 79 135 0 78
- 6.26448 1 4 sctp 1500 -------D 0 1.0 4.0 1 80 136 0 79
r 6.296544 4 1 sctp 48 -------S 0 4.0 1.0 1 71 129 65535 65535
+ 6.296544 1 4 sctp 1500 -------D 0 1.0 4.0 1 81 137 0 80
- 6.296544 1 4 sctp 1500 -------D 0 1.0 4.0 1 81 137 0 80
+ 6.296544 1 4 sctp 1500 -------D 0 1.0 4.0 1 82 138 0 81
+ 6.296544 1 4 sctp 1500 -------D 0 1.0 4.0 1 83 139 0 82
- 6.320544 1 4 sctp 1500 -------D 0 1.0 4.0 1 82 138 0 81
r 6.344544 4 1 sctp 48 -------S 0 4.0 1.0 1 73 130 65535 65535
+ 6.344544 1 4 sctp 1500 -------D 0 1.0 4.0 1 84 140 0 83
+ 6.344544 1 4 sctp 1500 -------D 0 1.0 4.0 1 85 141 0 84
- 6.344544 1 4 sctp 1500 -------D 0 1.0 4.0 1 83 139 0 82
r 6.367776 1 4 sctp 1500 -------D 0 1.0 4.0 1 75 131 0 74
+ 6.367776 4 1 sctp 48 -------S 0 4.0 1.0 1 75 142 65535 65535
- 6.367776 4 1 sctp 48 -------S 0 4.0 1.0 1 75 142 65535 65535
- 6.368544 1 4 sctp 1500 -------D 0 1.0 4.0 1 84 140 0 83
r 6.391776 1 4 sctp 1500 -------D 0 1.0 4.0 1 76 132 0 75
- 6.392544 1 4 sctp 1500 -------D 0 1.0 4.0 1 85 141 0 84
r 6.41648 1 4 sctp 1500 -------D 0 1.0 4.0 1 77 133 0 76
+ 6.41648 4 1 sctp 48 -------S 0 4.0 1.0 1 77 143 65535 65535
- 6.41648 4 1 sctp 48 -------S 0 4.0 1.0 1 77 143 65535 65535
r 6.44048 1 4 sctp 1500 -------D 0 1.0 4.0 1 78 134 0 77
r 6.46448 1 4 sctp 1500 -------D 0 1.0 4.0 1 79 135 0 78
+ 6.46448 4 1 sctp 48 -------S 0 4.0 1.0 1 79 144 65535 65535
- 6.46448 4 1 sctp 48 -------S 0 4.0 1.0 1 79 144 65535 65535
r 6.48848 1 4 sctp 1500 -------D 0 1.0 4.0 1 80 136 0 79
r 6.520544 1 4 sctp 1500 -------D 0 1.0 4.0 1 81 137 0 80
+ 6.520544 4 1 sctp 48 -------S 0 4.0 1.0 1 81 145 65535 65535
- 6.520544 4 1 sctp 48 -------S 0 4.0 1.0 1 81 145 65535 65535
r 6.544544 1 4 sctp 1500 -------D 0 1.0 4.0 1 82 138 0 81
r 6.568544 1 4 sctp 1500 -------D 0 1.0 4.0 1 83 139 0 82
+ 6.568544 4 1 sctp 48 -------S 0 4.0 1.0 1 83 146 65535 65535
- 6.568544 4 1 sctp 48 -------S 0 4.0 1.0 1 83 146 65535 65535
r 6.568544 4 1 sctp 48 -------S 0 4.0 1.0 1 75 142 65535 65535
+ 6.568544 1 4 sctp 1500 -------D 0 1.0 4.0 1 86 147 0 85
- 6.568544 1 4 sctp 1500 -------D 0 1.0 4.0 1 86 147 0 85
+ 6.568544 1 4 sctp 1500 -------D 0 1.0 4.0 1 87 148 0 86
r 6.592544 1 4 sctp 1500 -------D 0 1.0 4.0 1 84 140 0 83
- 6.592544 1 4 sctp 1500 -------D 0 1.0 4.0 1 87 148 0 86
r 6.616544 1 4 sctp 1500 -------D 0 1.0 4.0 1 85 141 0 84
+ 6.616544 4 1 sctp 48 -------S 0 4.0 1.0 1 85 149 65535 65535
- 6.616544 4 1 sctp 48 -------S 0 4.0 1.0 1 85 149 65535 65535
r 6.617248 4 1 sctp 48 -------S 0 4.0 1.0 1 77 143 65535 65535
+ 6.617248 1 4 sctp 1500 -------D 0 1.0 4.0 1 88 150 0 87
- 6.617248 1 4 sctp 1500 -------D 0 1.0 4.0 1 88 150 0 87
+ 6.617248 1 4 sctp 1500 -------D 0 1.0 4.0 1 89 151 0 88
- 6.641248 1 4 sctp 1500 -------D 0 1.0 4.0 1 89 151 0 88
r 6.665248 4 1 sctp 48 -------S 0 4.0 1.0 1 79 144 65535 65535
+ 6.665248 1 4 sctp 1500 -------D 0 1.0 4.0 1 90 152 0 89
+ 6.665248 1 4 sctp 1500 -------D 0 1.0 4.0 1 91 153 0 90
- 6.665248 1 4 sctp 1500 -------D 0 1.0 4.0 1 90 152 0 89
- 6.689248 1 4 sctp 1500 -------D 0 1.0 4.0 1 91 153 0 90
r 6.721312 4 1 sctp 48 -------S 0 4.0 1.0 1 81 145 65535 65535
+ 6.721312 1 4 sctp 1500 -------D 0 1.0 4.0 1 92 154 0 91
- 6.721312 1 4 sctp 1500 -------D 0 1.0 4.0 1 92 154 0 91
+ 6.721312 1 4 sctp 1500 -------D 0 1.0 4.0 1 93 155 0 92
+ 6.721312 1 4 sctp 1500 -------D 0 1.0 4.0 1 94 156 0 93
- 6.745312 1 4 sctp 1500 -------D 0 1.0 4.0 1 93 155 0 92
r 6.769312 4 1 sctp 48 -------S 0 4.0 1.0 1 83 146 65535 65535
+ 6.769312 1 4 sctp 1500 -------D 0 1.0 4.0 1 95 157 0 94
+ 6.769312 1 4 sctp 1500 -------D 0 1.0 4.0 1 96 158 0 95
- 6.769312 1 4 sctp 1500 -------D 0 1.0 4.0 1 94 156 0 93
r 6.792544 1 4 sctp 1500 -------D 0 1.0 4.0 1 86 147 0 85
- 6.793312 1 4 sctp 1500 -------D 0 1.0 4.0 1 95 157 0 94
r 6.816544 1 4 sctp 1500 -------D 0 1.0 4.0 1 87 148 0 86
+ 6.816544 4 1 sctp 48 -------S 0 4.0 1.0 1 87 159 65535 65535
- 6.816544 4 1 sctp 48 -------S 0 4.0 1.0 1 87 159 65535 65535
r 6.817312 4 1 sctp 48 -------S 0 4.0 1.0 1 85 149 65535 65535
+ 6.817312 1 4 sctp 1500 -------D 0 1.0 4.0 1 97 160 0 96
+ 6.817312 1 4 sctp 1500 -------D 0 1.0 4.0 1 98 161 0 97
- 6.817312 1 4 sctp 1500 -------D 0 1.0 4.0 1 96 158 0 95
r 6.841248 1 4 sctp 1500 -------D 0 1.0 4.0 1 88 150 0 87
- 6.841312 1 4 sctp 1500 -------D 0 1.0 4.0 1 97 160 0 96
r 6.865248 1 4 sctp 1500 -------D 0 1.0 4.0 1 89 151 0 88
+ 6.865248 4 1 sctp 48 -------S 0 4.0 1.0 1 89 162 65535 65535
- 6.865248 4 1 sctp 48 -------S 0 4.0 1.0 1 89 162 65535 65535
- 6.865312 1 4 sctp 1500 -------D 0 1.0 4.0 1 98 161 0 97
r 6.889248 1 4 sctp 1500 -------D 0 1.0 4.0 1 90 152 0 89
r 6.913248 1 4 sctp 1500 -------D 0 1.0 4.0 1 91 153 0 90
+ 6.913248 4 1 sctp 48 -------S 0 4.0 1.0 1 91 163 65535 65535
- 6.913248 4 1 sctp 48 -------S 0 4.0 1.0 1 91 163 65535 65535
r 6.945312 1 4 sctp 1500 -------D 0 1.0 4.0 1 92 154 0 91
r 6.969312 1 4 sctp 1500 -------D 0 1.0 4.0 1 93 155 0 92
+ 6.969312 4 1 sctp 48 -------S 0 4.0 1.0 1 93 164 65535 65535
- 6.969312 4 1 sctp 48 -------S 0 4.0 1.0 1 93 164 65535 65535
r 6.993312 1 4 sctp 1500 -------D 0 1.0 4.0 1 94 156 0 93
r 7.017312 1 4 sctp 1500 -------D 0 1.0 4.0 1 95 157 0 94
+ 7.017312 4 1 sctp 48 -------S 0 4.0 1.0 1 95 165 65535 65535
- 7.017312 4 1 sctp 48 -------S 0 4.0 1.0 1 95 165 65535 65535
r 7.017312 4 1 sctp 48 -------S 0 4.0 1.0 1 87 159 65535 65535
+ 7.017312 1 4 sctp 1500 -------D 0 1.0 4.0 1 99 166 0 98
- 7.017312 1 4 sctp 1500 -------D 0 1.0 4.0 1 99 166 0 98
+ 7.017312 1 4 sctp 1500 -------D 0 1.0 4.0 1 100 167 0 99
r 7.041312 1 4 sctp 1500 -------D 0 1.0 4.0 1 96 158 0 95
- 7.041312 1 4 sctp 1500 -------D 0 1.0 4.0 1 100 167 0 99
r 7.065312 1 4 sctp 1500 -------D 0 1.0 4.0 1 97 160 0 96
+ 7.065312 4 1 sctp 48 -------S 0 4.0 1.0 1 97 168 65535 65535
- 7.065312 4 1 sctp 48 -------S 0 4.0 1.0 1 97 168 65535 65535
r 7.066016 4 1 sctp 48 -------S 0 4.0 1.0 1 89 162 65535 65535
+ 7.066016 1 4 sctp 1500 -------D 0 1.0 4.0 1 101 169 0 100
- 7.066016 1 4 sctp 1500 -------D 0 1.0 4.0 1 101 169 0 100
+ 7.066016 1 4 sctp 1500 -------D 0 1.0 4.0 1 102 170 0 101
r 7.089312 1 4 sctp 1500 -------D 0 1.0 4.0 1 98 161 0 97
- 7.090016 1 4 sctp 1500 -------D 0 1.0 4.0 1 102 170 0 101
r 7.114016 4 1 sctp 48 -------S 0 4.0 1.0 1 91 163 65535 65535
+ 7.114016 1 4 sctp 1500 -------D 0 1.0 4.0 1 103 171 0 102
+ 7.114016 1 4 sctp 1500 -------D 0 1.0 4.0 1 104 172 0 103
- 7.114016 1 4 sctp 1500 -------D 0 1.0 4.0 1 103 171 0 102
- 7.138016 1 4 sctp 1500 -------D 0 1.0 4.0 1 104 172 0 103
r 7.17008 4 1 sctp 48 -------S 0 4.0 1.0 1 93 164 65535 65535
+ 7.17008 1 4 sctp 1500 -------D 0 1.0 4.0 1 105 173 0 104
- 7.17008 1 4 sctp 1500 -------D 0 1.0 4.0 1 105 173 0 104
+ 7.17008 1 4 sctp 1500 -------D 0 1.0 4.0 1 106 174 0 105
- 7.19408 1 4 sctp 1500 -------D 0 1.0 4.0 1 106 174 0 105
r 7.21808 4 1 sctp 48 -------S 0 4.0 1.0 1 95 165 65535 65535
+ 7.21808 1 4 sctp 1500 -------D 0 1.0 4.0 1 107 175 0 106
+ 7.21808 1 4 sctp 1500 -------D 0 1.0 4.0 1 108 176 0 107
+ 7.21808 1 4 sctp 1500 -------D 0 1.0 4.0 1 109 177 0 108
- 7.21808 1 4 sctp 1500 -------D 0 1.0 4.0 1 107 175 0 106
r 7.241312 1 4 sctp 1500 -------D 0 1.0 4.0 1 99 166 0 98
+ 7.241312 4 1 sctp 48 -------S 0 4.0 1.0 1 99 178 65535 65535