+ 0.5 0 1 sctp 56 -------I 0 0.0 1.0 1 -1 2 65535 65535
- 0.5 0 1 sctp 56 -------I 0 0.0 1.0 1 -1 2 65535 65535
r 0.55009 0 1 sctp 56 -------I 0 0.0 1.0 1 -1 2 65535 65535
+ 0.55009 1 0 sctp 56 -------I 0 1.0 0.0 1 -1 3 65535 65535
- 0.55009 1 0 sctp 56 -------I 0 1.0 0.0 1 -1 3 65535 65535
r 0.600179 1 0 sctp 56 -------I 0 1.0 0.0 1 -1 3 65535 65535
+ 0.600179 0 1 sctp 36 -------I 0 0.0 1.0 1 -1 4 65535 65535
- 0.600179 0 1 sctp 36 -------I 0 0.0 1.0 1 -1 4 65535 65535
r 0.650237 0 1 sctp 36 -------I 0 0.0 1.0 1 -1 4 65535 65535
+ 0.650237 1 0 sctp 36 -------I 0 1.0 0.0 1 -1 5 65535 65535
- 0.650237 1 0 sctp 36 -------I 0 1.0 0.0 1 -1 5 65535 65535
r 0.700294 1 0 sctp 36 -------I 0 1.0 0.0 1 -1 5 65535 65535
+ 0.700294 0 1 sctp 56 -------H 0 0.0 1.0 1 -1 6 65535 65535
- 0.700294 0 1 sctp 56 -------H 0 0.0 1.0 1 -1 6 65535 65535
r 0.750384 0 1 sctp 56 -------H 0 0.0 1.0 1 -1 6 65535 65535
+ 0.750384 1 0 sctp 56 -------B 0 1.0 0.0 1 -1 7 65535 65535
- 0.750384 1 0 sctp 56 -------B 0 1.0 0.0 1 -1 7 65535 65535
r 0.800474 1 0 sctp 56 -------B 0 1.0 0.0 1 -1 7 65535 65535
+ 0.800474 0 1 sctp 1500 -------D 0 0.0 1.0 1 1 8 0 0
- 0.800474 0 1 sctp 1500 -------D 0 0.0 1.0 1 1 8 0 0
+ 0.800474 0 1 sctp 1500 -------D 0 0.0 1.0 1 2 9 0 1
+ 0.800474 0 1 sctp 1500 -------D 0 0.0 1.0 1 3 10 0 2
- 0.802874 0 1 sctp 1500 -------D 0 0.0 1.0 1 2 9 0 1
- 0.805274 0 1 sctp 1500 -------D 0 0.0 1.0 1 3 10 0 2
r 0.852874 0 1 sctp 1500 -------D 0 0.0 1.0 1 1 8 0 0
+ 0.852874 1 0 sctp 48 -------S 0 1.0 0.0 1 1 11 65535 65535
- 0.852874 1 0 sctp 48 -------S 0 1.0 0.0 1 1 11 65535 65535
r 0.855274 0 1 sctp 1500 -------D 0 0.0 1.0 1 2 9 0 1
r 0.857674 0 1 sctp 1500 -------D 0 0.0 1.0 1 3 10 0 2
+ 0.857674 1 0 sctp 48 -------S 0 1.0 0.0 1 3 12 65535 65535
- 0.857674 1 0 sctp 48 -------S 0 1.0 0.0 1 3 12 65535 65535
r 0.90295 1 0 sctp 48 -------S 0 1.0 0.0 1 1 11 65535 65535
+ 0.90295 0 1 sctp 1500 -------D 0 0.0 1.0 1 4 13 0 3
- 0.90295 0 1 sctp 1500 -------D 0 0.0 1.0 1 4 13 0 3
+ 0.90295 0 1 sctp 1500 -------D 0 0.0 1.0 1 5 14 0 4
- 0.90535 0 1 sctp 1500 -------D 0 0.0 1.0 1 5 14 0 4
r 0.90775 1 0 sctp 48 -------S 0 1.0 0.0 1 3 12 65535 65535
+ 0.90775 0 1 sctp 1500 -------D 0 0.0 1.0 1 6 15 0 5
+ 0.90775 0 1 sctp 1500 -------D 0 0.0 1.0 1 7 16 0 6
+ 0.90775 0 1 sctp 1500 -------D 0 0.0 1.0 1 8 17 0 7
- 0.90775 0 1 sctp 1500 -------D 0 0.0 1.0 1 6 15 0 5
- 0.91015 0 1 sctp 1500 -------D 0 0.0 1.0 1 7 16 0 6
- 0.91255 0 1 sctp 1500 -------D 0 0.0 1.0 1 8 17 0 7
r 0.95535 0 1 sctp 1500 -------D 0 0.0 1.0 1 4 13 0 3
r 0.95775 0 1 sctp 1500 -------D 0 0.0 1.0 1 5 14 0 4
+ 0.95775 1 0 sctp 48 -------S 0 1.0 0.0 1 5 18 65535 65535
- 0.95775 1 0 sctp 48 -------S 0 1.0 0.0 1 5 18 65535 65535
r 0.96015 0 1 sctp 1500 -------D 0 0.0 1.0 1 6 15 0 5
r 0.96255 0 1 sctp 1500 -------D 0 0.0 1.0 1 7 16 0 6
+ 0.96255 1 0 sctp 48 -------S 0 1.0 0.0 1 7 19 65535 65535
- 0.96255 1 0 sctp 48 -------S 0 1.0 0.0 1 7 19 65535 65535
r 0.96495 0 1 sctp 1500 -------D 0 0.0 1.0 1 8 17 0 7
r 1.007827 1 0 sctp 48 -------S 0 1.0 0.0 1 5 18 65535 65535
+ 1.007827 0 1 sctp 1500 -------D 0 0.0 1.0 1 9 20 0 8
- 1.007827 0 1 sctp 1500 -------D 0 0.0 1.0 1 9 20 0 8
+ 1.007827 0 1 sctp 1500 -------D 0 0.0 1.0 1 10 21 0 9
+ 1.007827 0 1 sctp 1500 -------D 0 0.0 1.0 1 11 22 0 10
- 1.010227 0 1 sctp 1500 -------D 0 0.0 1.0 1 10 21 0 9
r 1.012627 1 0 sctp 48 -------S 0 1.0 0.0 1 7 19 65535 65535
+ 1.012627 0 1 sctp 1500 -------D 0 0.0 1.0 1 12 23 0 11
+ 1.012627 0 1 sctp 1500 -------D 0 0.0 1.0 1 13 24 0 12
+ 1.012627 0 1 sctp 1500 -------D 0 0.0 1.0 1 14 25 0 13
- 1.012627 0 1 sctp 1500 -------D 0 0.0 1.0 1 11 22 0 10
- 1.015027 0 1 sctp 1500 -------D 0 0.0 1.0 1 12 23 0 11
- 1.017427 0 1 sctp 1500 -------D 0 0.0 1.0 1 13 24 0 12
- 1.019827 0 1 sctp 1500 -------D 0 0.0 1.0 1 14 25 0 13
r 1.060227 0 1 sctp 1500 -------D 0 0.0 1.0 1 9 20 0 8
+ 1.060227 1 0 sctp 48 -------S 0 1.0 0.0 1 9 26 65535 65535
- 1.060227 1 0 sctp 48 -------S 0 1.0 0.0 1 9 26 65535 65535
r 1.062627 0 1 sctp 1500 -------D 0 0.0 1.0 1 10 21 0 9
r 1.065027 0 1 sctp 1500 -------D 0 0.0 1.0 1 11 22 0 10
+ 1.065027 1 0 sctp 48 -------S 0 1.0 0.0 1 11 27 65535 65535
- 1.065027 1 0 sctp 48 -------S 0 1.0 0.0 1 11 27 65535 65535
r 1.067427 0 1 sctp 1500 -------D 0 0.0 1.0 1 12 23 0 11
r 1.069827 0 1 sctp 1500 -------D 0 0.0 1.0 1 13 24 0 12
+ 1.069827 1 0 sctp 48 -------S 0 1.0 0.0 1 13 28 65535 65535
- 1.069827 1 0 sctp 48 -------S 0 1.0 0.0 1 13 28 65535 65535
r 1.072227 0 1 sctp 1500 -------D 0 0.0 1.0 1 14 25 0 13
r 1.110304 1 0 sctp 48 -------S 0 1.0 0.0 1 9 26 65535 65535
+ 1.110304 0 1 sctp 1500 -------D 0 0.0 1.0 1 15 29 0 14
- 1.110304 0 1 sctp 1500 -------D 0 0.0 1.0 1 15 29 0 14
+ 1.110304 0 1 sctp 1500 -------D 0 0.0 1.0 1 16 30 0 15
+ 1.110304 0 1 sctp 1500 -------D 0 0.0 1.0 1 17 31 0 16
- 1.112704 0 1 sctp 1500 -------D 0 0.0 1.0 1 16 30 0 15
r 1.115104 1 0 sctp 48 -------S 0 1.0 0.0 1 11 27 65535 65535
+ 1.115104 0 1 sctp 1500 -------D 0 0.0 1.0 1 18 32 0 17
+ 1.115104 0 1 sctp 1500 -------D 0 0.0 1.0 1 19 33 0 18
+ 1.115104 0 1 sctp 1500 -------D 0 0.0 1.0 1 20 34 0 19
- 1.115104 0 1 sctp 1500 -------D 0 0.0 1.0 1 17 31 0 16
- 1.117504 0 1 sctp 1500 -------D 0 0.0 1.0 1 18 32 0 17
r 1.119904 1 0 sctp 48 -------S 0 1.0 0.0 1 13 28 65535 65535
+ 1.119904 0 1 sctp 1500 -------D 0 0.0 1.0 1 21 35 0 20
+ 1.119904 0 1 sctp 1500 -------D 0 0.0 1.0 1 22 36 0 21
+ 1.119904 0 1 sctp 1500 -------D 0 0.0 1.0 1 23 37 0 22
- 1.119904 0 1 sctp 1500 -------D 0 0.0 1.0 1 19 33 0 18
- 1.122304 0 1 sctp 1500 -------D 0 0.0 1.0 1 20 34 0 19
- 1.124704 0 1 sctp 1500 -------D 0 0.0 1.0 1 21 35 0 20
- 1.127104 0 1 sctp 1500 -------D 0 0.0 1.0 1 22 36 0 21
- 1.129504 0 1 sctp 1500 -------D 0 0.0 1.0 1 23 37 0 22
r 1.162704 0 1 sctp 1500 -------D 0 0.0 1.0 1 15 29 0 14
+ 1.162704 1 0 sctp 48 -------S 0 1.0 0.0 1 15 38 65535 65535
- 1.162704 1 0 sctp 48 -------S 0 1.0 0.0 1 15 38 65535 65535
r 1.165104 0 1 sctp 1500 -------D 0 0.0 1.0 1 16 30 0 15
r 1.167504 0 1 sctp 1500 -------D 0 0.0 1.0 1 17 31 0 16
+ 1.167504 1 0 sctp 48 -------S 0 1.0 0.0 1 17 39 65535 65535
- 1.167504 1 0 sctp 48 -------S 0 1.0 0.0 1 17 39 65535 65535
r 1.169904 0 1 sctp 1500 -------D 0 0.0 1.0 1 18 32 0 17
r 1.172304 0 1 sctp 1500 -------D 0 0.0 1.0 1 19 33 0 18
+ 1.172304 1 0 sctp 48 -------S 0 1.0 0.0 1 19 40 65535 65535
- 1.172304 1 0 sctp 48 -------S 0 1.0 0.0 1 19 40 65535 65535
r 1.174704 0 1 sctp 1500 -------D 0 0.0 1.0 1 20 34 0 19
r 1.177104 0 1 sctp 1500 -------D 0 0.0 1.0 1 21 35 0 20
+ 1.177104 1 0 sctp 48 -------S 0 1.0 0.0 1 21 41 65535 65535
- 1.177104 1 0 sctp 48 -------S 0 1.0 0.0 1 21 41 65535 65535
r 1.179504 0 1 sctp 1500 -------D 0 0.0 1.0 1 22 36 0 21
r 1.181904 0 1 sctp 1500 -------D 0 0.0 1.0 1 23 37 0 22
+ 1.181904 1 0 sctp 48 -------S 0 1.0 0.0 1 23 42 65535 65535
- 1.181904 1 0 sctp 48 -------S 0 1.0 0.0 1 23 42 65535 65535
r 1.212781 1 0 sctp 48 -------S 0 1.0 0.0 1 15 38 65535 65535
+ 1.212781 0 1 sctp 1500 -------D 0 0.0 1.0 1 24 43 0 23
- 1.212781 0 1 sctp 1500 -------D 0 0.0 1.0 1 24 43 0 23
+ 1.212781 0 1 sctp 1500 -------D 0 0.0 1.0 1 25 44 0 24
+ 1.212781 0 1 sctp 1500 -------D 0 0.0 1.0 1 26 45 0 25
- 1.215181 0 1 sctp 1500 -------D 0 0.0 1.0 1 25 44 0 24
r 1.217581 1 0 sctp 48 -------S 0 1.0 0.0 1 17 39 65535 65535
+ 1.217581 0 1 sctp 1500 -------D 0 0.0 1.0 1 27 46 0 26
+ 1.217581 0 1 sctp 1500 -------D 0 0.0 1.0 1 28 47 0 27
+ 1.217581 0 1 sctp 1500 -------D 0 0.0 1.0 1 29 48 0 28
- 1.217581 0 1 sctp 1500 -------D 0 0.0 1.0 1 26 45 0 25
- 1.219981 0 1 sctp 1500 -------D 0 0.0 1.0 1 27 46 0 26
r 1.222381 1 0 sctp 48 -------S 0 1.0 0.0 1 19 40 65535 65535
+ 1.222381 0 1 sctp 1500 -------D 0 0.0 1.0 1 30 49 0 29
+ 1.222381 0 1 sctp 1500 -------D 0 0.0 1.0 1 31 50 0 30
+ 1.222381 0 1 sctp 1500 -------D 0 0.0 1.0 1 32 51 0 31
- 1.222381 0 1 sctp 1500 -------D 0 0.0 1.0 1 28 47 0 27
- 1.224781 0 1 sctp 1500 -------D 0 0.0 1.0 1 29 48 0 28
r 1.227181 1 0 sctp 48 -------S 0 1.0 0.0 1 21 41 65535 65535
+ 1.227181 0 1 sctp 1500 -------D 0 0.0 1.0 1 33 52 0 32
+ 1.227181 0 1 sctp 1500 -------D 0 0.0 1.0 1 34 53 0 33
+ 1.227181 0 1 sctp 1500 -------D 0 0.0 1.0 1 35 54 0 34
- 1.227181 0 1 sctp 1500 -------D 0 0.0 1.0 1 30 49 0 29
- 1.229581 0 1 sctp 1500 -------D 0 0.0 1.0 1 31 50 0 30
r 1.231981 1 0 sctp 48 -------S 0 1.0 0.0 1 23 42 65535 65535
+ 1.231981 0 1 sctp 1500 -------D 0 0.0 1.0 1 36 55 0 35
+ 1.231981 0 1 sctp 1500 -------D 0 0.0 1.0 1 37 56 0 36
+ 1.231981 0 1 sctp 1500 -------D 0 0.0 1.0 1 38 57 0 37
- 1.231981 0 1 sctp 1500 -------D 0 0.0 1.0 1 32 51 0 31
- 1.234381 0 1 sctp 1500 -------D 0 0.0 1.0 1 33 52 0 32
- 1.236781 0 1 sctp 1500 -------D 0 0.0 1.0 1 34 53 0 33
- 1.239181 0 1 sctp 1500 -------D 0 0.0 1.0 1 35 54 0 34
- 1.241581 0 1 sctp 1500 -------D 0 0.0 1.0 1 36 55 0 35
- 1.243981 0 1 sctp 1500 -------D 0 0.0 1.0 1 37 56 0 36
- 1.246381 0 1 sctp 1500 -------D 0 0.0 1.0 1 38 57 0 37
r 1.265181 0 1 sctp 1500 -------D 0 0.0 1.0 1 24 43 0 23
r 1.267581 0 1 sctp 1500 -------D 0 0.0 1.0 1 25 44 0 24
+ 1.267581 1 0 sctp 48 -------S 0 1.0 0.0 1 25 58 65535 65535
- 1.267581 1 0 sctp 48 -------S 0 1.0 0.0 1 25 58 65535 65535
r 1.269981 0 1 sctp 1500 -------D 0 0.0 1.0 1 26 45 0 25
r 1.272381 0 1 sctp 1500 -------D 0 0.0 1.0 1 27 46 0 26
+ 1.272381 1 0 sctp 48 -------S 0 1.0 0.0 1 27 59 65535 65535
- 1.272381 1 0 sctp 48 -------S 0 1.0 0.0 1 27 59 65535 65535
r 1.274781 0 1 sctp 1500 -------D 0 0.0 1.0 1 28 47 0 27
r 1.277181 0 1 sctp 1500 -------D 0 0.0 1.0 1 29 48 0 28
+ 1.277181 1 0 sctp 48 -------S 0 1.0 0.0 1 29 60 65535 65535
- 1.277181 1 0 sctp 48 -------S 0 1.0 0.0 1 29 60 65535 65535
r 1.279581 0 1 sctp 1500 -------D 0 0.0 1.0 1 30 49 0 29
r 1.281981 0 1 sctp 1500 -------D 0 0.0 1.0 1 31 50 0 30
+ 1.281981 1 0 sctp 48 -------S 0 1.0 0.0 1 31 61 65535 65535
- 1.281981 1 0 sctp 48 -------S 0 1.0 0.0 1 31 61 65535 65535
r 1.284381 0 1 sctp 1500 -------D 0 0.0 1.0 1 32 51 0 31
r 1.286781 0 1 sctp 1500 -------D 0 0.0 1.0 1 33 52 0 32
+ 1.286781 1 0 sctp 48 -------S 0 1.0 0.0 1 33 62 65535 65535
- 1.286781 1 0 sctp 48 -------S 0 1.0 0.0 1 33 62 65535 65535
r 1.289181 0 1 sctp 1500 -------D 0 0.0 1.0 1 34 53 0 33
r 1.291581 0 1 sctp 1500 -------D 0 0.0 1.0 1 35 54 0 34
+ 1.291581 1 0 sctp 48 -------S 0 1.0 0.0 1 35 63 65535 65535
- 1.291581 1 0 sctp 48 -------S 0 1.0 0.0 1 35 63 65535 65535
r 1.293981 0 1 sctp 1500 -------D 0 0.0 1.0 1 36 55 0 35
r 1.296381 0 1 sctp 1500 -------D 0 0.0 1.0 1 37 56 0 36
+ 1.296381 1 0 sctp 48 -------S 0 1.0 0.0 1 37 64 65535 65535
- 1.296381 1 0 sctp 48 -------S 0 1.0 0.0 1 37 64 65535 65535
r 1.298781 0 1 sctp 1500 -------D 0 0.0 1.0 1 38 57 0 37
r 1.317658 1 0 sctp 48 -------S 0 1.0 0.0 1 25 58 65535 65535
+ 1.317658 0 1 sctp 1500 -------D 0 0.0 1.0 1 39 65 0 38
- 1.317658 0 1 sctp 1500 -------D 0 0.0 1.0 1 39 65 0 38
+ 1.317658 0 1 sctp 1500 -------D 0 0.0 1.0 1 40 66 0 39
+ 1.317658 0 1 sctp 1500 -------D 0 0.0 1.0 1 41 67 0 40
- 1.320058 0 1 sctp 1500 -------D 0 0.0 1.0 1 40 66 0 39
r 1.322458 1 0 sctp 48 -------S 0 1.0 0.0 1 27 59 65535 65535
+ 1.322458 0 1 sctp 1500 -------D 0 0.0 1.0 1 42 68 0 41
+ 1.322458 0 1 sctp 1500 -------D 0 0.0 1.0 1 43 69 0 42
- 1.322458 0 1 sctp 1500 -------D 0 0.0 1.0 1 41 67 0 40
- 1.324858 0 1 sctp 1500 -------D 0 0.0 1.0 1 42 68 0 41
r 1.327258 1 0 sctp 48 -------S 0 1.0 0.0 1 29 60 65535 65535
+ 1.327258 0 1 sctp 1500 -------D 0 0.0 1.0 1 44 70 0 43
+ 1.327258 0 1 sctp 1500 -------D 0 0.0 1.0 1 45 71 0 44
- 1.327258 0 1 sctp 1500 -------D 0 0.0 1.0 1 43 69 0 42
- 1.329658 0 1 sctp 1500 -------D 0 0.0 1.0 1 44 70 0 43
r 1.332058 1 0 sctp 48 -------S 0 1.0 0.0 1 31 61 65535 65535
+ 1.332058 0 1 sctp 1500 -------D 0 0.0 1.0 1 46 72 0 45
+ 1.332058 0 1 sctp 1500 -------D 0 0.0 1.0 1 47 73 0 46
- 1.332058 0 1 sctp 1500 -------D 0 0.0 1.0 1 45 71 0 44
- 1.334458 0 1 sctp 1500 -------D 0 0.0 1.0 1 46 72 0 45
r 1.336858 1 0 sctp 48 -------S 0 1.0 0.0 1 33 62 65535 65535
+ 1.336858 0 1 sctp 1500 -------D 0 0.0 1.0 1 48 74 0 47
+ 1.336858 0 1 sctp 1500 -------D 0 0.0 1.0 1 49 75 0 48
- 1.336858 0 1 sctp 1500 -------D 0 0.0 1.0 1 47 73 0 46
- 1.339258 0 1 sctp 1500 -------D 0 0.0 1.0 1 48 74 0 47
r 1.341658 1 0 sctp 48 -------S 0 1.0 0.0 1 35 63 65535 65535
+ 1.341658 0 1 sctp 1500 -------D 0 0.0 1.0 1 50 76 0 49
+ 1.341658 0 1 sctp 1500 -------D 0 0.0 1.0 1 51 77 0 50
- 1.341658 0 1 sctp 1500 -------D 0 0.0 1.0 1 49 75 0 48
- 1.344058 0 1 sctp 1500 -------D 0 0.0 1.0 1 50 76 0 49
r 1.346458 1 0 sctp 48 -------S 0 1.0 0.0 1 37 64 65535 65535
+ 1.346458 0 1 sctp 1500 -------D 0 0.0 1.0 1 52 78 0 51
+ 1.346458 0 1 sctp 1500 -------D 0 0.0 1.0 1 53 79 0 52
- 1.346458 0 1 sctp 1500 -------D 0 0.0 1.0 1 51 77 0 50
- 1.348858 0 1 sctp 1500 -------D 0 0.0 1.0 1 52 78 0 51
- 1.351258 0 1 sctp 1500 -------D 0 0.0 1.0 1 53 79 0 52
r 1.370058 0 1 sctp 1500 -------D 0 0.0 1.0 1 39 65 0 38
+ 1.370058 1 0 sctp 48 -------S 0 1.0 0.0 1 39 80 65535 65535
- 1.370058 1 0 sctp 48 -------S 0 1.0 0.0 1 39 80 65535 65535
r 1.372458 0 1 sctp 1500 -------D 0 0.0 1.0 1 40 66 0 39
r 1.374858 0 1 sctp 1500 -------D 0 0.0 1.0 1 41 67 0 40
+ 1.374858 1 0 sctp 48 -------S 0 1.0 0.0 1 41 81 65535 65535
- 1.374858 1 0 sctp 48 -------S 0 1.0 0.0 1 41 81 65535 65535
r 1.377258 0 1 sctp 1500 -------D 0 0.0 1.0 1 42 68 0 41
r 1.379658 0 1 sctp 1500 -------D 0 0.0 1.0 1 43 69 0 42
+ 1.379658 1 0 sctp 48 -------S 0 1.0 0.0 1 43 82 65535 65535
- 1.379658 1 0 sctp 48 -------S 0 1.0 0.0 1 43 82 65535 65535
r 1.382058 0 1 sctp 1500 -------D 0 0.0 1.0 1 44 70 0 43
r 1.384458 0 1 sctp 1500 -------D 0 0.0 1.0 1 45 71 0 44
+ 1.384458 1 0 sctp 48 -------S 0 1.0 0.0 1 45 83 65535 65535
- 1.384458 1 0 sctp 48 -------S 0 1.0 0.0 1 45 83 65535 65535
r 1.386858 0 1 sctp 1500 -------D 0 0.0 1.0 1 46 72 0 45
r 1.389258 0 1 sctp 1500 -------D 0 0.0 1.0 1 47 73 0 46
+ 1.389258 1 0 sctp 48 -------S 0 1.0 0.0 1 47 84 65535 65535
- 1.389258 1 0 sctp 48 -------S 0 1.0 0.0 1 47 84 65535 65535
r 1.391658 0 1 sctp 1500 -------D 0 0.0 1.0 1 48 74 0 47
r 1.394058 0 1 sctp 1500 -------D 0 0.0 1.0 1 49 75 0 48
+ 1.394058 1 0 sctp 48 -------S 0 1.0 0.0 1 49 85 65535 65535
- 1.394058 1 0 sctp 48 -------S 0 1.0 0.0 1 49 85 65535 65535
r 1.396458 0 1 sctp 1500 -------D 0 0.0 1.0 1 50 76 0 49
r 1.398858 0 1 sctp 1500 -------D 0 0.0 1.0 1 51 77 0 50
+ 1.398858 1 0 sctp 48 -------S 0 1.0 0.0 1 51 86 65535 65535
- 1.398858 1 0 sctp 48 -------S 0 1.0 0.0 1 51 86 65535 65535
r 1.401258 0 1 sctp 1500 -------D 0 0.0 1.0 1 52 78 0 51
r 1.403658 0 1 sctp 1500 -------D 0 0.0 1.0 1 53 79 0 52
+ 1.403658 1 0 sctp 48 -------S 0 1.0 0.0 1 53 87 65535 65535
- 1.403658 1 0 sctp 48 -------S 0 1.0 0.0 1 53 87 65535 65535
r 1.420134 1 0 sctp 48 -------S 0 1.0 0.0 1 39 80 65535 65535
+ 1.420134 0 1 sctp 1500 -------D 0 0.0 1.0 1 54 88 0 53
- 1.420134 0 1 sctp 1500 -------D 0 0.0 1.0 1 54 88 0 53
+ 1.420134 0 1 sctp 1500 -------D 0 0.0 1.0 1 55 89 0 54
- 1.422534 0 1 sctp 1500 -------D 0 0.0 1.0 1 55 89 0 54
r 1.424934 1 0 sctp 48 -------S 0 1.0 0.0 1 41 81 65535 65535
+ 1.424934 0 1 sctp 1500 -------D 0 0.0 1.0 1 56 90 0 55
+ 1.424934 0 1 sctp 1500 -------D 0 0.0 1.0 1 57 91 0 56
- 1.424934 0 1 sctp 1500 -------D 0 0.0 1.0 1 56 90 0 55
- 1.427334 0 1 sctp 1500 -------D 0 0.0 1.0 1 57 91 0 56
r 1.429734 1 0 sctp 48 -------S 0 1.0 0.0 1 43 82 65535 65535
+ 1.429734 0 1 sctp 1500 -------D 0 0.0 1.0 1 58 92 0 57
+ 1.429734 0 1 sctp 1500 -------D 0 0.0 1.0 1 59 93 0 58
- 1.429734 0 1 sctp 1500 -------D 0 0.0 1.0 1 58 92 0 57
- 1.432134 0 1 sctp 1500 -------D 0 0.0 1.0 1 59 93 0 58
r 1.434534 1 0 sctp 48 -------S 0 1.0 0.0 1 45 83 65535 65535
+ 1.434534 0 1 sctp 1500 -------D 0 0.0 1.0 1 60 94 0 59
+ 1.434534 0 1 sctp 1500 -------D 0 0.0 1.0 1 61 95 0 60
- 1.434534 0 1 sctp 1500 -------D 0 0.0 1.0 1 60 94 0 59
- 1.436934 0 1 sctp 1500 -------D 0 0.0 1.0 1 61 95 0 60
r 1.439334 1 0 sctp 48 -------S 0 1.0 0.0 1 47 84 65535 65535
+ 1.439334 0 1 sctp 1500 -------D 0 0.0 1.0 1 62 96 0 61
+ 1.439334 0 1 sctp 1500 -------D 0 0.0 1.0 1 63 97 0 62
- 1.439334 0 1 sctp 1500 -------D 0 0.0 1.0 1 62 96 0 61
- 1.441734 0 1 sctp 1500 -------D 0 0.0 1.0 1 63 97 0 62
r 1.444134 1 0 sctp 48 -------S 0 1.0 0.0 1 49 85 65535 65535
+ 1.444134 0 1 sctp 1500 -------D 0 0.0 1.0 1 64 98 0 63
+ 1.444134 0 1 sctp 1500 -------D 0 0.0 1.0 1 65 99 0 64
- 1.444134 0 1 sctp 1500 -------D 0 0.0 1.0 1 64 98 0 63
- 1.446534 0 1 sctp 1500 -------D 0 0.0 1.0 1 65 99 0 64
r 1.448934 1 0 sctp 48 -------S 0 1.0 0.0 1 51 86 65535 65535
+ 1.448934 0 1 sctp 1500 -------D 0 0.0 1.0 1 66 100 0 65
+ 1.448934 0 1 sctp 1500 -------D 0 0.0 1.0 1 67 101 0 66
- 1.448934 0 1 sctp 1500 -------D 0 0.0 1.0 1 66 100 0 65
- 1.451334 0 1 sctp 1500 -------D 0 0.0 1.0 1 67 101 0 66
r 1.453734 1 0 sctp 48 -------S 0 1.0 0.0 1 53 87 65535 65535
+ 1.453734 0 1 sctp 1500 -------D 0 0.0 1.0 1 68 102 0 67
+ 1.453734 0 1 sctp 1500 -------D 0 0.0 1.0 1 69 103 0 68
- 1.453734 0 1 sctp 1500 -------D 0 0.0 1.0 1 68 102 0 67
- 1.456134 0 1 sctp 1500 -------D 0 0.0 1.0 1 69 103 0 68
r 1.472534 0 1 sctp 1500 -------D 0 0.0 1.0 1 54 88 0 53
r 1.474934 0 1 sctp 1500 -------D 0 0.0 1.0 1 55 89 0 54
+ 1.474934 1 0 sctp 48 -------S 0 1.0 0.0 1 55 104 65535 65535
- 1.474934 1 0 sctp 48 -------S 0 1.0 0.0 1 55 104 65535 65535
r 1.477334 0 1 sctp 1500 -------D 0 0.0 1.0 1 56 90 0 55
r 1.479734 0 1 sctp 1500 -------D 0 0.0 1.0 1 57 91 0 56
+ 1.479734 1 0 sctp 48 -------S 0 1.0 0.0 1 57 105 65535 65535
- 1.479734 1 0 sctp 48 -------S 0 1.0 0.0 1 57 105 65535 65535
r 1.482134 0 1 sctp 1500 -------D 0 0.0 1.0 1 58 92 0 57
r 1.484534 0 1 sctp 1500 -------D 0 0.0 1.0 1 59 93 0 58
+ 1.484534 1 0 sctp 48 -------S 0 1.0 0.0 1 59 106 65535 65535
- 1.484534 1 0 sctp 48 -------S 0 1.0 0.0 1 59 106 65535 65535
r 1.486934 0 1 sctp 1500 -------D 0 0.0 1.0 1 60 94 0 59
r 1.489334 0 1 sctp 1500 -------D 0 0.0 1.0 1 61 95 0 60
+ 1.489334 1 0 sctp 48 -------S 0 1.0 0.0 1 61 107 65535 65535
- 1.489334 1 0 sctp 48 -------S 0 1.0 0.0 1 61 107 65535 65535
r 1.491734 0 1 sctp 1500 -------D 0 0.0 1.0 1 62 96 0 61
r 1.494134 0 1 sctp 1500 -------D 0 0.0 1.0 1 63 97 0 62
+ 1.494134 1 0 sctp 48 -------S 0 1.0 0.0 1 63 108 65535 65535
- 1.494134 1 0 sctp 48 -------S 0 1.0 0.0 1 63 108 65535 65535
r 1.496534 0 1 sctp 1500 -------D 0 0.0 1.0 1 64 98 0 63
r 1.498934 0 1 sctp 1500 -------D 0 0.0 1.0 1 65 99 0 64
+ 1.498934 1 0 sctp 48 -------S 0 1.0 0.0 1 65 109 65535 65535
- 1.498934 1 0 sctp 48 -------S 0 1.0 0.0 1 65 109 65535 65535
r 1.501334 0 1 sctp 1500 -------D 0 0.0 1.0 1 66 100 0 65
r 1.503734 0 1 sctp 1500 -------D 0 0.0 1.0 1 67 101 0 66
+ 1.503734 1 0 sctp 48 -------S 0 1.0 0.0 1 67 110 65535 65535
- 1.503734 1 0 sctp 48 -------S 0 1.0 0.0 1 67 110 65535 65535
r 1.506134 0 1 sctp 1500 -------D 0 0.0 1.0 1 68 102 0 67
r 1.508534 0 1 sctp 1500 -------D 0 0.0 1.0 1 69 103 0 68
+ 1.508534 1 0 sctp 48 -------S 0 1.0 0.0 1 69 111 65535 65535
- 1.508534 1 0 sctp 48 -------S 0 1.0 0.0 1 69 111 65535 65535
r 1.525011 1 0 sctp 48 -------S 0 1.0 0.0 1 55 104 65535 65535
+ 1.525011 0 1 sctp 1500 -------D 0 0.0 1.0 1 70 112 0 69
- 1.525011 0 1 sctp 1500 -------D 0 0.0 1.0 1 70 112 0 69
+ 1.525011 0 1 sctp 1500 -------D 0 0.0 1.0 1 71 113 0 70
- 1.527411 0 1 sctp 1500 -------D 0 0.0 1.0 1 71 113 0 70
r 1.529811 1 0 sctp 48 -------S 0 1.0 0.0 1 57 105 65535 65535
+ 1.529811 0 1 sctp 1500 -------D 0 0.0 1.0 1 72 114 0 71
+ 1.529811 0 1 sctp 1500 -------D 0 0.0 1.0 1 73 115 0 72
- 1.529811 0 1 sctp 1500 -------D 0 0.0 1.0 1 72 114 0 71
- 1.532211 0 1 sctp 1500 -------D 0 0.0 1.0 1 73 115 0 72
r 1.534611 1 0 sctp 48 -------S 0 1.0 0.0 1 59 106 65535 65535
+ 1.534611 0 1 sctp 1500 -------D 0 0.0 1.0 1 74 116 0 73
+ 1.534611 0 1 sctp 1500 -------D 0 0.0 1.0 1 75 117 0 74
- 1.534611 0 1 sctp 1500 -------D 0 0.0 1.0 1 74 116 0 73
- 1.537011 0 1 sctp 1500 -------D 0 0.0 1.0 1 75 117 0 74
r 1.539411 1 0 sctp 48 -------S 0 1.0 0.0 1 61 107 65535 65535
+ 1.539411 0 1 sctp 1500 -------D 0 0.0 1.0 1 76 118 0 75
+ 1.539411 0 1 sctp 1500 -------D 0 0.0 1.0 1 77 119 0 76
- 1.539411 0 1 sctp 1500 -------D 0 0.0 1.0 1 76 118 0 75
- 1.541811 0 1 sctp 1500 -------D 0 0.0 1.0 1 77 119 0 76
r 1.544211 1 0 sctp 48 -------S 0 1.0 0.0 1 63 108 65535 65535
+ 1.544211 0 1 sctp 1500 -------D 0 0.0 1.0 1 78 120 0 77
+ 1.544211 0 1 sctp 1500 -------D 0 0.0 1.0 1 79 121 0 78
- 1.544211 0 1 sctp 1500 -------D 0 0.0 1.0 1 78 120 0 77
- 1.546611 0 1 sctp 1500 -------D 0 0.0 1.0 1 79 121 0 78
r 1.549011 1 0 sctp 48 -------S 0 1.0 0.0 1 65 109 65535 65535
+ 1.549011 0 1 sctp 1500 -------D 0 0.0 1.0 1 80 122 0 79
+ 1.549011 0 1 sctp 1500 -------D 0 0.0 1.0 1 81 123 0 80
- 1.549011 0 1 sctp 1500 -------D 0 0.0 1.0 1 80 122 0 79
- 1.551411 0 1 sctp 1500 -------D 0 0.0 1.0 1 81 123 0 80
r 1.553811 1 0 sctp 48 -------S 0 1.0 0.0 1 67 110 65535 65535
+ 1.553811 0 1 sctp 1500 -------D 0 0.0 1.0 1 82 124 0 81
+ 1.553811 0 1 sctp 1500 -------D 0 0.0 1.0 1 83 125 0 82
- 1.553811 0 1 sctp 1500 -------D 0 0.0 1.0 1 82 124 0 81
- 1.556211 0 1 sctp 1500 -------D 0 0.0 1.0 1 83 125 0 82
r 1.558611 1 0 sctp 48 -------S 0 1.0 0.0 1 69 111 65535 65535
+ 1.558611 0 1 sctp 1500 -------D 0 0.0 1.0 1 84 126 0 83
+ 1.558611 0 1 sctp 1500 -------D 0 0.0 1.0 1 85 127 0 84
- 1.558611 0 1 sctp 1500 -------D 0 0.0 1.0 1 84 126 0 83
- 1.561011 0 1 sctp 1500 -------D 0 0.0 1.0 1 85 127 0 84
r 1.577411 0 1 sctp 1500 -------D 0 0.0 1.0 1 70 112 0 69
r 1.579811 0 1 sctp 1500 -------D 0 0.0 1.0 1 71 113 0 70
+ 1.579811 1 0 sctp 48 -------S 0 1.0 0.0 1 71 128 65535 65535
- 1.579811 1 0 sctp 48 -------S 0 1.0 0.0 1 71 128 65535 65535
r 1.582211 0 1 sctp 1500 -------D 0 0.0 1.0 1 72 114 0 71
r 1.584611 0 1 sctp 1500 -------D 0 0.0 1.0 1 73 115 0 72
+ 1.584611 1 0 sctp 48 -------S 0 1.0 0.0 1 73 129 65535 65535
- 1.584611 1 0 sctp 48 -------S 0 1.0 0.0 1 73 129 65535 65535
r 1.587011 0 1 sctp 1500 -------D 0 0.0 1.0 1 74 116 0 73
r 1.589411 0 1 sctp 1500 -------D 0 0.0 1.0 1 75 117 0 74
+ 1.589411 1 0 sctp 48 -------S 0 1.0 0.0 1 75 130 65535 65535
- 1.589411 1 0 sctp 48 -------S 0 1.0 0.0 1 75 130 65535 65535
r 1.591811 0 1 sctp 1500 -------D 0 0.0 1.0 1 76 118 0 75
r 1.594211 0 1 sctp 1500 -------D 0 0.0 1.0 1 77 119 0 76
+ 1.594211 1 0 sctp 48 -------S 0 1.0 0.0 1 77 131 65535 65535
- 1.594211 1 0 sctp 48 -------S 0 1.0 0.0 1 77 131 65535 65535
r 1.596611 0 1 sctp 1500 -------D 0 0.0 1.0 1 78 120 0 77
r 1.599011 0 1 sctp 1500 -------D 0 0.0 1.0 1 79 121 0 78
+ 1.599011 1 0 sctp 48 -------S 0 1.0 0.0 1 79 132 65535 65535
- 1.599011 1 0 sctp 48 -------S 0 1.0 0.0 1 79 132 65535 65535
r 1.601411 0 1 sctp 1500 -------D 0 0.0 1.0 1 80 122 0 79
r 1.603811 0 1 sctp 1500 -------D 0 0.0 1.0 1 81 123 0 80
+ 1.603811 1 0 sctp 48 -------S 0 1.0 0.0 1 81 133 65535 65535
- 1.603811 1 0 sctp 48 -------S 0 1.0 0.0 1 81 133 65535 65535
r 1.606211 0 1 sctp 1500 -------D 0 0.0 1.0 1 82 124 0 81
r 1.608611 0 1 sctp 1500 -------D 0 0.0 1.0 1 83 125 0 82
+ 1.608611 1 0 sctp 48 -------S 0 1.0 0.0 1 83 134 65535 65535
- 1.608611 1 0 sctp 48 -------S 0 1.0 0.0 1 83 134 65535 65535
r 1.611011 0 1 sctp 1500 -------D 0 0.0 1.0 1 84 126 0 83
r 1.613411 0 1 sctp 1500 -------D 0 0.0 1.0 1 85 127 0 84
+ 1.613411 1 0 sctp 48 -------S 0 1.0 0.0 1 85 135 65535 65535
- 1.613411 1 0 sctp 48 -------S 0 1.0 0.0 1 85 135 65535 65535
r 1.629888 1 0 sctp 48 -------S 0 1.0 0.0 1 71 128 65535 65535
+ 1.629888 0 1 sctp 1500 -------D 0 0.0 1.0 1 86 136 0 85
- 1.629888 0 1 sctp 1500 -------D 0 0.0 1.0 1 86 136 0 85
+ 1.629888 0 1 sctp 1500 -------D 0 0.0 1.0 1 87 137 0 86
- 1.632288 0 1 sctp 1500 -------D 0 0.0 1.0 1 87 137 0 86
r 1.634688 1 0 sctp 48 -------S 0 1.0 0.0 1 73 129 65535 65535
+ 1.634688 0 1 sctp 1500 -------D 0 0.0 1.0 1 88 138 0 87
+ 1.634688 0 1 sctp 1500 -------D 0 0.0 1.0 1 89 139 0 88
- 1.634688 0 1 sctp 1500 -------D 0 0.0 1.0 1 88 138 0 87
- 1.637088 0 1 sctp 1500 -------D 0 0.0 1.0 1 89 139 0 88
r 1.639488 1 0 sctp 48 -------S 0 1.0 0.0 1 75 130 65535 65535
+ 1.639488 0 1 sctp 1500 -------D 0 0.0 1.0 1 90 140 0 89
+ 1.639488 0 1 sctp 1500 -------D 0 0.0 1.0 1 91 141 0 90
- 1.639488 0 1 sctp 1500 -------D 0 0.0 1.0 1 90 140 0 89
- 1.641888 0 1 sctp 1500 -------D 0 0.0 1.0 1 91 141 0 90
r 1.644288 1 0 sctp 48 -------S 0 1.0 0.0 1 77 131 65535 65535
+ 1.644288 0 1 sctp 1500 -------D 0 0.0 1.0 1 92 142 0 91
+ 1.644288 0 1 sctp 1500 -------D 0 0.0 1.0 1 93 143 0 92
- 1.644288 0 1 sctp 1500 -------D 0 0.0 1.0 1 92 142 0 91
- 1.646688 0 1 sctp 1500 -------D 0 0.0 1.0 1 93 143 0 92
r 1.649088 1 0 sctp 48 -------S 0 1.0 0.0 1 79 132 65535 65535
+ 1.649088 0 1 sctp 1500 -------D 0 0.0 1.0 1 94 144 0 93
+ 1.649088 0 1 sctp 1500 -------D 0 0.0 1.0 1 95 145 0 94
- 1.649088 0 1 sctp 1500 -------D 0 0.0 1.0 1 94 144 0 93
- 1.651488 0 1 sctp 1500 -------D 0 0.0 1.0 1 95 145 0 94
r 1.653888 1 0 sctp 48 -------S 0 1.0 0.0 1 81 133 65535 65535
+ 1.653888 0 1 sctp 1500 -------D 0 0.0 1.0 1 96 146 0 95
+ 1.653888 0 1 sctp 1500 -------D 0 0.0 1.0 1 97 147 0 96
- 1.653888 0 1 sctp 1500 -------D 0 0.0 1.0 1 96 146 0 95
- 1.656288 0 1 sctp 1500 -------D 0 0.0 1.0 1 97 147 0 96
r 1.658688 1 0 sctp 48 -------S 0 1.0 0.0 1 83 134 65535 65535
+ 1.658688 0 1 sctp 1500 -------D 0 0.0 1.0 1 98 148 0 97
+ 1.658688 0 1 sctp 1500 -------D 0 0.0 1.0 1 99 149 0 98
- 1.658688 0 1 sctp 1500 -------D 0 0.0 1.0 1 98 148 0 97
- 1.661088 0 1 sctp 1500 -------D 0 0.0 1.0 1 99 149 0 98
r 1.663488 1 0 sctp 48 -------S 0 1.0 0.0 1 85 135 65535 65535
+ 1.663488 0 1 sctp 1500 -------D 0 0.0 1.0 1 100 150 0 99
+ 1.663488 0 1 sctp 1500 -------D 0 0.0 1.0 1 101 151 0 100
- 1.663488 0 1 sctp 1500 -------D 0 0.0 1.0 1 100 150 0 99
- 1.665888 0 1 sctp 1500 -------D 0 0.0 1.0 1 101 151 0 100
r 1.682288 0 1 sctp 1500 -------D 0 0.0 1.0 1 86 136 0 85
r 1.684688 0 1 sctp 1500 -------D 0 0.0 1.0 1 87 137 0 86
+ 1.684688 1 0 sctp 48 -------S 0 1.0 0.0 1 87 152 65535 65535
- 1.684688 1 0 sctp 48 -------S 0 1.0 0.0 1 87 152 65535 65535
r 1.687088 0 1 sctp 1500 -------D 0 0.0 1.0 1 88 138 0 87
r 1.689488 0 1 sctp 1500 -------D 0 0.0 1.0 1 89 139 0 88
+ 1.689488 1 0 sctp 48 -------S 0 1.0 0.0 1 89 153 65535 65535
- 1.689488 1 0 sctp 48 -------S 0 1.0 0.0 1 89 153 65535 65535
r 1.691888 0 1 sctp 1500 -------D 0 0.0 1.0 1 90 140 0 89
r 1.694288 0 1 sctp 1500 -------D 0 0.0 1.0 1 91 141 0 90
+ 1.694288 1 0 sctp 48 -------S 0 1.0 0.0 1 91 154 65535 65535
- 1.694288 1 0 sctp 48 -------S 0 1.0 0.0 1 91 154 65535 65535
r 1.696688 0 1 sctp 1500 -------D 0 0.0 1.0 1 92 142 0 91
r 1.699088 0 1 sctp 1500 -------D 0 0.0 1.0 1 93 143 0 92
+ 1.699088 1 0 sctp 48 -------S 0 1.0 0.0 1 93 155 65535 65535
- 1.699088 1 0 sctp 48 -------S 0 1.0 0.0 1 93 155 65535 65535
r 1.701488 0 1 sctp 1500 -------D 0 0.0 1.0 1 94 144 0 93
r 1.703888 0 1 sctp 1500 -------D 0 0.0 1.0 1 95 145 0 94
+ 1.703888 1 0 sctp 48 -------S 0 1.0 0.0 1 95 156 65535 65535
- 1.703888 1 0 sctp 48 -------S 0 1.0 0.0 1 95 156 65535 65535
r 1.706288 0 1 sctp 1500 -------D 0 0.0 1.0 1 96 146 0 95
r 1.708688 0 1 sctp 1500 -------D 0 0.0 1.0 1 97 147 0 96
+ 1.708688 1 0 sctp 48 -------S 0 1.0 0.0 1 97 157 65535 65535
- 1.708688 1 0 sctp 48 -------S 0 1.0 0.0 1 97 157 65535 65535
r 1.711088 0 1 sctp 1500 -------D 0 0.0 1.0 1 98 148 0 97
r 1.713488 0 1 sctp 1500 -------D 0 0.0 1.0 1 99 149 0 98
+ 1.713488 1 0 sctp 48 -------S 0 1.0 0.0 1 99 158 65535 65535
- 1.713488 1 0 sctp 48 -------S 0 1.0 0.0 1 99 158 65535 65535
r 1.715888 0 1 sctp 1500 -------D 0 0.0 1.0 1 100 150 0 99
r 1.718288 0 1 sctp 1500 -------D 0 0.0 1.0 1 101 151 0 100
+ 1.718288 1 0 sctp 48 -------S 0 1.0 0.0 1 101 159 65535 65535
- 1.718288 1 0 sctp 48 -------S 0 1.0 0.0 1 101 159 65535 65535
r 1.734765 1 0 sctp 48 -------S 0 1.0 0.0 1 87 152 65535 65535
+ 1.734765 0 1 sctp 1500 -------D 0 0.0 1.0 1 102 160 0 101
- 1.734765 0 1 sctp 1500 -------D 0 0.0 1.0 1 102 160 0 101
+ 1.734765 0 1 sctp 1500 -------D 0 0.0 1.0 1 103 161 0 102
- 1.737165 0 1 sctp 1500 -------D 0 0.0 1.0 1 103 161 0 102
r 1.739565 1 0 sctp 48 -------S 0 1.0 0.0 1 89 153 65535 65535
+ 1.739565 0 1 sctp 1500 -------D 0 0.0 1.0 1 104 162 0 103
+ 1.739565 0 1 sctp 1500 -------D 0 0.0 1.0 1 105 163 0 104
- 1.739565 0 1 sctp 1500 -------D 0 0.0 1.0 1 104 162 0 103
- 1.741965 0 1 sctp 1500 -------D 0 0.0 1.0 1 105 163 0 104
r 1.744365 1 0 sctp 48 -------S 0 1.0 0.0 1 91 154 65535 65535
+ 1.744365 0 1 sctp 1500 -------D 0 0.0 1.0 1 106 164 0 105
+ 1.744365 0 1 sctp 1500 -------D 0 0.0 1.0 1 107 165 0 106
- 1.744365 0 1 sctp 1500 -------D 0 0.0 1.0 1 106 164 0 105
- 1.746765 0 1 sctp 1500 -------D 0 0.0 1.0 1 107 165 0 106
r 1.749165 1 0 sctp 48 -------S 0 1.0 0.0 1 93 155 65535 65535
+ 1.749165 0 1 sctp 1500 -------D 0 0.0 1.0 1 108 166 0 107
+ 1.749165 0 1 sctp 1500 -------D 0 0.0 1.0 1 109 167 0 108
- 1.749165 0 1 sctp 1500 -------D 0 0.0 1.0 1 108 166 0 107
- 1.751565 0 1 sctp 1500 -------D 0 0.0 1.0 1 109 167 0 108
r 1.753965 1 0 sctp 48 -------S 0 1.0 0.0 1 95 156 65535 65535
+ 1.753965 0 1 sctp 1500 -------D 0 0.0 1.0 1 110 168 0 109
d 1.753965 0 1 sctp 1500 -------D 0 0.0 1.0 1 111 169 0 110
- 1.753965 0 1 sctp 1500 -------D 0 0.0 1.0 1 110 168 0 109
r 1.758765 1 0 sctp 48 -------S 0 1.0 0.0 1 97 157 65535 65535
+ 1.758765 0 1 sctp 1500 -------D 0 0.0 1.0 1 112 170 0 111
- 1.758765 0 1 sctp 1500 -------D 0 0.0 1.0 1 112 170 0 111
+ 1.758765 0 1 sctp 1500 -------D 0 0.0 1.0 1 113 171 0 112
- 1.761165 0 1 sctp 1500 -------D 0 0.0 1.0 1 113 171 0 112
r 1.763565 1 0 sctp 48 -------S 0 1.0 0.0 1 99 158 65535 65535
+ 1.763565 0 1 sctp 1500 -------D 0 0.0 1.0 1 114 172 0 113
+ 1.763565 0 1 sctp 1500 -------D 0 0.0 1.0 1 115 173 0 114
- 1.763565 0 1 sctp 1500 -------D 0 0.0 1.0 1 114 172 0 113
- 1.765965 0 1 sctp 1500 -------D 0 0.0 1.0 1 115 173 0 114
r 1.768365 1 0 sctp 48 -------S 0 1.0 0.0 1 101 159 65535 65535
+ 1.768365 0 1 sctp 1500 -------D 0 0.0 1.0 1 116 174 0 115
+ 1.768365 0 1 sctp 1500 -------D 0 0.0 1.0 1 117 175 0 116
- 1.768365 0 1 sctp 1500 -------D 0 0.0 1.0 1 116 174 0 115
- 1.770765 0 1 sctp 1500 -------D 0 0.0 1.0 1 117 175 0 116
r 1.787165 0 1 sctp 1500 -------D 0 0.0 1.0 1 102 160 0 101
r 1.789565 0 1 sctp 1500 -------D 0 0.0 1.0 1 103 161 0 102
+ 1.789565 1 0 sctp 48 -------S 0 1.0 0.0 1 103 176 65535 65535