+ 0.5 1 4 sctp 56 -------I 0 1.0 4.0 1 -1 4 65535 65535
- 0.5 1 4 sctp 56 -------I 0 1.0 4.0 1 -1 4 65535 65535
r 0.700896 1 4 sctp 56 -------I 0 1.0 4.0 1 -1 4 65535 65535
+ 0.700896 4 1 sctp 56 -------I 0 4.0 1.0 1 -1 5 65535 65535
- 0.700896 4 1 sctp 56 -------I 0 4.0 1.0 1 -1 5 65535 65535
r 0.901792 4 1 sctp 56 -------I 0 4.0 1.0 1 -1 5 65535 65535
+ 0.901792 1 4 sctp 36 -------I 0 1.0 4.0 1 -1 6 65535 65535
- 0.901792 1 4 sctp 36 -------I 0 1.0 4.0 1 -1 6 65535 65535
r 1.102368 1 4 sctp 36 -------I 0 1.0 4.0 1 -1 6 65535 65535
+ 1.102368 4 1 sctp 36 -------I 0 4.0 1.0 1 -1 7 65535 65535
- 1.102368 4 1 sctp 36 -------I 0 4.0 1.0 1 -1 7 65535 65535
r 1.302944 4 1 sctp 36 -------I 0 4.0 1.0 1 -1 7 65535 65535
+ 1.302944 1 4 sctp 56 -------H 0 1.0 4.0 1 -1 8 65535 65535
- 1.302944 1 4 sctp 56 -------H 0 1.0 4.0 1 -1 8 65535 65535
+ 1.302944 2 5 sctp 56 -------H 0 2.0 5.0 1 -1 9 65535 65535
- 1.302944 2 5 sctp 56 -------H 0 2.0 5.0 1 -1 9 65535 65535
r 1.50384 1 4 sctp 56 -------H 0 1.0 4.0 1 -1 8 65535 65535
+ 1.50384 4 1 sctp 56 -------B 0 4.0 1.0 1 -1 10 65535 65535
- 1.50384 4 1 sctp 56 -------B 0 4.0 1.0 1 -1 10 65535 65535
r 1.50384 2 5 sctp 56 -------H 0 2.0 5.0 1 -1 9 65535 65535
+ 1.50384 5 2 sctp 56 -------B 0 5.0 2.0 1 -1 11 65535 65535
- 1.50384 5 2 sctp 56 -------B 0 5.0 2.0 1 -1 11 65535 65535
r 1.704736 4 1 sctp 56 -------B 0 4.0 1.0 1 -1 10 65535 65535
r 1.704736 5 2 sctp 56 -------B 0 5.0 2.0 1 -1 11 65535 65535
+ 1.704736 1 4 sctp 1500 -------D 0 1.0 4.0 1 1 12 0 0
- 1.704736 1 4 sctp 1500 -------D 0 1.0 4.0 1 1 12 0 0
+ 1.704736 1 4 sctp 1500 -------D 0 1.0 4.0 1 2 13 0 1
+ 1.704736 1 4 sctp 1500 -------D 0 1.0 4.0 1 3 14 0 2
- 1.728736 1 4 sctp 1500 -------D 0 1.0 4.0 1 2 13 0 1
- 1.752736 1 4 sctp 1500 -------D 0 1.0 4.0 1 3 14 0 2
r 1.928736 1 4 sctp 1500 -------D 0 1.0 4.0 1 1 12 0 0
+ 1.928736 4 1 sctp 48 -------S 0 4.0 1.0 1 1 15 65535 65535
- 1.928736 4 1 sctp 48 -------S 0 4.0 1.0 1 1 15 65535 65535
r 1.952736 1 4 sctp 1500 -------D 0 1.0 4.0 1 2 13 0 1
r 1.976736 1 4 sctp 1500 -------D 0 1.0 4.0 1 3 14 0 2
+ 1.976736 4 1 sctp 48 -------S 0 4.0 1.0 1 3 16 65535 65535
- 1.976736 4 1 sctp 48 -------S 0 4.0 1.0 1 3 16 65535 65535
r 2.129504 4 1 sctp 48 -------S 0 4.0 1.0 1 1 15 65535 65535
+ 2.129504 1 4 sctp 1500 -------D 0 1.0 4.0 1 4 17 0 3
- 2.129504 1 4 sctp 1500 -------D 0 1.0 4.0 1 4 17 0 3
+ 2.129504 1 4 sctp 1500 -------D 0 1.0 4.0 1 5 18 0 4
- 2.153504 1 4 sctp 1500 -------D 0 1.0 4.0 1 5 18 0 4
r 2.177504 4 1 sctp 48 -------S 0 4.0 1.0 1 3 16 65535 65535
+ 2.177504 1 4 sctp 1500 -------D 0 1.0 4.0 1 6 19 0 5
+ 2.177504 1 4 sctp 1500 -------D 0 1.0 4.0 1 7 20 0 6
+ 2.177504 1 4 sctp 1500 -------D 0 1.0 4.0 1 8 21 0 7
- 2.177504 1 4 sctp 1500 -------D 0 1.0 4.0 1 6 19 0 5
- 2.201504 1 4 sctp 1500 -------D 0 1.0 4.0 1 7 20 0 6
- 2.225504 1 4 sctp 1500 -------D 0 1.0 4.0 1 8 21 0 7
r 2.353504 1 4 sctp 1500 -------D 0 1.0 4.0 1 4 17 0 3
r 2.377504 1 4 sctp 1500 -------D 0 1.0 4.0 1 5 18 0 4
+ 2.377504 4 1 sctp 48 -------S 0 4.0 1.0 1 5 22 65535 65535
- 2.377504 4 1 sctp 48 -------S 0 4.0 1.0 1 5 22 65535 65535
r 2.401504 1 4 sctp 1500 -------D 0 1.0 4.0 1 6 19 0 5
r 2.425504 1 4 sctp 1500 -------D 0 1.0 4.0 1 7 20 0 6
+ 2.425504 4 1 sctp 48 -------S 0 4.0 1.0 1 7 23 65535 65535
- 2.425504 4 1 sctp 48 -------S 0 4.0 1.0 1 7 23 65535 65535
r 2.449504 1 4 sctp 1500 -------D 0 1.0 4.0 1 8 21 0 7
r 2.578272 4 1 sctp 48 -------S 0 4.0 1.0 1 5 22 65535 65535
+ 2.578272 1 4 sctp 1500 -------D 0 1.0 4.0 1 9 24 0 8
- 2.578272 1 4 sctp 1500 -------D 0 1.0 4.0 1 9 24 0 8
+ 2.578272 1 4 sctp 1500 -------D 0 1.0 4.0 1 10 25 0 9
+ 2.578272 1 4 sctp 1500 -------D 0 1.0 4.0 1 11 26 0 10
- 2.602272 1 4 sctp 1500 -------D 0 1.0 4.0 1 10 25 0 9
r 2.626272 4 1 sctp 48 -------S 0 4.0 1.0 1 7 23 65535 65535
+ 2.626272 1 4 sctp 1500 -------D 0 1.0 4.0 1 12 27 0 11
+ 2.626272 1 4 sctp 1500 -------D 0 1.0 4.0 1 13 28 0 12
d 2.626272 1 4 sctp 1500 -------D 0 1.0 4.0 1 14 29 0 13
- 2.626272 1 4 sctp 1500 -------D 0 1.0 4.0 1 11 26 0 10
+ 2.649504 4 1 sctp 48 -------S 0 4.0 1.0 1 8 30 65535 65535
- 2.649504 4 1 sctp 48 -------S 0 4.0 1.0 1 8 30 65535 65535
- 2.650272 1 4 sctp 1500 -------D 0 1.0 4.0 1 12 27 0 11
- 2.674272 1 4 sctp 1500 -------D 0 1.0 4.0 1 13 28 0 12
r 2.802272 1 4 sctp 1500 -------D 0 1.0 4.0 1 9 24 0 8
r 2.826272 1 4 sctp 1500 -------D 0 1.0 4.0 1 10 25 0 9
+ 2.826272 4 1 sctp 48 -------S 0 4.0 1.0 1 10 31 65535 65535
- 2.826272 4 1 sctp 48 -------S 0 4.0 1.0 1 10 31 65535 65535
r 2.850272 1 4 sctp 1500 -------D 0 1.0 4.0 1 11 26 0 10
r 2.850272 4 1 sctp 48 -------S 0 4.0 1.0 1 8 30 65535 65535
d 2.850272 1 4 sctp 1500 -------D 0 1.0 4.0 1 15 32 0 14
d 2.850272 1 4 sctp 1500 -------D 0 1.0 4.0 1 16 33 0 15
r 2.874272 1 4 sctp 1500 -------D 0 1.0 4.0 1 12 27 0 11
+ 2.874272 4 1 sctp 48 -------S 0 4.0 1.0 1 12 34 65535 65535
- 2.874272 4 1 sctp 48 -------S 0 4.0 1.0 1 12 34 65535 65535
r 2.898272 1 4 sctp 1500 -------D 0 1.0 4.0 1 13 28 0 12
r 3.02704 4 1 sctp 48 -------S 0 4.0 1.0 1 10 31 65535 65535
+ 3.02704 1 4 sctp 1500 -------D 0 1.0 4.0 1 17 35 0 16
- 3.02704 1 4 sctp 1500 -------D 0 1.0 4.0 1 17 35 0 16
+ 3.02704 1 4 sctp 1500 -------D 0 1.0 4.0 1 18 36 0 17
+ 3.02704 1 4 sctp 1500 -------D 0 1.0 4.0 1 19 37 0 18
- 3.05104 1 4 sctp 1500 -------D 0 1.0 4.0 1 18 36 0 17
r 3.07504 4 1 sctp 48 -------S 0 4.0 1.0 1 12 34 65535 65535
+ 3.07504 1 4 sctp 1500 -------D 0 1.0 4.0 1 20 38 0 19
+ 3.07504 1 4 sctp 1500 -------D 0 1.0 4.0 1 21 39 0 20
+ 3.07504 1 4 sctp 1500 -------D 0 1.0 4.0 1 22 40 0 21
- 3.07504 1 4 sctp 1500 -------D 0 1.0 4.0 1 19 37 0 18
+ 3.098272 4 1 sctp 48 -------S 0 4.0 1.0 1 13 41 65535 65535
- 3.098272 4 1 sctp 48 -------S 0 4.0 1.0 1 13 41 65535 65535
- 3.09904 1 4 sctp 1500 -------D 0 1.0 4.0 1 20 38 0 19
- 3.12304 1 4 sctp 1500 -------D 0 1.0 4.0 1 21 39 0 20
- 3.14704 1 4 sctp 1500 -------D 0 1.0 4.0 1 22 40 0 21
r 3.25104 1 4 sctp 1500 -------D 0 1.0 4.0 1 17 35 0 16
+ 3.25104 4 1 sctp 52 -------S 0 4.0 1.0 1 13 42 65535 65535
- 3.25104 4 1 sctp 52 -------S 0 4.0 1.0 1 13 42 65535 65535
r 3.27504 1 4 sctp 1500 -------D 0 1.0 4.0 1 18 36 0 17
+ 3.27504 4 1 sctp 52 -------S 0 4.0 1.0 1 13 43 65535 65535
- 3.27504 4 1 sctp 52 -------S 0 4.0 1.0 1 13 43 65535 65535
r 3.29904 1 4 sctp 1500 -------D 0 1.0 4.0 1 19 37 0 18
+ 3.29904 4 1 sctp 52 -------S 0 4.0 1.0 1 13 44 65535 65535
- 3.29904 4 1 sctp 52 -------S 0 4.0 1.0 1 13 44 65535 65535
r 3.29904 4 1 sctp 48 -------S 0 4.0 1.0 1 13 41 65535 65535
+ 3.29904 1 4 sctp 1500 -------D 0 1.0 4.0 1 23 45 0 22
- 3.29904 1 4 sctp 1500 -------D 0 1.0 4.0 1 23 45 0 22
+ 3.29904 1 4 sctp 1500 -------D 0 1.0 4.0 1 24 46 0 23
r 3.32304 1 4 sctp 1500 -------D 0 1.0 4.0 1 20 38 0 19
+ 3.32304 4 1 sctp 52 -------S 0 4.0 1.0 1 13 47 65535 65535
- 3.32304 4 1 sctp 52 -------S 0 4.0 1.0 1 13 47 65535 65535
- 3.32304 1 4 sctp 1500 -------D 0 1.0 4.0 1 24 46 0 23
r 3.34704 1 4 sctp 1500 -------D 0 1.0 4.0 1 21 39 0 20
+ 3.34704 4 1 sctp 52 -------S 0 4.0 1.0 1 13 48 65535 65535
- 3.34704 4 1 sctp 52 -------S 0 4.0 1.0 1 13 48 65535 65535
r 3.37104 1 4 sctp 1500 -------D 0 1.0 4.0 1 22 40 0 21
+ 3.37104 4 1 sctp 52 -------S 0 4.0 1.0 1 13 49 65535 65535
- 3.37104 4 1 sctp 52 -------S 0 4.0 1.0 1 13 49 65535 65535
r 3.451872 4 1 sctp 52 -------S 0 4.0 1.0 1 13 42 65535 65535
+ 3.451872 1 4 sctp 1500 -------D 0 1.0 4.0 1 25 50 0 24
- 3.451872 1 4 sctp 1500 -------D 0 1.0 4.0 1 25 50 0 24
r 3.475872 4 1 sctp 52 -------S 0 4.0 1.0 1 13 43 65535 65535
+ 3.475872 1 4 sctp 1500 -------D 0 1.0 4.0 1 26 51 0 25
- 3.475872 1 4 sctp 1500 -------D 0 1.0 4.0 1 26 51 0 25
r 3.499872 4 1 sctp 52 -------S 0 4.0 1.0 1 13 44 65535 65535
+ 3.499872 2 5 sctp 1500 -------D 0 2.0 5.0 1 14 52 0 13
- 3.499872 2 5 sctp 1500 -------D 0 2.0 5.0 1 14 52 0 13
r 3.52304 1 4 sctp 1500 -------D 0 1.0 4.0 1 23 45 0 22
+ 3.52304 4 1 sctp 52 -------S 0 4.0 1.0 1 13 53 65535 65535
- 3.52304 4 1 sctp 52 -------S 0 4.0 1.0 1 13 53 65535 65535
r 3.523872 4 1 sctp 52 -------S 0 4.0 1.0 1 13 47 65535 65535
+ 3.523872 2 5 sctp 1500 -------D 0 2.0 5.0 1 15 54 0 14
+ 3.523872 2 5 sctp 1500 -------D 0 2.0 5.0 1 16 55 0 15
- 3.523872 2 5 sctp 1500 -------D 0 2.0 5.0 1 15 54 0 14
r 3.54704 1 4 sctp 1500 -------D 0 1.0 4.0 1 24 46 0 23
+ 3.54704 4 1 sctp 52 -------S 0 4.0 1.0 1 13 56 65535 65535
- 3.54704 4 1 sctp 52 -------S 0 4.0 1.0 1 13 56 65535 65535
r 3.547872 4 1 sctp 52 -------S 0 4.0 1.0 1 13 48 65535 65535
+ 3.547872 1 4 sctp 1500 -------D 0 1.0 4.0 1 27 57 0 26
- 3.547872 1 4 sctp 1500 -------D 0 1.0 4.0 1 27 57 0 26
- 3.547872 2 5 sctp 1500 -------D 0 2.0 5.0 1 16 55 0 15
r 3.571872 4 1 sctp 52 -------S 0 4.0 1.0 1 13 49 65535 65535
+ 3.571872 1 4 sctp 1500 -------D 0 1.0 4.0 1 28 58 0 27
- 3.571872 1 4 sctp 1500 -------D 0 1.0 4.0 1 28 58 0 27
r 3.675872 1 4 sctp 1500 -------D 0 1.0 4.0 1 25 50 0 24
+ 3.675872 4 1 sctp 52 -------S 0 4.0 1.0 1 13 59 65535 65535
- 3.675872 4 1 sctp 52 -------S 0 4.0 1.0 1 13 59 65535 65535
r 3.699872 1 4 sctp 1500 -------D 0 1.0 4.0 1 26 51 0 25
+ 3.699872 4 1 sctp 52 -------S 0 4.0 1.0 1 13 60 65535 65535
- 3.699872 4 1 sctp 52 -------S 0 4.0 1.0 1 13 60 65535 65535
r 3.723872 2 5 sctp 1500 -------D 0 2.0 5.0 1 14 52 0 13
+ 3.723872 5 2 sctp 52 -------S 0 5.0 2.0 1 14 61 65535 65535
- 3.723872 5 2 sctp 52 -------S 0 5.0 2.0 1 14 61 65535 65535
r 3.723872 4 1 sctp 52 -------S 0 4.0 1.0 1 13 53 65535 65535
+ 3.723872 1 4 sctp 1500 -------D 0 1.0 4.0 1 29 62 0 28
- 3.723872 1 4 sctp 1500 -------D 0 1.0 4.0 1 29 62 0 28
r 3.747872 2 5 sctp 1500 -------D 0 2.0 5.0 1 15 54 0 14
+ 3.747872 5 2 sctp 52 -------S 0 5.0 2.0 1 15 63 65535 65535
- 3.747872 5 2 sctp 52 -------S 0 5.0 2.0 1 15 63 65535 65535
r 3.747872 4 1 sctp 52 -------S 0 4.0 1.0 1 13 56 65535 65535
+ 3.747872 1 4 sctp 1500 -------D 0 1.0 4.0 1 30 64 0 29
- 3.747872 1 4 sctp 1500 -------D 0 1.0 4.0 1 30 64 0 29
r 3.771872 1 4 sctp 1500 -------D 0 1.0 4.0 1 27 57 0 26
+ 3.771872 4 1 sctp 52 -------S 0 4.0 1.0 1 15 65 65535 65535
- 3.771872 4 1 sctp 52 -------S 0 4.0 1.0 1 15 65 65535 65535
r 3.771872 2 5 sctp 1500 -------D 0 2.0 5.0 1 16 55 0 15
r 3.795872 1 4 sctp 1500 -------D 0 1.0 4.0 1 28 58 0 27
+ 3.795872 4 1 sctp 48 -------S 0 4.0 1.0 1 28 66 65535 65535
- 3.795872 4 1 sctp 48 -------S 0 4.0 1.0 1 28 66 65535 65535
r 3.876704 4 1 sctp 52 -------S 0 4.0 1.0 1 13 59 65535 65535
+ 3.876704 1 4 sctp 1500 -------D 0 1.0 4.0 1 31 67 0 30
- 3.876704 1 4 sctp 1500 -------D 0 1.0 4.0 1 31 67 0 30
r 3.900704 4 1 sctp 52 -------S 0 4.0 1.0 1 13 60 65535 65535
+ 3.900704 1 4 sctp 1500 -------D 0 1.0 4.0 1 32 68 0 31
- 3.900704 1 4 sctp 1500 -------D 0 1.0 4.0 1 32 68 0 31
r 3.924704 5 2 sctp 52 -------S 0 5.0 2.0 1 14 61 65535 65535
r 3.947872 1 4 sctp 1500 -------D 0 1.0 4.0 1 29 62 0 28
r 3.948704 5 2 sctp 52 -------S 0 5.0 2.0 1 15 63 65535 65535
r 3.971872 1 4 sctp 1500 -------D 0 1.0 4.0 1 30 64 0 29
+ 3.971872 4 1 sctp 48 -------S 0 4.0 1.0 1 30 69 65535 65535
- 3.971872 4 1 sctp 48 -------S 0 4.0 1.0 1 30 69 65535 65535
r 3.972704 4 1 sctp 52 -------S 0 4.0 1.0 1 15 65 65535 65535
+ 3.972704 1 4 sctp 1500 -------D 0 1.0 4.0 1 33 70 0 32
- 3.972704 1 4 sctp 1500 -------D 0 1.0 4.0 1 33 70 0 32
r 3.99664 4 1 sctp 48 -------S 0 4.0 1.0 1 28 66 65535 65535
+ 3.99664 1 4 sctp 1500 -------D 0 1.0 4.0 1 34 71 0 33
+ 3.99664 1 4 sctp 1500 -------D 0 1.0 4.0 1 35 72 0 34
- 3.996704 1 4 sctp 1500 -------D 0 1.0 4.0 1 34 71 0 33
- 4.020704 1 4 sctp 1500 -------D 0 1.0 4.0 1 35 72 0 34
r 4.100704 1 4 sctp 1500 -------D 0 1.0 4.0 1 31 67 0 30
r 4.124704 1 4 sctp 1500 -------D 0 1.0 4.0 1 32 68 0 31
+ 4.124704 4 1 sctp 48 -------S 0 4.0 1.0 1 32 73 65535 65535
- 4.124704 4 1 sctp 48 -------S 0 4.0 1.0 1 32 73 65535 65535
r 4.17264 4 1 sctp 48 -------S 0 4.0 1.0 1 30 69 65535 65535
+ 4.17264 1 4 sctp 1500 -------D 0 1.0 4.0 1 36 74 0 35
- 4.17264 1 4 sctp 1500 -------D 0 1.0 4.0 1 36 74 0 35
+ 4.17264 1 4 sctp 1500 -------D 0 1.0 4.0 1 37 75 0 36
- 4.19664 1 4 sctp 1500 -------D 0 1.0 4.0 1 37 75 0 36
r 4.196704 1 4 sctp 1500 -------D 0 1.0 4.0 1 33 70 0 32
r 4.220704 1 4 sctp 1500 -------D 0 1.0 4.0 1 34 71 0 33
+ 4.220704 4 1 sctp 48 -------S 0 4.0 1.0 1 34 76 65535 65535
- 4.220704 4 1 sctp 48 -------S 0 4.0 1.0 1 34 76 65535 65535
r 4.244704 1 4 sctp 1500 -------D 0 1.0 4.0 1 35 72 0 34
r 4.325472 4 1 sctp 48 -------S 0 4.0 1.0 1 32 73 65535 65535
+ 4.325472 1 4 sctp 1500 -------D 0 1.0 4.0 1 38 77 0 37
- 4.325472 1 4 sctp 1500 -------D 0 1.0 4.0 1 38 77 0 37
+ 4.325472 1 4 sctp 1500 -------D 0 1.0 4.0 1 39 78 0 38
- 4.349472 1 4 sctp 1500 -------D 0 1.0 4.0 1 39 78 0 38
r 4.39664 1 4 sctp 1500 -------D 0 1.0 4.0 1 36 74 0 35
+ 4.39664 4 1 sctp 48 -------S 0 4.0 1.0 1 36 79 65535 65535
- 4.39664 4 1 sctp 48 -------S 0 4.0 1.0 1 36 79 65535 65535
r 4.42064 1 4 sctp 1500 -------D 0 1.0 4.0 1 37 75 0 36
r 4.421472 4 1 sctp 48 -------S 0 4.0 1.0 1 34 76 65535 65535
+ 4.421472 1 4 sctp 1500 -------D 0 1.0 4.0 1 40 80 0 39
- 4.421472 1 4 sctp 1500 -------D 0 1.0 4.0 1 40 80 0 39
+ 4.421472 1 4 sctp 1500 -------D 0 1.0 4.0 1 41 81 0 40
- 4.445472 1 4 sctp 1500 -------D 0 1.0 4.0 1 41 81 0 40
r 4.549472 1 4 sctp 1500 -------D 0 1.0 4.0 1 38 77 0 37
+ 4.549472 4 1 sctp 48 -------S 0 4.0 1.0 1 38 82 65535 65535
- 4.549472 4 1 sctp 48 -------S 0 4.0 1.0 1 38 82 65535 65535
r 4.573472 1 4 sctp 1500 -------D 0 1.0 4.0 1 39 78 0 38
r 4.597408 4 1 sctp 48 -------S 0 4.0 1.0 1 36 79 65535 65535
+ 4.597408 1 4 sctp 1500 -------D 0 1.0 4.0 1 42 83 0 41
- 4.597408 1 4 sctp 1500 -------D 0 1.0 4.0 1 42 83 0 41
+ 4.597408 1 4 sctp 1500 -------D 0 1.0 4.0 1 43 84 0 42
+ 4.597408 1 4 sctp 1500 -------D 0 1.0 4.0 1 44 85 0 43
- 4.621408 1 4 sctp 1500 -------D 0 1.0 4.0 1 43 84 0 42
- 4.645408 1 4 sctp 1500 -------D 0 1.0 4.0 1 44 85 0 43
r 4.645472 1 4 sctp 1500 -------D 0 1.0 4.0 1 40 80 0 39
+ 4.645472 4 1 sctp 48 -------S 0 4.0 1.0 1 40 86 65535 65535
- 4.645472 4 1 sctp 48 -------S 0 4.0 1.0 1 40 86 65535 65535
r 4.669472 1 4 sctp 1500 -------D 0 1.0 4.0 1 41 81 0 40
r 4.75024 4 1 sctp 48 -------S 0 4.0 1.0 1 38 82 65535 65535
+ 4.75024 1 4 sctp 1500 -------D 0 1.0 4.0 1 45 87 0 44
- 4.75024 1 4 sctp 1500 -------D 0 1.0 4.0 1 45 87 0 44
+ 4.75024 1 4 sctp 1500 -------D 0 1.0 4.0 1 46 88 0 45
- 4.77424 1 4 sctp 1500 -------D 0 1.0 4.0 1 46 88 0 45
r 4.821408 1 4 sctp 1500 -------D 0 1.0 4.0 1 42 83 0 41
+ 4.821408 4 1 sctp 48 -------S 0 4.0 1.0 1 42 89 65535 65535
- 4.821408 4 1 sctp 48 -------S 0 4.0 1.0 1 42 89 65535 65535
r 4.845408 1 4 sctp 1500 -------D 0 1.0 4.0 1 43 84 0 42
r 4.84624 4 1 sctp 48 -------S 0 4.0 1.0 1 40 86 65535 65535
+ 4.84624 1 4 sctp 1500 -------D 0 1.0 4.0 1 47 90 0 46
- 4.84624 1 4 sctp 1500 -------D 0 1.0 4.0 1 47 90 0 46
+ 4.84624 1 4 sctp 1500 -------D 0 1.0 4.0 1 48 91 0 47
r 4.869408 1 4 sctp 1500 -------D 0 1.0 4.0 1 44 85 0 43
+ 4.869408 4 1 sctp 48 -------S 0 4.0 1.0 1 44 92 65535 65535
- 4.869408 4 1 sctp 48 -------S 0 4.0 1.0 1 44 92 65535 65535
- 4.87024 1 4 sctp 1500 -------D 0 1.0 4.0 1 48 91 0 47
r 4.97424 1 4 sctp 1500 -------D 0 1.0 4.0 1 45 87 0 44
r 4.99824 1 4 sctp 1500 -------D 0 1.0 4.0 1 46 88 0 45
+ 4.99824 4 1 sctp 48 -------S 0 4.0 1.0 1 46 93 65535 65535
- 4.99824 4 1 sctp 48 -------S 0 4.0 1.0 1 46 93 65535 65535
r 5.022176 4 1 sctp 48 -------S 0 4.0 1.0 1 42 89 65535 65535
+ 5.022176 1 4 sctp 1500 -------D 0 1.0 4.0 1 49 94 0 48
- 5.022176 1 4 sctp 1500 -------D 0 1.0 4.0 1 49 94 0 48
+ 5.022176 1 4 sctp 1500 -------D 0 1.0 4.0 1 50 95 0 49
+ 5.022176 1 4 sctp 1500 -------D 0 1.0 4.0 1 51 96 0 50
- 5.046176 1 4 sctp 1500 -------D 0 1.0 4.0 1 50 95 0 49
r 5.070176 4 1 sctp 48 -------S 0 4.0 1.0 1 44 92 65535 65535
+ 5.070176 1 4 sctp 1500 -------D 0 1.0 4.0 1 52 97 0 51
+ 5.070176 1 4 sctp 1500 -------D 0 1.0 4.0 1 53 98 0 52
- 5.070176 1 4 sctp 1500 -------D 0 1.0 4.0 1 51 96 0 50
r 5.07024 1 4 sctp 1500 -------D 0 1.0 4.0 1 47 90 0 46
- 5.094176 1 4 sctp 1500 -------D 0 1.0 4.0 1 52 97 0 51
r 5.09424 1 4 sctp 1500 -------D 0 1.0 4.0 1 48 91 0 47
+ 5.09424 4 1 sctp 48 -------S 0 4.0 1.0 1 48 99 65535 65535
- 5.09424 4 1 sctp 48 -------S 0 4.0 1.0 1 48 99 65535 65535
- 5.118176 1 4 sctp 1500 -------D 0 1.0 4.0 1 53 98 0 52
r 5.199008 4 1 sctp 48 -------S 0 4.0 1.0 1 46 93 65535 65535
+ 5.199008 1 4 sctp 1500 -------D 0 1.0 4.0 1 54 100 0 53
- 5.199008 1 4 sctp 1500 -------D 0 1.0 4.0 1 54 100 0 53
+ 5.199008 1 4 sctp 1500 -------D 0 1.0 4.0 1 55 101 0 54
- 5.223008 1 4 sctp 1500 -------D 0 1.0 4.0 1 55 101 0 54
r 5.246176 1 4 sctp 1500 -------D 0 1.0 4.0 1 49 94 0 48
r 5.270176 1 4 sctp 1500 -------D 0 1.0 4.0 1 50 95 0 49
+ 5.270176 4 1 sctp 48 -------S 0 4.0 1.0 1 50 102 65535 65535
- 5.270176 4 1 sctp 48 -------S 0 4.0 1.0 1 50 102 65535 65535
r 5.294176 1 4 sctp 1500 -------D 0 1.0 4.0 1 51 96 0 50
r 5.295008 4 1 sctp 48 -------S 0 4.0 1.0 1 48 99 65535 65535
+ 5.295008 1 4 sctp 1500 -------D 0 1.0 4.0 1 56 103 0 55
- 5.295008 1 4 sctp 1500 -------D 0 1.0 4.0 1 56 103 0 55
+ 5.295008 1 4 sctp 1500 -------D 0 1.0 4.0 1 57 104 0 56
r 5.318176 1 4 sctp 1500 -------D 0 1.0 4.0 1 52 97 0 51
+ 5.318176 4 1 sctp 48 -------S 0 4.0 1.0 1 52 105 65535 65535
- 5.318176 4 1 sctp 48 -------S 0 4.0 1.0 1 52 105 65535 65535
- 5.319008 1 4 sctp 1500 -------D 0 1.0 4.0 1 57 104 0 56
r 5.342176 1 4 sctp 1500 -------D 0 1.0 4.0 1 53 98 0 52
r 5.423008 1 4 sctp 1500 -------D 0 1.0 4.0 1 54 100 0 53
+ 5.423008 4 1 sctp 48 -------S 0 4.0 1.0 1 54 106 65535 65535
- 5.423008 4 1 sctp 48 -------S 0 4.0 1.0 1 54 106 65535 65535
r 5.447008 1 4 sctp 1500 -------D 0 1.0 4.0 1 55 101 0 54
r 5.470944 4 1 sctp 48 -------S 0 4.0 1.0 1 50 102 65535 65535
+ 5.470944 1 4 sctp 1500 -------D 0 1.0 4.0 1 58 107 0 57
- 5.470944 1 4 sctp 1500 -------D 0 1.0 4.0 1 58 107 0 57
+ 5.470944 1 4 sctp 1500 -------D 0 1.0 4.0 1 59 108 0 58
- 5.494944 1 4 sctp 1500 -------D 0 1.0 4.0 1 59 108 0 58
r 5.518944 4 1 sctp 48 -------S 0 4.0 1.0 1 52 105 65535 65535
+ 5.518944 1 4 sctp 1500 -------D 0 1.0 4.0 1 60 109 0 59
+ 5.518944 1 4 sctp 1500 -------D 0 1.0 4.0 1 61 110 0 60
+ 5.518944 1 4 sctp 1500 -------D 0 1.0 4.0 1 62 111 0 61
- 5.518944 1 4 sctp 1500 -------D 0 1.0 4.0 1 60 109 0 59
r 5.519008 1 4 sctp 1500 -------D 0 1.0 4.0 1 56 103 0 55
+ 5.519008 4 1 sctp 48 -------S 0 4.0 1.0 1 56 112 65535 65535
- 5.519008 4 1 sctp 48 -------S 0 4.0 1.0 1 56 112 65535 65535
- 5.542944 1 4 sctp 1500 -------D 0 1.0 4.0 1 61 110 0 60
r 5.543008 1 4 sctp 1500 -------D 0 1.0 4.0 1 57 104 0 56
- 5.566944 1 4 sctp 1500 -------D 0 1.0 4.0 1 62 111 0 61
r 5.623776 4 1 sctp 48 -------S 0 4.0 1.0 1 54 106 65535 65535
+ 5.623776 1 4 sctp 1500 -------D 0 1.0 4.0 1 63 113 0 62
- 5.623776 1 4 sctp 1500 -------D 0 1.0 4.0 1 63 113 0 62
+ 5.623776 1 4 sctp 1500 -------D 0 1.0 4.0 1 64 114 0 63
- 5.647776 1 4 sctp 1500 -------D 0 1.0 4.0 1 64 114 0 63
r 5.694944 1 4 sctp 1500 -------D 0 1.0 4.0 1 58 107 0 57
+ 5.694944 4 1 sctp 48 -------S 0 4.0 1.0 1 58 115 65535 65535
- 5.694944 4 1 sctp 48 -------S 0 4.0 1.0 1 58 115 65535 65535
r 5.718944 1 4 sctp 1500 -------D 0 1.0 4.0 1 59 108 0 58
r 5.719776 4 1 sctp 48 -------S 0 4.0 1.0 1 56 112 65535 65535
+ 5.719776 1 4 sctp 1500 -------D 0 1.0 4.0 1 65 116 0 64
- 5.719776 1 4 sctp 1500 -------D 0 1.0 4.0 1 65 116 0 64
+ 5.719776 1 4 sctp 1500 -------D 0 1.0 4.0 1 66 117 0 65
r 5.742944 1 4 sctp 1500 -------D 0 1.0 4.0 1 60 109 0 59
+ 5.742944 4 1 sctp 48 -------S 0 4.0 1.0 1 60 118 65535 65535
- 5.742944 4 1 sctp 48 -------S 0 4.0 1.0 1 60 118 65535 65535
- 5.743776 1 4 sctp 1500 -------D 0 1.0 4.0 1 66 117 0 65
r 5.766944 1 4 sctp 1500 -------D 0 1.0 4.0 1 61 110 0 60
r 5.790944 1 4 sctp 1500 -------D 0 1.0 4.0 1 62 111 0 61
+ 5.790944 4 1 sctp 48 -------S 0 4.0 1.0 1 62 119 65535 65535
- 5.790944 4 1 sctp 48 -------S 0 4.0 1.0 1 62 119 65535 65535
r 5.847776 1 4 sctp 1500 -------D 0 1.0 4.0 1 63 113 0 62
r 5.871776 1 4 sctp 1500 -------D 0 1.0 4.0 1 64 114 0 63
+ 5.871776 4 1 sctp 48 -------S 0 4.0 1.0 1 64 120 65535 65535
- 5.871776 4 1 sctp 48 -------S 0 4.0 1.0 1 64 120 65535 65535
r 5.895712 4 1 sctp 48 -------S 0 4.0 1.0 1 58 115 65535 65535
+ 5.895712 1 4 sctp 1500 -------D 0 1.0 4.0 1 67 121 0 66
- 5.895712 1 4 sctp 1500 -------D 0 1.0 4.0 1 67 121 0 66
+ 5.895712 1 4 sctp 1500 -------D 0 1.0 4.0 1 68 122 0 67
- 5.919712 1 4 sctp 1500 -------D 0 1.0 4.0 1 68 122 0 67
r 5.943712 4 1 sctp 48 -------S 0 4.0 1.0 1 60 118 65535 65535
+ 5.943712 1 4 sctp 1500 -------D 0 1.0 4.0 1 69 123 0 68
+ 5.943712 1 4 sctp 1500 -------D 0 1.0 4.0 1 70 124 0 69
+ 5.943712 1 4 sctp 1500 -------D 0 1.0 4.0 1 71 125 0 70
- 5.943712 1 4 sctp 1500 -------D 0 1.0 4.0 1 69 123 0 68
r 5.943776 1 4 sctp 1500 -------D 0 1.0 4.0 1 65 116 0 64
- 5.967712 1 4 sctp 1500 -------D 0 1.0 4.0 1 70 124 0 69
r 5.967776 1 4 sctp 1500 -------D 0 1.0 4.0 1 66 117 0 65
+ 5.967776 4 1 sctp 48 -------S 0 4.0 1.0 1 66 126 65535 65535
- 5.967776 4 1 sctp 48 -------S 0 4.0 1.0 1 66 126 65535 65535
r 5.991712 4 1 sctp 48 -------S 0 4.0 1.0 1 62 119 65535 65535
+ 5.991712 1 4 sctp 1500 -------D 0 1.0 4.0 1 72 127 0 71
+ 5.991712 1 4 sctp 1500 -------D 0 1.0 4.0 1 73 128 0 72
- 5.991712 1 4 sctp 1500 -------D 0 1.0 4.0 1 71 125 0 70
- 6.015712 1 4 sctp 1500 -------D 0 1.0 4.0 1 72 127 0 71
- 6.039712 1 4 sctp 1500 -------D 0 1.0 4.0 1 73 128 0 72
r 6.072544 4 1 sctp 48 -------S 0 4.0 1.0 1 64 120 65535 65535
+ 6.072544 1 4 sctp 1500 -------D 0 1.0 4.0 1 74 129 0 73
- 6.072544 1 4 sctp 1500 -------D 0 1.0 4.0 1 74 129 0 73
+ 6.072544 1 4 sctp 1500 -------D 0 1.0 4.0 1 75 130 0 74
- 6.096544 1 4 sctp 1500 -------D 0 1.0 4.0 1 75 130 0 74
r 6.119712 1 4 sctp 1500 -------D 0 1.0 4.0 1 67 121 0 66
r 6.143712 1 4 sctp 1500 -------D 0 1.0 4.0 1 68 122 0 67
+ 6.143712 4 1 sctp 48 -------S 0 4.0 1.0 1 68 131 65535 65535
- 6.143712 4 1 sctp 48 -------S 0 4.0 1.0 1 68 131 65535 65535
r 6.167712 1 4 sctp 1500 -------D 0 1.0 4.0 1 69 123 0 68
r 6.168544 4 1 sctp 48 -------S 0 4.0 1.0 1 66 126 65535 65535
+ 6.168544 1 4 sctp 1500 -------D 0 1.0 4.0 1 76 132 0 75
- 6.168544 1 4 sctp 1500 -------D 0 1.0 4.0 1 76 132 0 75
+ 6.168544 1 4 sctp 1500 -------D 0 1.0 4.0 1 77 133 0 76
r 6.191712 1 4 sctp 1500 -------D 0 1.0 4.0 1 70 124 0 69
+ 6.191712 4 1 sctp 48 -------S 0 4.0 1.0 1 70 134 65535 65535
- 6.191712 4 1 sctp 48 -------S 0 4.0 1.0 1 70 134 65535 65535
- 6.192544 1 4 sctp 1500 -------D 0 1.0 4.0 1 77 133 0 76
r 6.215712 1 4 sctp 1500 -------D 0 1.0 4.0 1 71 125 0 70
r 6.239712 1 4 sctp 1500 -------D 0 1.0 4.0 1 72 127 0 71
+ 6.239712 4 1 sctp 48 -------S 0 4.0 1.0 1 72 135 65535 65535
- 6.239712 4 1 sctp 48 -------S 0 4.0 1.0 1 72 135 65535 65535
r 6.263712 1 4 sctp 1500 -------D 0 1.0 4.0 1 73 128 0 72
r 6.296544 1 4 sctp 1500 -------D 0 1.0 4.0 1 74 129 0 73
+ 6.296544 4 1 sctp 48 -------S 0 4.0 1.0 1 74 136 65535 65535
- 6.296544 4 1 sctp 48 -------S 0 4.0 1.0 1 74 136 65535 65535
r 6.320544 1 4 sctp 1500 -------D 0 1.0 4.0 1 75 130 0 74
r 6.34448 4 1 sctp 48 -------S 0 4.0 1.0 1 68 131 65535 65535
+ 6.34448 1 4 sctp 1500 -------D 0 1.0 4.0 1 78 137 0 77
- 6.34448 1 4 sctp 1500 -------D 0 1.0 4.0 1 78 137 0 77
+ 6.34448 1 4 sctp 1500 -------D 0 1.0 4.0 1 79 138 0 78
- 6.36848 1 4 sctp 1500 -------D 0 1.0 4.0 1 79 138 0 78
r 6.39248 4 1 sctp 48 -------S 0 4.0 1.0 1 70 134 65535 65535
+ 6.39248 1 4 sctp 1500 -------D 0 1.0 4.0 1 80 139 0 79
+ 6.39248 1 4 sctp 1500 -------D 0 1.0 4.0 1 81 140 0 80
- 6.39248 1 4 sctp 1500 -------D 0 1.0 4.0 1 80 139 0 79
r 6.392544 1 4 sctp 1500 -------D 0 1.0 4.0 1 76 132 0 75
+ 6.392544 4 1 sctp 48 -------S 0 4.0 1.0 1 76 141 65535 65535
- 6.392544 4 1 sctp 48 -------S 0 4.0 1.0 1 76 141 65535 65535
- 6.41648 1 4 sctp 1500 -------D 0 1.0 4.0 1 81 140 0 80
r 6.416544 1 4 sctp 1500 -------D 0 1.0 4.0 1 77 133 0 76
r 6.44048 4 1 sctp 48 -------S 0 4.0 1.0 1 72 135 65535 65535
+ 6.44048 1 4 sctp 1500 -------D 0 1.0 4.0 1 82 142 0 81
+ 6.44048 1 4 sctp 1500 -------D 0 1.0 4.0 1 83 143 0 82
+ 6.44048 1 4 sctp 1500 -------D 0 1.0 4.0 1 84 144 0 83
- 6.44048 1 4 sctp 1500 -------D 0 1.0 4.0 1 82 142 0 81
- 6.46448 1 4 sctp 1500 -------D 0 1.0 4.0 1 83 143 0 82
- 6.48848 1 4 sctp 1500 -------D 0 1.0 4.0 1 84 144 0 83
r 6.497312 4 1 sctp 48 -------S 0 4.0 1.0 1 74 136 65535 65535
+ 6.497312 1 4 sctp 1500 -------D 0 1.0 4.0 1 85 145 0 84
+ 6.497312 1 4 sctp 1500 -------D 0 1.0 4.0 1 86 146 0 85
- 6.51248 1 4 sctp 1500 -------D 0 1.0 4.0 1 85 145 0 84
- 6.53648 1 4 sctp 1500 -------D 0 1.0 4.0 1 86 146 0 85
r 6.56848 1 4 sctp 1500 -------D 0 1.0 4.0 1 78 137 0 77
+ 6.56848 4 1 sctp 48 -------S 0 4.0 1.0 1 78 147 65535 65535
- 6.56848 4 1 sctp 48 -------S 0 4.0 1.0 1 78 147 65535 65535
r 6.59248 1 4 sctp 1500 -------D 0 1.0 4.0 1 79 138 0 78
r 6.593312 4 1 sctp 48 -------S 0 4.0 1.0 1 76 141 65535 65535
+ 6.593312 1 4 sctp 1500 -------D 0 1.0 4.0 1 87 148 0 86
- 6.593312 1 4 sctp 1500 -------D 0 1.0 4.0 1 87 148 0 86
+ 6.593312 1 4 sctp 1500 -------D 0 1.0 4.0 1 88 149 0 87
r 6.61648 1 4 sctp 1500 -------D 0 1.0 4.0 1 80 139 0 79
+ 6.61648 4 1 sctp 48 -------S 0 4.0 1.0 1 80 150 65535 65535
- 6.61648 4 1 sctp 48 -------S 0 4.0 1.0 1 80 150 65535 65535
- 6.617312 1 4 sctp 1500 -------D 0 1.0 4.0 1 88 149 0 87
r 6.64048 1 4 sctp 1500 -------D 0 1.0 4.0 1 81 140 0 80
r 6.66448 1 4 sctp 1500 -------D 0 1.0 4.0 1 82 142 0 81
+ 6.66448 4 1 sctp 48 -------S 0 4.0 1.0 1 82 151 65535 65535
- 6.66448 4 1 sctp 48 -------S 0 4.0 1.0 1 82 151 65535 65535
r 6.68848 1 4 sctp 1500 -------D 0 1.0 4.0 1 83 143 0 82
r 6.71248 1 4 sctp 1500 -------D 0 1.0 4.0 1 84 144 0 83
+ 6.71248 4 1 sctp 48 -------S 0 4.0 1.0 1 84 152 65535 65535
- 6.71248 4 1 sctp 48 -------S 0 4.0 1.0 1 84 152 65535 65535
r 6.73648 1 4 sctp 1500 -------D 0 1.0 4.0 1 85 145 0 84
r 6.76048 1 4 sctp 1500 -------D 0 1.0 4.0 1 86 146 0 85
+ 6.76048 4 1 sctp 48 -------S 0 4.0 1.0 1 86 153 65535 65535
- 6.76048 4 1 sctp 48 -------S 0 4.0 1.0 1 86 153 65535 65535
r 6.769248 4 1 sctp 48 -------S 0 4.0 1.0 1 78 147 65535 65535
+ 6.769248 1 4 sctp 1500 -------D 0 1.0 4.0 1 89 154 0 88
- 6.769248 1 4 sctp 1500 -------D 0 1.0 4.0 1 89 154 0 88
+ 6.769248 1 4 sctp 1500 -------D 0 1.0 4.0 1 90 155 0 89
- 6.793248 1 4 sctp 1500 -------D 0 1.0 4.0 1 90 155 0 89
r 6.817248 4 1 sctp 48 -------S 0 4.0 1.0 1 80 150 65535 65535
+ 6.817248 1 4 sctp 1500 -------D 0 1.0 4.0 1 91 156 0 90
+ 6.817248 1 4 sctp 1500 -------D 0 1.0 4.0 1 92 157 0 91
- 6.817248 1 4 sctp 1500 -------D 0 1.0 4.0 1 91 156 0 90
r 6.817312 1 4 sctp 1500 -------D 0 1.0 4.0 1 87 148 0 86
- 6.841248 1 4 sctp 1500 -------D 0 1.0 4.0 1 92 157 0 91
r 6.841312 1 4 sctp 1500 -------D 0 1.0 4.0 1 88 149 0 87
+ 6.841312 4 1 sctp 48 -------S 0 4.0 1.0 1 88 158 65535 65535
- 6.841312 4 1 sctp 48 -------S 0 4.0 1.0 1 88 158 65535 65535
r 6.865248 4 1 sctp 48 -------S 0 4.0 1.0 1 82 151 65535 65535
+ 6.865248 1 4 sctp 1500 -------D 0 1.0 4.0 1 93 159 0 92
+ 6.865248 1 4 sctp 1500 -------D 0 1.0 4.0 1 94 160 0 93
+ 6.865248 1 4 sctp 1500 -------D 0 1.0 4.0 1 95 161 0 94
- 6.865248 1 4 sctp 1500 -------D 0 1.0 4.0 1 93 159 0 92
- 6.889248 1 4 sctp 1500 -------D 0 1.0 4.0 1 94 160 0 93
r 6.913248 4 1 sctp 48 -------S 0 4.0 1.0 1 84 152 65535 65535
+ 6.913248 1 4 sctp 1500 -------D 0 1.0 4.0 1 96 162 0 95
+ 6.913248 1 4 sctp 1500 -------D 0 1.0 4.0 1 97 163 0 96
- 6.913248 1 4 sctp 1500 -------D 0 1.0 4.0 1 95 161 0 94
- 6.937248 1 4 sctp 1500 -------D 0 1.0 4.0 1 96 162 0 95
r 6.961248 4 1 sctp 48 -------S 0 4.0 1.0 1 86 153 65535 65535
+ 6.961248 1 4 sctp 1500 -------D 0 1.0 4.0 1 98 164 0 97
+ 6.961248 1 4 sctp 1500 -------D 0 1.0 4.0 1 99 165 0 98
- 6.961248 1 4 sctp 1500 -------D 0 1.0 4.0 1 97 163 0 96
- 6.985248 1 4 sctp 1500 -------D 0 1.0 4.0 1 98 164 0 97
r 6.993248 1 4 sctp 1500 -------D 0 1.0 4.0 1 89 154 0 88
- 7.009248 1 4 sctp 1500 -------D 0 1.0 4.0 1 99 165 0 98
r 7.017248 1 4 sctp 1500 -------D 0 1.0 4.0 1 90 155 0 89
+ 7.017248 4 1 sctp 48 -------S 0 4.0 1.0 1 90 166 65535 65535
- 7.017248 4 1 sctp 48 -------S 0 4.0 1.0 1 90 166 65535 65535
r 7.041248 1 4 sctp 1500 -------D 0 1.0 4.0 1 91 156 0 90
r 7.04208 4 1 sctp 48 -------S 0 4.0 1.0 1 88 158 65535 65535
+ 7.04208 1 4 sctp 1500 -------D 0 1.0 4.0 1 100 167 0 99
- 7.04208 1 4 sctp 1500 -------D 0 1.0 4.0 1 100 167 0 99
+ 7.04208 1 4 sctp 1500 -------D 0 1.0 4.0 1 101 168 0 100
r 7.065248 1 4 sctp 1500 -------D 0 1.0 4.0 1 92 157 0 91
+ 7.065248 4 1 sctp 48 -------S 0 4.0 1.0 1 92 169 65535 65535
- 7.065248 4 1 sctp 48 -------S 0 4.0 1.0 1 92 169 65535 65535
- 7.06608 1 4 sctp 1500 -------D 0 1.0 4.0 1 101 168 0 100
r 7.089248 1 4 sctp 1500 -------D 0 1.0 4.0 1 93 159 0 92
r 7.113248 1 4 sctp 1500 -------D 0 1.0 4.0 1 94 160 0 93
+ 7.113248 4 1 sctp 48 -------S 0 4.0 1.0 1 94 170 65535 65535
- 7.113248 4 1 sctp 48 -------S 0 4.0 1.0 1 94 170 65535 65535
r 7.137248 1 4 sctp 1500 -------D 0 1.0 4.0 1 95 161 0 94
r 7.161248 1 4 sctp 1500 -------D 0 1.0 4.0 1 96 162 0 95
+ 7.161248 4 1 sctp 48 -------S 0 4.0 1.0 1 96 171 65535 65535
- 7.161248 4 1 sctp 48 -------S 0 4.0 1.0 1 96 171 65535 65535
r 7.185248 1 4 sctp 1500 -------D 0 1.0 4.0 1 97 163 0 96
r 7.209248 1 4 sctp 1500 -------D 0 1.0 4.0 1 98 164 0 97
+ 7.209248 4 1 sctp 48 -------S 0 4.0 1.0 1 98 172 65535 65535
- 7.209248 4 1 sctp 48 -------S 0 4.0 1.0 1 98 172 65535 65535
r 7.218016 4 1 sctp 48 -------S 0 4.0 1.0 1 90 166 65535 65535
+ 7.218016 1 4 sctp 1500 -------D 0 1.0 4.0 1 102 173 0 101
- 7.218016 1 4 sctp 1500 -------D 0 1.0 4.0 1 102 173 0 101
+ 7.218016 1 4 sctp 1500 -------D 0 1.0 4.0 1 103 174 0 102
r 7.233248 1 4 sctp 1500 -------D 0 1.0 4.0 1 99 165 0 98
- 7.242016 1 4 sctp 1500 -------D 0 1.0 4.0 1 103 174 0 102
r 7.266016 4 1 sctp 48 -------S 0 4.0 1.0 1 92 169 65535 65535
+ 7.266016 1 4 sctp 1500 -------D 0 1.0 4.0 1 104 175 0 103
+ 7.266016 1 4 sctp 1500 -------D 0 1.0 4.0 1 105 176 0 104
- 7.266016 1 4 sctp 1500 -------D 0 1.0 4.0 1 104 175 0 103
r 7.26608 1 4 sctp 1500 -------D 0 1.0 4.0 1 100 167 0 99
+ 7.26608 4 1 sctp 48 -------S 0 4.0 1.0 1 100 177 65535 65535
- 7.26608 4 1 sctp 48 -------S 0 4.0 1.0 1 100 177 65535 65535
- 7.290016 1 4 sctp 1500 -------D 0 1.0 4.0 1 105 176 0 104
r 7.29008 1 4 sctp 1500 -------D 0 1.0 4.0 1 101 168 0 100