+ 50 0 1 sctp 56 -------I 0 0.0 1.0 1 -1 2 65535 65535
- 50 0 1 sctp 56 -------I 0 0.0 1.0 1 -1 2 65535 65535
r 50.200896 0 1 sctp 56 -------I 0 0.0 1.0 1 -1 2 65535 65535
+ 50.200896 1 0 sctp 56 -------I 0 1.0 0.0 1 -1 3 65535 65535
- 50.200896 1 0 sctp 56 -------I 0 1.0 0.0 1 -1 3 65535 65535
r 50.401792 1 0 sctp 56 -------I 0 1.0 0.0 1 -1 3 65535 65535
+ 50.401792 0 1 sctp 36 -------I 0 0.0 1.0 1 -1 4 65535 65535
- 50.401792 0 1 sctp 36 -------I 0 0.0 1.0 1 -1 4 65535 65535
r 50.602368 0 1 sctp 36 -------I 0 0.0 1.0 1 -1 4 65535 65535
+ 50.602368 1 0 sctp 36 -------I 0 1.0 0.0 1 -1 5 65535 65535
- 50.602368 1 0 sctp 36 -------I 0 1.0 0.0 1 -1 5 65535 65535
r 50.802944 1 0 sctp 36 -------I 0 1.0 0.0 1 -1 5 65535 65535
+ 50.802944 0 1 sctp 56 -------H 0 0.0 1.0 1 -1 6 65535 65535
- 50.802944 0 1 sctp 56 -------H 0 0.0 1.0 1 -1 6 65535 65535
r 51.00384 0 1 sctp 56 -------H 0 0.0 1.0 1 -1 6 65535 65535
+ 51.00384 1 0 sctp 56 -------B 0 1.0 0.0 1 -1 7 65535 65535
- 51.00384 1 0 sctp 56 -------B 0 1.0 0.0 1 -1 7 65535 65535
r 51.204736 1 0 sctp 56 -------B 0 1.0 0.0 1 -1 7 65535 65535
+ 51.204736 0 1 sctp 1500 -------D 0 0.0 1.0 1 1 8 0 0
- 51.204736 0 1 sctp 1500 -------D 0 0.0 1.0 1 1 8 0 0
+ 51.204736 0 1 sctp 1500 -------D 0 0.0 1.0 1 2 9 0 1
+ 51.204736 0 1 sctp 1500 -------D 0 0.0 1.0 1 3 10 0 2
- 51.228736 0 1 sctp 1500 -------D 0 0.0 1.0 1 2 9 0 1
- 51.252736 0 1 sctp 1500 -------D 0 0.0 1.0 1 3 10 0 2
r 51.428736 0 1 sctp 1500 -------D 0 0.0 1.0 1 1 8 0 0
+ 51.428736 1 0 sctp 48 -------S 0 1.0 0.0 1 1 11 65535 65535
- 51.428736 1 0 sctp 48 -------S 0 1.0 0.0 1 1 11 65535 65535
r 51.452736 0 1 sctp 1500 -------D 0 0.0 1.0 1 2 9 0 1
+ 51.452736 1 0 sctp 48 -------S 0 1.0 0.0 1 2 12 65535 65535
- 51.452736 1 0 sctp 48 -------S 0 1.0 0.0 1 2 12 65535 65535
r 51.476736 0 1 sctp 1500 -------D 0 0.0 1.0 1 3 10 0 2
+ 51.476736 1 0 sctp 48 -------S 0 1.0 0.0 1 3 13 65535 65535
- 51.476736 1 0 sctp 48 -------S 0 1.0 0.0 1 3 13 65535 65535
r 51.629504 1 0 sctp 48 -------S 0 1.0 0.0 1 1 11 65535 65535
+ 51.629504 0 1 sctp 1500 -------D 0 0.0 1.0 1 4 14 0 3
- 51.629504 0 1 sctp 1500 -------D 0 0.0 1.0 1 4 14 0 3
+ 51.629504 0 1 sctp 1500 -------D 0 0.0 1.0 1 5 15 0 4
r 51.653504 1 0 sctp 48 -------S 0 1.0 0.0 1 2 12 65535 65535
+ 51.653504 0 1 sctp 1500 -------D 0 0.0 1.0 1 6 16 0 5
+ 51.653504 0 1 sctp 1500 -------D 0 0.0 1.0 1 7 17 0 6
- 51.653504 0 1 sctp 1500 -------D 0 0.0 1.0 1 5 15 0 4
r 51.677504 1 0 sctp 48 -------S 0 1.0 0.0 1 3 13 65535 65535
+ 51.677504 0 1 sctp 1500 -------D 0 0.0 1.0 1 8 18 0 7
+ 51.677504 0 1 sctp 1500 -------D 0 0.0 1.0 1 9 19 0 8
- 51.677504 0 1 sctp 1500 -------D 0 0.0 1.0 1 6 16 0 5
- 51.701504 0 1 sctp 1500 -------D 0 0.0 1.0 1 7 17 0 6
- 51.725504 0 1 sctp 1500 -------D 0 0.0 1.0 1 8 18 0 7
- 51.749504 0 1 sctp 1500 -------D 0 0.0 1.0 1 9 19 0 8
r 51.853504 0 1 sctp 1500 -------D 0 0.0 1.0 1 4 14 0 3
+ 51.853504 1 0 sctp 48 -------S 0 1.0 0.0 1 4 20 65535 65535
- 51.853504 1 0 sctp 48 -------S 0 1.0 0.0 1 4 20 65535 65535
r 51.877504 0 1 sctp 1500 -------D 0 0.0 1.0 1 5 15 0 4
+ 51.877504 1 0 sctp 48 -------S 0 1.0 0.0 1 5 21 65535 65535
- 51.877504 1 0 sctp 48 -------S 0 1.0 0.0 1 5 21 65535 65535
r 51.901504 0 1 sctp 1500 -------D 0 0.0 1.0 1 6 16 0 5
+ 51.901504 1 0 sctp 48 -------S 0 1.0 0.0 1 6 22 65535 65535
- 51.901504 1 0 sctp 48 -------S 0 1.0 0.0 1 6 22 65535 65535
r 51.925504 0 1 sctp 1500 -------D 0 0.0 1.0 1 7 17 0 6
+ 51.925504 1 0 sctp 48 -------S 0 1.0 0.0 1 7 23 65535 65535
- 51.925504 1 0 sctp 48 -------S 0 1.0 0.0 1 7 23 65535 65535
r 51.949504 0 1 sctp 1500 -------D 0 0.0 1.0 1 8 18 0 7
+ 51.949504 1 0 sctp 48 -------S 0 1.0 0.0 1 8 24 65535 65535
- 51.949504 1 0 sctp 48 -------S 0 1.0 0.0 1 8 24 65535 65535
r 51.973504 0 1 sctp 1500 -------D 0 0.0 1.0 1 9 19 0 8
+ 51.973504 1 0 sctp 48 -------S 0 1.0 0.0 1 9 25 65535 65535
- 51.973504 1 0 sctp 48 -------S 0 1.0 0.0 1 9 25 65535 65535
r 52.054272 1 0 sctp 48 -------S 0 1.0 0.0 1 4 20 65535 65535
+ 52.054272 0 1 sctp 1500 -------D 0 0.0 1.0 1 10 26 0 9
- 52.054272 0 1 sctp 1500 -------D 0 0.0 1.0 1 10 26 0 9
+ 52.054272 0 1 sctp 1500 -------D 0 0.0 1.0 1 11 27 0 10
r 52.078272 1 0 sctp 48 -------S 0 1.0 0.0 1 5 21 65535 65535
+ 52.078272 0 1 sctp 1500 -------D 0 0.0 1.0 1 12 28 0 11
+ 52.078272 0 1 sctp 1500 -------D 0 0.0 1.0 1 13 29 0 12
- 52.078272 0 1 sctp 1500 -------D 0 0.0 1.0 1 11 27 0 10
r 52.102272 1 0 sctp 48 -------S 0 1.0 0.0 1 6 22 65535 65535
+ 52.102272 0 1 sctp 1500 -------D 0 0.0 1.0 1 14 30 0 13
+ 52.102272 0 1 sctp 1500 -------D 0 0.0 1.0 1 15 31 0 14
- 52.102272 0 1 sctp 1500 -------D 0 0.0 1.0 1 12 28 0 11
r 52.126272 1 0 sctp 48 -------S 0 1.0 0.0 1 7 23 65535 65535
+ 52.126272 0 1 sctp 1500 -------D 0 0.0 1.0 1 16 32 0 15
+ 52.126272 0 1 sctp 1500 -------D 0 0.0 1.0 1 17 33 0 16
- 52.126272 0 1 sctp 1500 -------D 0 0.0 1.0 1 13 29 0 12
r 52.150272 1 0 sctp 48 -------S 0 1.0 0.0 1 8 24 65535 65535
+ 52.150272 0 1 sctp 1500 -------D 0 0.0 1.0 1 18 34 0 17
+ 52.150272 0 1 sctp 1500 -------D 0 0.0 1.0 1 19 35 0 18
- 52.150272 0 1 sctp 1500 -------D 0 0.0 1.0 1 14 30 0 13
r 52.174272 1 0 sctp 48 -------S 0 1.0 0.0 1 9 25 65535 65535
+ 52.174272 0 1 sctp 1500 -------D 0 0.0 1.0 1 20 36 0 19
+ 52.174272 0 1 sctp 1500 -------D 0 0.0 1.0 1 21 37 0 20
- 52.174272 0 1 sctp 1500 -------D 0 0.0 1.0 1 15 31 0 14
- 52.198272 0 1 sctp 1500 -------D 0 0.0 1.0 1 16 32 0 15
- 52.222272 0 1 sctp 1500 -------D 0 0.0 1.0 1 17 33 0 16
- 52.246272 0 1 sctp 1500 -------D 0 0.0 1.0 1 18 34 0 17
- 52.270272 0 1 sctp 1500 -------D 0 0.0 1.0 1 19 35 0 18
r 52.278272 0 1 sctp 1500 -------D 0 0.0 1.0 1 10 26 0 9
+ 52.278272 1 0 sctp 48 -------S 0 1.0 0.0 1 10 38 65535 65535
- 52.278272 1 0 sctp 48 -------S 0 1.0 0.0 1 10 38 65535 65535
- 52.294272 0 1 sctp 1500 -------D 0 0.0 1.0 1 20 36 0 19
r 52.302272 0 1 sctp 1500 -------D 0 0.0 1.0 1 11 27 0 10
+ 52.302272 1 0 sctp 48 -------S 0 1.0 0.0 1 11 39 65535 65535
- 52.302272 1 0 sctp 48 -------S 0 1.0 0.0 1 11 39 65535 65535
- 52.318272 0 1 sctp 1500 -------D 0 0.0 1.0 1 21 37 0 20
r 52.326272 0 1 sctp 1500 -------D 0 0.0 1.0 1 12 28 0 11
+ 52.326272 1 0 sctp 48 -------S 0 1.0 0.0 1 12 40 65535 65535
- 52.326272 1 0 sctp 48 -------S 0 1.0 0.0 1 12 40 65535 65535
r 52.350272 0 1 sctp 1500 -------D 0 0.0 1.0 1 13 29 0 12
+ 52.350272 1 0 sctp 48 -------S 0 1.0 0.0 1 13 41 65535 65535
- 52.350272 1 0 sctp 48 -------S 0 1.0 0.0 1 13 41 65535 65535
r 52.374272 0 1 sctp 1500 -------D 0 0.0 1.0 1 14 30 0 13
+ 52.374272 1 0 sctp 48 -------S 0 1.0 0.0 1 14 42 65535 65535
- 52.374272 1 0 sctp 48 -------S 0 1.0 0.0 1 14 42 65535 65535
r 52.398272 0 1 sctp 1500 -------D 0 0.0 1.0 1 15 31 0 14
+ 52.398272 1 0 sctp 48 -------S 0 1.0 0.0 1 15 43 65535 65535
- 52.398272 1 0 sctp 48 -------S 0 1.0 0.0 1 15 43 65535 65535
r 52.422272 0 1 sctp 1500 -------D 0 0.0 1.0 1 16 32 0 15
+ 52.422272 1 0 sctp 48 -------S 0 1.0 0.0 1 16 44 65535 65535
- 52.422272 1 0 sctp 48 -------S 0 1.0 0.0 1 16 44 65535 65535
r 52.446272 0 1 sctp 1500 -------D 0 0.0 1.0 1 17 33 0 16
+ 52.446272 1 0 sctp 48 -------S 0 1.0 0.0 1 17 45 65535 65535
- 52.446272 1 0 sctp 48 -------S 0 1.0 0.0 1 17 45 65535 65535
r 52.470272 0 1 sctp 1500 -------D 0 0.0 1.0 1 18 34 0 17
+ 52.470272 1 0 sctp 48 -------S 0 1.0 0.0 1 18 46 65535 65535
- 52.470272 1 0 sctp 48 -------S 0 1.0 0.0 1 18 46 65535 65535
r 52.47904 1 0 sctp 48 -------S 0 1.0 0.0 1 10 38 65535 65535
+ 52.47904 0 1 sctp 1500 -------D 0 0.0 1.0 1 22 47 0 21
- 52.47904 0 1 sctp 1500 -------D 0 0.0 1.0 1 22 47 0 21
+ 52.47904 0 1 sctp 1500 -------D 0 0.0 1.0 1 23 48 0 22
r 52.494272 0 1 sctp 1500 -------D 0 0.0 1.0 1 19 35 0 18
+ 52.494272 1 0 sctp 48 -------S 0 1.0 0.0 1 19 49 65535 65535
- 52.494272 1 0 sctp 48 -------S 0 1.0 0.0 1 19 49 65535 65535
r 52.50304 1 0 sctp 48 -------S 0 1.0 0.0 1 11 39 65535 65535
+ 52.50304 0 1 sctp 1500 -------D 0 0.0 1.0 1 24 50 0 23
+ 52.50304 0 1 sctp 1500 -------D 0 0.0 1.0 1 25 51 0 24
- 52.50304 0 1 sctp 1500 -------D 0 0.0 1.0 1 23 48 0 22
r 52.518272 0 1 sctp 1500 -------D 0 0.0 1.0 1 20 36 0 19
+ 52.518272 1 0 sctp 48 -------S 0 1.0 0.0 1 20 52 65535 65535
- 52.518272 1 0 sctp 48 -------S 0 1.0 0.0 1 20 52 65535 65535
r 52.52704 1 0 sctp 48 -------S 0 1.0 0.0 1 12 40 65535 65535
+ 52.52704 0 1 sctp 1500 -------D 0 0.0 1.0 1 26 53 0 25
+ 52.52704 0 1 sctp 1500 -------D 0 0.0 1.0 1 27 54 0 26
- 52.52704 0 1 sctp 1500 -------D 0 0.0 1.0 1 24 50 0 23
r 52.542272 0 1 sctp 1500 -------D 0 0.0 1.0 1 21 37 0 20
+ 52.542272 1 0 sctp 48 -------S 0 1.0 0.0 1 21 55 65535 65535
- 52.542272 1 0 sctp 48 -------S 0 1.0 0.0 1 21 55 65535 65535
r 52.55104 1 0 sctp 48 -------S 0 1.0 0.0 1 13 41 65535 65535
+ 52.55104 0 1 sctp 1500 -------D 0 0.0 1.0 1 28 56 0 27
+ 52.55104 0 1 sctp 1500 -------D 0 0.0 1.0 1 29 57 0 28
- 52.55104 0 1 sctp 1500 -------D 0 0.0 1.0 1 25 51 0 24
r 52.57504 1 0 sctp 48 -------S 0 1.0 0.0 1 14 42 65535 65535
+ 52.57504 0 1 sctp 1500 -------D 0 0.0 1.0 1 30 58 0 29
+ 52.57504 0 1 sctp 1500 -------D 0 0.0 1.0 1 31 59 0 30
- 52.57504 0 1 sctp 1500 -------D 0 0.0 1.0 1 26 53 0 25
r 52.59904 1 0 sctp 48 -------S 0 1.0 0.0 1 15 43 65535 65535
+ 52.59904 0 1 sctp 1500 -------D 0 0.0 1.0 1 32 60 0 31
+ 52.59904 0 1 sctp 1500 -------D 0 0.0 1.0 1 33 61 0 32
- 52.59904 0 1 sctp 1500 -------D 0 0.0 1.0 1 27 54 0 26
r 52.62304 1 0 sctp 48 -------S 0 1.0 0.0 1 16 44 65535 65535
+ 52.62304 0 1 sctp 1500 -------D 0 0.0 1.0 1 34 62 0 33
+ 52.62304 0 1 sctp 1500 -------D 0 0.0 1.0 1 35 63 0 34
- 52.62304 0 1 sctp 1500 -------D 0 0.0 1.0 1 28 56 0 27
r 52.64704 1 0 sctp 48 -------S 0 1.0 0.0 1 17 45 65535 65535
+ 52.64704 0 1 sctp 1500 -------D 0 0.0 1.0 1 36 64 0 35
+ 52.64704 0 1 sctp 1500 -------D 0 0.0 1.0 1 37 65 0 36
- 52.64704 0 1 sctp 1500 -------D 0 0.0 1.0 1 29 57 0 28
r 52.67104 1 0 sctp 48 -------S 0 1.0 0.0 1 18 46 65535 65535
+ 52.67104 0 1 sctp 1500 -------D 0 0.0 1.0 1 38 66 0 37
+ 52.67104 0 1 sctp 1500 -------D 0 0.0 1.0 1 39 67 0 38
- 52.67104 0 1 sctp 1500 -------D 0 0.0 1.0 1 30 58 0 29
r 52.69504 1 0 sctp 48 -------S 0 1.0 0.0 1 19 49 65535 65535
+ 52.69504 0 1 sctp 1500 -------D 0 0.0 1.0 1 40 68 0 39
+ 52.69504 0 1 sctp 1500 -------D 0 0.0 1.0 1 41 69 0 40
- 52.69504 0 1 sctp 1500 -------D 0 0.0 1.0 1 31 59 0 30
r 52.70304 0 1 sctp 1500 -------D 0 0.0 1.0 1 22 47 0 21
+ 52.70304 1 0 sctp 48 -------S 0 1.0 0.0 1 22 70 65535 65535
- 52.70304 1 0 sctp 48 -------S 0 1.0 0.0 1 22 70 65535 65535
r 52.71904 1 0 sctp 48 -------S 0 1.0 0.0 1 20 52 65535 65535
+ 52.71904 0 1 sctp 1500 -------D 0 0.0 1.0 1 42 71 0 41
+ 52.71904 0 1 sctp 1500 -------D 0 0.0 1.0 1 43 72 0 42
- 52.71904 0 1 sctp 1500 -------D 0 0.0 1.0 1 32 60 0 31
r 52.72704 0 1 sctp 1500 -------D 0 0.0 1.0 1 23 48 0 22
+ 52.72704 1 0 sctp 48 -------S 0 1.0 0.0 1 23 73 65535 65535
- 52.72704 1 0 sctp 48 -------S 0 1.0 0.0 1 23 73 65535 65535
r 52.74304 1 0 sctp 48 -------S 0 1.0 0.0 1 21 55 65535 65535
+ 52.74304 0 1 sctp 1500 -------D 0 0.0 1.0 1 44 74 0 43
+ 52.74304 0 1 sctp 1500 -------D 0 0.0 1.0 1 45 75 0 44
- 52.74304 0 1 sctp 1500 -------D 0 0.0 1.0 1 33 61 0 32
r 52.75104 0 1 sctp 1500 -------D 0 0.0 1.0 1 24 50 0 23
+ 52.75104 1 0 sctp 48 -------S 0 1.0 0.0 1 24 76 65535 65535
- 52.75104 1 0 sctp 48 -------S 0 1.0 0.0 1 24 76 65535 65535
- 52.76704 0 1 sctp 1500 -------D 0 0.0 1.0 1 34 62 0 33
r 52.77504 0 1 sctp 1500 -------D 0 0.0 1.0 1 25 51 0 24
+ 52.77504 1 0 sctp 48 -------S 0 1.0 0.0 1 25 77 65535 65535
- 52.77504 1 0 sctp 48 -------S 0 1.0 0.0 1 25 77 65535 65535
- 52.79104 0 1 sctp 1500 -------D 0 0.0 1.0 1 35 63 0 34
r 52.79904 0 1 sctp 1500 -------D 0 0.0 1.0 1 26 53 0 25
+ 52.79904 1 0 sctp 48 -------S 0 1.0 0.0 1 26 78 65535 65535
- 52.79904 1 0 sctp 48 -------S 0 1.0 0.0 1 26 78 65535 65535
- 52.81504 0 1 sctp 1500 -------D 0 0.0 1.0 1 36 64 0 35
r 52.82304 0 1 sctp 1500 -------D 0 0.0 1.0 1 27 54 0 26
+ 52.82304 1 0 sctp 48 -------S 0 1.0 0.0 1 27 79 65535 65535
- 52.82304 1 0 sctp 48 -------S 0 1.0 0.0 1 27 79 65535 65535
- 52.83904 0 1 sctp 1500 -------D 0 0.0 1.0 1 37 65 0 36
r 52.84704 0 1 sctp 1500 -------D 0 0.0 1.0 1 28 56 0 27
+ 52.84704 1 0 sctp 48 -------S 0 1.0 0.0 1 28 80 65535 65535
- 52.84704 1 0 sctp 48 -------S 0 1.0 0.0 1 28 80 65535 65535
- 52.86304 0 1 sctp 1500 -------D 0 0.0 1.0 1 38 66 0 37
r 52.87104 0 1 sctp 1500 -------D 0 0.0 1.0 1 29 57 0 28
+ 52.87104 1 0 sctp 48 -------S 0 1.0 0.0 1 29 81 65535 65535
- 52.87104 1 0 sctp 48 -------S 0 1.0 0.0 1 29 81 65535 65535
- 52.88704 0 1 sctp 1500 -------D 0 0.0 1.0 1 39 67 0 38
r 52.89504 0 1 sctp 1500 -------D 0 0.0 1.0 1 30 58 0 29
+ 52.89504 1 0 sctp 48 -------S 0 1.0 0.0 1 30 82 65535 65535
- 52.89504 1 0 sctp 48 -------S 0 1.0 0.0 1 30 82 65535 65535
r 52.903808 1 0 sctp 48 -------S 0 1.0 0.0 1 22 70 65535 65535
+ 52.903808 0 1 sctp 1500 -------D 0 0.0 1.0 1 46 83 0 45
+ 52.903808 0 1 sctp 1500 -------D 0 0.0 1.0 1 47 84 0 46
- 52.91104 0 1 sctp 1500 -------D 0 0.0 1.0 1 40 68 0 39
r 52.91904 0 1 sctp 1500 -------D 0 0.0 1.0 1 31 59 0 30
+ 52.91904 1 0 sctp 48 -------S 0 1.0 0.0 1 31 85 65535 65535
- 52.91904 1 0 sctp 48 -------S 0 1.0 0.0 1 31 85 65535 65535
r 52.927808 1 0 sctp 48 -------S 0 1.0 0.0 1 23 73 65535 65535
+ 52.927808 0 1 sctp 1500 -------D 0 0.0 1.0 1 48 86 0 47
+ 52.927808 0 1 sctp 1500 -------D 0 0.0 1.0 1 49 87 0 48
- 52.93504 0 1 sctp 1500 -------D 0 0.0 1.0 1 41 69 0 40
r 52.94304 0 1 sctp 1500 -------D 0 0.0 1.0 1 32 60 0 31
+ 52.94304 1 0 sctp 48 -------S 0 1.0 0.0 1 32 88 65535 65535
- 52.94304 1 0 sctp 48 -------S 0 1.0 0.0 1 32 88 65535 65535
r 52.951808 1 0 sctp 48 -------S 0 1.0 0.0 1 24 76 65535 65535
+ 52.951808 0 1 sctp 1500 -------D 0 0.0 1.0 1 50 89 0 49
+ 52.951808 0 1 sctp 1500 -------D 0 0.0 1.0 1 51 90 0 50
- 52.95904 0 1 sctp 1500 -------D 0 0.0 1.0 1 42 71 0 41
r 52.96704 0 1 sctp 1500 -------D 0 0.0 1.0 1 33 61 0 32
+ 52.96704 1 0 sctp 48 -------S 0 1.0 0.0 1 33 91 65535 65535
- 52.96704 1 0 sctp 48 -------S 0 1.0 0.0 1 33 91 65535 65535
r 52.975808 1 0 sctp 48 -------S 0 1.0 0.0 1 25 77 65535 65535
+ 52.975808 0 1 sctp 1500 -------D 0 0.0 1.0 1 52 92 0 51
+ 52.975808 0 1 sctp 1500 -------D 0 0.0 1.0 1 53 93 0 52
- 52.98304 0 1 sctp 1500 -------D 0 0.0 1.0 1 43 72 0 42
r 52.99104 0 1 sctp 1500 -------D 0 0.0 1.0 1 34 62 0 33
+ 52.99104 1 0 sctp 48 -------S 0 1.0 0.0 1 34 94 65535 65535
- 52.99104 1 0 sctp 48 -------S 0 1.0 0.0 1 34 94 65535 65535
r 52.999808 1 0 sctp 48 -------S 0 1.0 0.0 1 26 78 65535 65535
+ 52.999808 0 1 sctp 1500 -------D 0 0.0 1.0 1 54 95 0 53
+ 52.999808 0 1 sctp 1500 -------D 0 0.0 1.0 1 55 96 0 54
- 53.00704 0 1 sctp 1500 -------D 0 0.0 1.0 1 44 74 0 43
r 53.01504 0 1 sctp 1500 -------D 0 0.0 1.0 1 35 63 0 34
+ 53.01504 1 0 sctp 48 -------S 0 1.0 0.0 1 35 97 65535 65535
- 53.01504 1 0 sctp 48 -------S 0 1.0 0.0 1 35 97 65535 65535
r 53.023808 1 0 sctp 48 -------S 0 1.0 0.0 1 27 79 65535 65535
+ 53.023808 0 1 sctp 1500 -------D 0 0.0 1.0 1 56 98 0 55
+ 53.023808 0 1 sctp 1500 -------D 0 0.0 1.0 1 57 99 0 56
- 53.03104 0 1 sctp 1500 -------D 0 0.0 1.0 1 45 75 0 44
r 53.03904 0 1 sctp 1500 -------D 0 0.0 1.0 1 36 64 0 35
+ 53.03904 1 0 sctp 48 -------S 0 1.0 0.0 1 36 100 65535 65535
- 53.03904 1 0 sctp 48 -------S 0 1.0 0.0 1 36 100 65535 65535
r 53.047808 1 0 sctp 48 -------S 0 1.0 0.0 1 28 80 65535 65535
+ 53.047808 0 1 sctp 1500 -------D 0 0.0 1.0 1 58 101 0 57
+ 53.047808 0 1 sctp 1500 -------D 0 0.0 1.0 1 59 102 0 58
- 53.05504 0 1 sctp 1500 -------D 0 0.0 1.0 1 46 83 0 45
r 53.06304 0 1 sctp 1500 -------D 0 0.0 1.0 1 37 65 0 36
+ 53.06304 1 0 sctp 48 -------S 0 1.0 0.0 1 37 103 65535 65535
- 53.06304 1 0 sctp 48 -------S 0 1.0 0.0 1 37 103 65535 65535
r 53.071808 1 0 sctp 48 -------S 0 1.0 0.0 1 29 81 65535 65535
+ 53.071808 0 1 sctp 1500 -------D 0 0.0 1.0 1 60 104 0 59
+ 53.071808 0 1 sctp 1500 -------D 0 0.0 1.0 1 61 105 0 60
- 53.07904 0 1 sctp 1500 -------D 0 0.0 1.0 1 47 84 0 46
r 53.08704 0 1 sctp 1500 -------D 0 0.0 1.0 1 38 66 0 37
+ 53.08704 1 0 sctp 48 -------S 0 1.0 0.0 1 38 106 65535 65535
- 53.08704 1 0 sctp 48 -------S 0 1.0 0.0 1 38 106 65535 65535
r 53.095808 1 0 sctp 48 -------S 0 1.0 0.0 1 30 82 65535 65535
+ 53.095808 0 1 sctp 1500 -------D 0 0.0 1.0 1 62 107 0 61
+ 53.095808 0 1 sctp 1500 -------D 0 0.0 1.0 1 63 108 0 62
- 53.10304 0 1 sctp 1500 -------D 0 0.0 1.0 1 48 86 0 47
r 53.11104 0 1 sctp 1500 -------D 0 0.0 1.0 1 39 67 0 38
+ 53.11104 1 0 sctp 48 -------S 0 1.0 0.0 1 39 109 65535 65535
- 53.11104 1 0 sctp 48 -------S 0 1.0 0.0 1 39 109 65535 65535
r 53.119808 1 0 sctp 48 -------S 0 1.0 0.0 1 31 85 65535 65535
+ 53.119808 0 1 sctp 1500 -------D 0 0.0 1.0 1 64 110 0 63
+ 53.119808 0 1 sctp 1500 -------D 0 0.0 1.0 1 65 111 0 64
- 53.12704 0 1 sctp 1500 -------D 0 0.0 1.0 1 49 87 0 48
r 53.13504 0 1 sctp 1500 -------D 0 0.0 1.0 1 40 68 0 39
+ 53.13504 1 0 sctp 48 -------S 0 1.0 0.0 1 40 112 65535 65535
- 53.13504 1 0 sctp 48 -------S 0 1.0 0.0 1 40 112 65535 65535
r 53.143808 1 0 sctp 48 -------S 0 1.0 0.0 1 32 88 65535 65535
+ 53.143808 0 1 sctp 1500 -------D 0 0.0 1.0 1 66 113 0 65
+ 53.143808 0 1 sctp 1500 -------D 0 0.0 1.0 1 67 114 0 66
- 53.15104 0 1 sctp 1500 -------D 0 0.0 1.0 1 50 89 0 49
r 53.15904 0 1 sctp 1500 -------D 0 0.0 1.0 1 41 69 0 40
+ 53.15904 1 0 sctp 48 -------S 0 1.0 0.0 1 41 115 65535 65535
- 53.15904 1 0 sctp 48 -------S 0 1.0 0.0 1 41 115 65535 65535
r 53.167808 1 0 sctp 48 -------S 0 1.0 0.0 1 33 91 65535 65535
+ 53.167808 0 1 sctp 1500 -------D 0 0.0 1.0 1 68 116 0 67
+ 53.167808 0 1 sctp 1500 -------D 0 0.0 1.0 1 69 117 0 68
- 53.17504 0 1 sctp 1500 -------D 0 0.0 1.0 1 51 90 0 50
r 53.18304 0 1 sctp 1500 -------D 0 0.0 1.0 1 42 71 0 41
+ 53.18304 1 0 sctp 48 -------S 0 1.0 0.0 1 42 118 65535 65535
- 53.18304 1 0 sctp 48 -------S 0 1.0 0.0 1 42 118 65535 65535
r 53.191808 1 0 sctp 48 -------S 0 1.0 0.0 1 34 94 65535 65535
+ 53.191808 0 1 sctp 1500 -------D 0 0.0 1.0 1 70 119 0 69
+ 53.191808 0 1 sctp 1500 -------D 0 0.0 1.0 1 71 120 0 70
- 53.19904 0 1 sctp 1500 -------D 0 0.0 1.0 1 52 92 0 51
r 53.20704 0 1 sctp 1500 -------D 0 0.0 1.0 1 43 72 0 42
+ 53.20704 1 0 sctp 48 -------S 0 1.0 0.0 1 43 121 65535 65535
- 53.20704 1 0 sctp 48 -------S 0 1.0 0.0 1 43 121 65535 65535
r 53.215808 1 0 sctp 48 -------S 0 1.0 0.0 1 35 97 65535 65535
+ 53.215808 0 1 sctp 1500 -------D 0 0.0 1.0 1 72 122 0 71
+ 53.215808 0 1 sctp 1500 -------D 0 0.0 1.0 1 73 123 0 72
- 53.22304 0 1 sctp 1500 -------D 0 0.0 1.0 1 53 93 0 52
r 53.23104 0 1 sctp 1500 -------D 0 0.0 1.0 1 44 74 0 43
+ 53.23104 1 0 sctp 48 -------S 0 1.0 0.0 1 44 124 65535 65535
- 53.23104 1 0 sctp 48 -------S 0 1.0 0.0 1 44 124 65535 65535
r 53.239808 1 0 sctp 48 -------S 0 1.0 0.0 1 36 100 65535 65535
+ 53.239808 0 1 sctp 1500 -------D 0 0.0 1.0 1 74 125 0 73
+ 53.239808 0 1 sctp 1500 -------D 0 0.0 1.0 1 75 126 0 74
- 53.24704 0 1 sctp 1500 -------D 0 0.0 1.0 1 54 95 0 53
r 53.25504 0 1 sctp 1500 -------D 0 0.0 1.0 1 45 75 0 44
+ 53.25504 1 0 sctp 48 -------S 0 1.0 0.0 1 45 127 65535 65535
- 53.25504 1 0 sctp 48 -------S 0 1.0 0.0 1 45 127 65535 65535
r 53.263808 1 0 sctp 48 -------S 0 1.0 0.0 1 37 103 65535 65535
+ 53.263808 0 1 sctp 1500 -------D 0 0.0 1.0 1 76 128 0 75
+ 53.263808 0 1 sctp 1500 -------D 0 0.0 1.0 1 77 129 0 76
- 53.27104 0 1 sctp 1500 -------D 0 0.0 1.0 1 55 96 0 54
r 53.27904 0 1 sctp 1500 -------D 0 0.0 1.0 1 46 83 0 45
+ 53.27904 1 0 sctp 48 -------S 0 1.0 0.0 1 46 130 65535 65535
- 53.27904 1 0 sctp 48 -------S 0 1.0 0.0 1 46 130 65535 65535
r 53.287808 1 0 sctp 48 -------S 0 1.0 0.0 1 38 106 65535 65535
+ 53.287808 0 1 sctp 1500 -------D 0 0.0 1.0 1 78 131 0 77
+ 53.287808 0 1 sctp 1500 -------D 0 0.0 1.0 1 79 132 0 78
- 53.29504 0 1 sctp 1500 -------D 0 0.0 1.0 1 56 98 0 55
r 53.30304 0 1 sctp 1500 -------D 0 0.0 1.0 1 47 84 0 46
+ 53.30304 1 0 sctp 48 -------S 0 1.0 0.0 1 47 133 65535 65535
- 53.30304 1 0 sctp 48 -------S 0 1.0 0.0 1 47 133 65535 65535
r 53.311808 1 0 sctp 48 -------S 0 1.0 0.0 1 39 109 65535 65535
+ 53.311808 0 1 sctp 1500 -------D 0 0.0 1.0 1 80 134 0 79
+ 53.311808 0 1 sctp 1500 -------D 0 0.0 1.0 1 81 135 0 80
- 53.31904 0 1 sctp 1500 -------D 0 0.0 1.0 1 57 99 0 56
r 53.32704 0 1 sctp 1500 -------D 0 0.0 1.0 1 48 86 0 47
+ 53.32704 1 0 sctp 48 -------S 0 1.0 0.0 1 48 136 65535 65535
- 53.32704 1 0 sctp 48 -------S 0 1.0 0.0 1 48 136 65535 65535
r 53.335808 1 0 sctp 48 -------S 0 1.0 0.0 1 40 112 65535 65535
+ 53.335808 0 1 sctp 1500 -------D 0 0.0 1.0 1 82 137 0 81
+ 53.335808 0 1 sctp 1500 -------D 0 0.0 1.0 1 83 138 0 82
- 53.34304 0 1 sctp 1500 -------D 0 0.0 1.0 1 58 101 0 57
r 53.35104 0 1 sctp 1500 -------D 0 0.0 1.0 1 49 87 0 48
+ 53.35104 1 0 sctp 48 -------S 0 1.0 0.0 1 49 139 65535 65535
- 53.35104 1 0 sctp 48 -------S 0 1.0 0.0 1 49 139 65535 65535
r 53.359808 1 0 sctp 48 -------S 0 1.0 0.0 1 41 115 65535 65535
+ 53.359808 0 1 sctp 1500 -------D 0 0.0 1.0 1 84 140 0 83
+ 53.359808 0 1 sctp 1500 -------D 0 0.0 1.0 1 85 141 0 84
- 53.36704 0 1 sctp 1500 -------D 0 0.0 1.0 1 59 102 0 58
r 53.37504 0 1 sctp 1500 -------D 0 0.0 1.0 1 50 89 0 49
+ 53.37504 1 0 sctp 48 -------S 0 1.0 0.0 1 50 142 65535 65535
- 53.37504 1 0 sctp 48 -------S 0 1.0 0.0 1 50 142 65535 65535
r 53.383808 1 0 sctp 48 -------S 0 1.0 0.0 1 42 118 65535 65535
+ 53.383808 0 1 sctp 1500 -------D 0 0.0 1.0 1 86 143 0 85
+ 53.383808 0 1 sctp 1500 -------D 0 0.0 1.0 1 87 144 0 86
- 53.39104 0 1 sctp 1500 -------D 0 0.0 1.0 1 60 104 0 59
r 53.39904 0 1 sctp 1500 -------D 0 0.0 1.0 1 51 90 0 50
+ 53.39904 1 0 sctp 48 -------S 0 1.0 0.0 1 51 145 65535 65535
- 53.39904 1 0 sctp 48 -------S 0 1.0 0.0 1 51 145 65535 65535
r 53.407808 1 0 sctp 48 -------S 0 1.0 0.0 1 43 121 65535 65535
+ 53.407808 0 1 sctp 1500 -------D 0 0.0 1.0 1 88 146 0 87
- 53.41504 0 1 sctp 1500 -------D 0 0.0 1.0 1 61 105 0 60
r 53.42304 0 1 sctp 1500 -------D 0 0.0 1.0 1 52 92 0 51
+ 53.42304 1 0 sctp 48 -------S 0 1.0 0.0 1 52 147 65535 65535
- 53.42304 1 0 sctp 48 -------S 0 1.0 0.0 1 52 147 65535 65535
r 53.431808 1 0 sctp 48 -------S 0 1.0 0.0 1 44 124 65535 65535
+ 53.431808 0 1 sctp 1500 -------D 0 0.0 1.0 1 89 148 0 88
- 53.43904 0 1 sctp 1500 -------D 0 0.0 1.0 1 62 107 0 61
r 53.44704 0 1 sctp 1500 -------D 0 0.0 1.0 1 53 93 0 52
+ 53.44704 1 0 sctp 48 -------S 0 1.0 0.0 1 53 149 65535 65535
- 53.44704 1 0 sctp 48 -------S 0 1.0 0.0 1 53 149 65535 65535
r 53.455808 1 0 sctp 48 -------S 0 1.0 0.0 1 45 127 65535 65535
+ 53.455808 0 1 sctp 1500 -------D 0 0.0 1.0 1 90 150 0 89
- 53.46304 0 1 sctp 1500 -------D 0 0.0 1.0 1 63 108 0 62
r 53.47104 0 1 sctp 1500 -------D 0 0.0 1.0 1 54 95 0 53
+ 53.47104 1 0 sctp 48 -------S 0 1.0 0.0 1 54 151 65535 65535
- 53.47104 1 0 sctp 48 -------S 0 1.0 0.0 1 54 151 65535 65535
r 53.479808 1 0 sctp 48 -------S 0 1.0 0.0 1 46 130 65535 65535
+ 53.479808 0 1 sctp 1500 -------D 0 0.0 1.0 1 91 152 0 90
- 53.48704 0 1 sctp 1500 -------D 0 0.0 1.0 1 64 110 0 63
r 53.49504 0 1 sctp 1500 -------D 0 0.0 1.0 1 55 96 0 54
+ 53.49504 1 0 sctp 48 -------S 0 1.0 0.0 1 55 153 65535 65535
- 53.49504 1 0 sctp 48 -------S 0 1.0 0.0 1 55 153 65535 65535
r 53.503808 1 0 sctp 48 -------S 0 1.0 0.0 1 47 133 65535 65535
+ 53.503808 0 1 sctp 1500 -------D 0 0.0 1.0 1 92 154 0 91
- 53.51104 0 1 sctp 1500 -------D 0 0.0 1.0 1 65 111 0 64
r 53.51904 0 1 sctp 1500 -------D 0 0.0 1.0 1 56 98 0 55
+ 53.51904 1 0 sctp 48 -------S 0 1.0 0.0 1 56 155 65535 65535
- 53.51904 1 0 sctp 48 -------S 0 1.0 0.0 1 56 155 65535 65535
r 53.527808 1 0 sctp 48 -------S 0 1.0 0.0 1 48 136 65535 65535
+ 53.527808 0 1 sctp 1500 -------D 0 0.0 1.0 1 93 156 0 92
- 53.53504 0 1 sctp 1500 -------D 0 0.0 1.0 1 66 113 0 65
r 53.54304 0 1 sctp 1500 -------D 0 0.0 1.0 1 57 99 0 56
+ 53.54304 1 0 sctp 48 -------S 0 1.0 0.0 1 57 157 65535 65535
- 53.54304 1 0 sctp 48 -------S 0 1.0 0.0 1 57 157 65535 65535
r 53.551808 1 0 sctp 48 -------S 0 1.0 0.0 1 49 139 65535 65535
+ 53.551808 0 1 sctp 1500 -------D 0 0.0 1.0 1 94 158 0 93
- 53.55904 0 1 sctp 1500 -------D 0 0.0 1.0 1 67 114 0 66
r 53.56704 0 1 sctp 1500 -------D 0 0.0 1.0 1 58 101 0 57
+ 53.56704 1 0 sctp 48 -------S 0 1.0 0.0 1 58 159 65535 65535
- 53.56704 1 0 sctp 48 -------S 0 1.0 0.0 1 58 159 65535 65535
r 53.575808 1 0 sctp 48 -------S 0 1.0 0.0 1 50 142 65535 65535
+ 53.575808 0 1 sctp 1500 -------D 0 0.0 1.0 1 95 160 0 94
- 53.58304 0 1 sctp 1500 -------D 0 0.0 1.0 1 68 116 0 67
r 53.59104 0 1 sctp 1500 -------D 0 0.0 1.0 1 59 102 0 58
+ 53.59104 1 0 sctp 48 -------S 0 1.0 0.0 1 59 161 65535 65535
- 53.59104 1 0 sctp 48 -------S 0 1.0 0.0 1 59 161 65535 65535
r 53.599808 1 0 sctp 48 -------S 0 1.0 0.0 1 51 145 65535 65535
+ 53.599808 0 1 sctp 1500 -------D 0 0.0 1.0 1 96 162 0 95
- 53.60704 0 1 sctp 1500 -------D 0 0.0 1.0 1 69 117 0 68
r 53.61504 0 1 sctp 1500 -------D 0 0.0 1.0 1 60 104 0 59
+ 53.61504 1 0 sctp 48 -------S 0 1.0 0.0 1 60 163 65535 65535
- 53.61504 1 0 sctp 48 -------S 0 1.0 0.0 1 60 163 65535 65535
r 53.623808 1 0 sctp 48 -------S 0 1.0 0.0 1 52 147 65535 65535
+ 53.623808 0 1 sctp 1500 -------D 0 0.0 1.0 1 97 164 0 96
- 53.63104 0 1 sctp 1500 -------D 0 0.0 1.0 1 70 119 0 69
r 53.63904 0 1 sctp 1500 -------D 0 0.0 1.0 1 61 105 0 60
+ 53.63904 1 0 sctp 48 -------S 0 1.0 0.0 1 61 165 65535 65535
- 53.63904 1 0 sctp 48 -------S 0 1.0 0.0 1 61 165 65535 65535
r 53.647808 1 0 sctp 48 -------S 0 1.0 0.0 1 53 149 65535 65535
+ 53.647808 0 1 sctp 1500 -------D 0 0.0 1.0 1 98 166 0 97
- 53.65504 0 1 sctp 1500 -------D 0 0.0 1.0 1 71 120 0 70
r 53.66304 0 1 sctp 1500 -------D 0 0.0 1.0 1 62 107 0 61
+ 53.66304 1 0 sctp 48 -------S 0 1.0 0.0 1 62 167 65535 65535
- 53.66304 1 0 sctp 48 -------S 0 1.0 0.0 1 62 167 65535 65535
r 53.671808 1 0 sctp 48 -------S 0 1.0 0.0 1 54 151 65535 65535
+ 53.671808 0 1 sctp 1500 -------D 0 0.0 1.0 1 99 168 0 98
- 53.67904 0 1 sctp 1500 -------D 0 0.0 1.0 1 72 122 0 71
r 53.68704 0 1 sctp 1500 -------D 0 0.0 1.0 1 63 108 0 62
+ 53.68704 1 0 sctp 48 -------S 0 1.0 0.0 1 63 169 65535 65535
- 53.68704 1 0 sctp 48 -------S 0 1.0 0.0 1 63 169 65535 65535
r 53.695808 1 0 sctp 48 -------S 0 1.0 0.0 1 55 153 65535 65535
+ 53.695808 0 1 sctp 1500 -------D 0 0.0 1.0 1 100 170 0 99
- 53.70304 0 1 sctp 1500 -------D 0 0.0 1.0 1 73 123 0 72
r 53.71104 0 1 sctp 1500 -------D 0 0.0 1.0 1 64 110 0 63
+ 53.71104 1 0 sctp 48 -------S 0 1.0 0.0 1 64 171 65535 65535
- 53.71104 1 0 sctp 48 -------S 0 1.0 0.0 1 64 171 65535 65535
r 53.719808 1 0 sctp 48 -------S 0 1.0 0.0 1 56 155 65535 65535
+ 53.719808 0 1 sctp 1500 -------D 0 0.0 1.0 1 101 172 0 100
- 53.72704 0 1 sctp 1500 -------D 0 0.0 1.0 1 74 125 0 73
r 53.73504 0 1 sctp 1500 -------D 0 0.0 1.0 1 65 111 0 64
+ 53.73504 1 0 sctp 48 -------S 0 1.0 0.0 1 65 173 65535 65535
- 53.73504 1 0 sctp 48 -------S 0 1.0 0.0 1 65 173 65535 65535
r 53.743808 1 0 sctp 48 -------S 0 1.0 0.0 1 57 157 65535 65535
+ 53.743808 0 1 sctp 1500 -------D 0 0.0 1.0 1 102 174 0 101
- 53.75104 0 1 sctp 1500 -------D 0 0.0 1.0 1 75 126 0 74
r 53.75904 0 1 sctp 1500 -------D 0 0.0 1.0 1 66 113 0 65
+ 53.75904 1 0 sctp 48 -------S 0 1.0 0.0 1 66 175 65535 65535
- 53.75904 1 0 sctp 48 -------S 0 1.0 0.0 1 66 175 65535 65535
r 53.767808 1 0 sctp 48 -------S 0 1.0 0.0 1 58 159 65535 65535
+ 53.767808 0 1 sctp 1500 -------D 0 0.0 1.0 1 103 176 0 102
- 53.77504 0 1 sctp 1500 -------D 0 0.0 1.0 1 76 128 0 75
r 53.78304 0 1 sctp 1500 -------D 0 0.0 1.0 1 67 114 0 66
+ 53.78304 1 0 sctp 48 -------S 0 1.0 0.0 1 67 177 65535 65535
- 53.78304 1 0 sctp 48 -------S 0 1.0 0.0 1 67 177 65535 65535
r 53.791808 1 0 sctp 48 -------S 0 1.0 0.0 1 59 161 65535 65535
+ 53.791808 0 1 sctp 1500 -------D 0 0.0 1.0 1 104 178 0 103
- 53.79904 0 1 sctp 1500 -------D 0 0.0 1.0 1 77 129 0 76
r 53.80704 0 1 sctp 1500 -------D 0 0.0 1.0 1 68 116 0 67
+ 53.80704 1 0 sctp 48 -------S 0 1.0 0.0 1 68 179 65535 65535
- 53.80704 1 0 sctp 48 -------S 0 1.0 0.0 1 68 179 65535 65535
r 53.815808 1 0 sctp 48 -------S 0 1.0 0.0 1 60 163 65535 65535
+ 53.815808 0 1 sctp 1500 -------D 0 0.0 1.0 1 105 180 0 104
- 53.82304 0 1 sctp 1500 -------D 0 0.0 1.0 1 78 131 0 77
r 53.83104 0 1 sctp 1500 -------D 0 0.0 1.0 1 69 117 0 68
+ 53.83104 1 0 sctp 48 -------S 0 1.0 0.0 1 69 181 65535 65535
- 53.83104 1 0 sctp 48 -------S 0 1.0 0.0 1 69 181 65535 65535
r 53.839808 1 0 sctp 48 -------S 0 1.0 0.0 1 61 165 65535 65535
+ 53.839808 0 1 sctp 1500 -------D 0 0.0 1.0 1 106 182 0 105
- 53.84704 0 1 sctp 1500 -------D 0 0.0 1.0 1 79 132 0 78
r 53.85504 0 1 sctp 1500 -------D 0 0.0 1.0 1 70 119 0 69
+ 53.85504 1 0 sctp 48 -------S 0 1.0 0.0 1 70 183 65535 65535
- 53.85504 1 0 sctp 48 -------S 0 1.0 0.0 1 70 183 65535 65535
r 53.863808 1 0 sctp 48 -------S 0 1.0 0.0 1 62 167 65535 65535
+ 53.863808 0 1 sctp 1500 -------D 0 0.0 1.0 1 107 184 0 106
- 53.87104 0 1 sctp 1500 -------D 0 0.0 1.0 1 80 134 0 79
r 53.87904 0 1 sctp 1500 -------D 0 0.0 1.0 1 71 120 0 70
+ 53.87904 1 0 sctp 48 -------S 0 1.0 0.0 1 71 185 65535 65535
- 53.87904 1 0 sctp 48 -------S 0 1.0 0.0 1 71 185 65535 65535
r 53.887808 1 0 sctp 48 -------S 0 1.0 0.0 1 63 169 65535 65535
+ 53.887808 0 1 sctp 1500 -------D 0 0.0 1.0 1 108 186 0 107
- 53.89504 0 1 sctp 1500 -------D 0 0.0 1.0 1 81 135 0 80
r 53.90304 0 1 sctp 1500 -------D 0 0.0 1.0 1 72 122 0 71
+ 53.90304 1 0 sctp 48 -------S 0 1.0 0.0 1 72 187 65535 65535
- 53.90304 1 0 sctp 48 -------S 0 1.0 0.0 1 72 187 65535 65535
r 53.911808 1 0 sctp 48 -------S 0 1.0 0.0 1 64 171 65535 65535
+ 53.911808 0 1 sctp 1500 -------D 0 0.0 1.0 1 109 188 0 108
- 53.91904 0 1 sctp 1500 -------D 0 0.0 1.0 1 82 137 0 81
r 53.92704 0 1 sctp 1500 -------D 0 0.0 1.0 1 73 123 0 72
+ 53.92704 1 0 sctp 48 -------S 0 1.0 0.0 1 73 189 65535 65535
- 53.92704 1 0 sctp 48 -------S 0 1.0 0.0 1 73 189 65535 65535
r 53.935808 1 0 sctp 48 -------S 0 1.0 0.0 1 65 173 65535 65535
+ 53.935808 0 1 sctp 1500 -------D 0 0.0 1.0 1 110 190 0 109
- 53.94304 0 1 sctp 1500 -------D 0 0.0 1.0 1 83 138 0 82
r 53.95104 0 1 sctp 1500 -------D 0 0.0 1.0 1 74 125 0 73
+ 53.95104 1 0 sctp 48 -------S 0 1.0 0.0 1 74 191 65535 65535
- 53.95104 1 0 sctp 48 -------S 0 1.0 0.0 1 74 191 65535 65535
r 53.959808 1 0 sctp 48 -------S 0 1.0 0.0 1 66 175 65535 65535