d 0.5 0 1 sctp 56 -------I 0 0.0 1.0 1 -1 2 65535 65535
+ 3.5 0 1 sctp 56 -------I 0 0.0 1.0 1 -1 3 65535 65535
- 3.5 0 1 sctp 56 -------I 0 0.0 1.0 1 -1 3 65535 65535
r 3.700896 0 1 sctp 56 -------I 0 0.0 1.0 1 -1 3 65535 65535
+ 3.700896 1 0 sctp 56 -------I 0 1.0 0.0 1 -1 4 65535 65535
- 3.700896 1 0 sctp 56 -------I 0 1.0 0.0 1 -1 4 65535 65535
r 3.901792 1 0 sctp 56 -------I 0 1.0 0.0 1 -1 4 65535 65535
+ 3.901792 0 1 sctp 36 -------I 0 0.0 1.0 1 -1 5 65535 65535
- 3.901792 0 1 sctp 36 -------I 0 0.0 1.0 1 -1 5 65535 65535
r 4.102368 0 1 sctp 36 -------I 0 0.0 1.0 1 -1 5 65535 65535
+ 4.102368 1 0 sctp 36 -------I 0 1.0 0.0 1 -1 6 65535 65535
- 4.102368 1 0 sctp 36 -------I 0 1.0 0.0 1 -1 6 65535 65535
r 4.302944 1 0 sctp 36 -------I 0 1.0 0.0 1 -1 6 65535 65535
+ 4.302944 0 1 sctp 56 -------H 0 0.0 1.0 1 -1 7 65535 65535
- 4.302944 0 1 sctp 56 -------H 0 0.0 1.0 1 -1 7 65535 65535
r 4.50384 0 1 sctp 56 -------H 0 0.0 1.0 1 -1 7 65535 65535
+ 4.50384 1 0 sctp 56 -------B 0 1.0 0.0 1 -1 8 65535 65535
- 4.50384 1 0 sctp 56 -------B 0 1.0 0.0 1 -1 8 65535 65535
r 4.704736 1 0 sctp 56 -------B 0 1.0 0.0 1 -1 8 65535 65535
+ 4.704736 0 1 sctp 1500 -------D 0 0.0 1.0 1 1 9 0 0
- 4.704736 0 1 sctp 1500 -------D 0 0.0 1.0 1 1 9 0 0
+ 4.704736 0 1 sctp 1500 -------D 0 0.0 1.0 1 2 10 0 1
+ 4.704736 0 1 sctp 1500 -------D 0 0.0 1.0 1 3 11 0 2
- 4.728736 0 1 sctp 1500 -------D 0 0.0 1.0 1 2 10 0 1
- 4.752736 0 1 sctp 1500 -------D 0 0.0 1.0 1 3 11 0 2
r 4.928736 0 1 sctp 1500 -------D 0 0.0 1.0 1 1 9 0 0
+ 4.928736 1 0 sctp 48 -------S 0 1.0 0.0 1 1 12 65535 65535
- 4.928736 1 0 sctp 48 -------S 0 1.0 0.0 1 1 12 65535 65535
r 4.952736 0 1 sctp 1500 -------D 0 0.0 1.0 1 2 10 0 1
r 4.976736 0 1 sctp 1500 -------D 0 0.0 1.0 1 3 11 0 2
+ 4.976736 1 0 sctp 48 -------S 0 1.0 0.0 1 3 13 65535 65535
- 4.976736 1 0 sctp 48 -------S 0 1.0 0.0 1 3 13 65535 65535
r 5.129504 1 0 sctp 48 -------S 0 1.0 0.0 1 1 12 65535 65535
+ 5.129504 0 1 sctp 1500 -------D 0 0.0 1.0 1 4 14 0 3
- 5.129504 0 1 sctp 1500 -------D 0 0.0 1.0 1 4 14 0 3
+ 5.129504 0 1 sctp 1500 -------D 0 0.0 1.0 1 5 15 0 4
- 5.153504 0 1 sctp 1500 -------D 0 0.0 1.0 1 5 15 0 4
r 5.177504 1 0 sctp 48 -------S 0 1.0 0.0 1 3 13 65535 65535
+ 5.177504 0 1 sctp 1500 -------D 0 0.0 1.0 1 6 16 0 5
+ 5.177504 0 1 sctp 1500 -------D 0 0.0 1.0 1 7 17 0 6
+ 5.177504 0 1 sctp 1500 -------D 0 0.0 1.0 1 8 18 0 7
- 5.177504 0 1 sctp 1500 -------D 0 0.0 1.0 1 6 16 0 5
- 5.201504 0 1 sctp 1500 -------D 0 0.0 1.0 1 7 17 0 6
- 5.225504 0 1 sctp 1500 -------D 0 0.0 1.0 1 8 18 0 7
r 5.353504 0 1 sctp 1500 -------D 0 0.0 1.0 1 4 14 0 3
r 5.377504 0 1 sctp 1500 -------D 0 0.0 1.0 1 5 15 0 4
+ 5.377504 1 0 sctp 48 -------S 0 1.0 0.0 1 5 19 65535 65535
- 5.377504 1 0 sctp 48 -------S 0 1.0 0.0 1 5 19 65535 65535
r 5.401504 0 1 sctp 1500 -------D 0 0.0 1.0 1 6 16 0 5
r 5.425504 0 1 sctp 1500 -------D 0 0.0 1.0 1 7 17 0 6
+ 5.425504 1 0 sctp 48 -------S 0 1.0 0.0 1 7 20 65535 65535
- 5.425504 1 0 sctp 48 -------S 0 1.0 0.0 1 7 20 65535 65535
r 5.449504 0 1 sctp 1500 -------D 0 0.0 1.0 1 8 18 0 7
r 5.578272 1 0 sctp 48 -------S 0 1.0 0.0 1 5 19 65535 65535
+ 5.578272 0 1 sctp 1500 -------D 0 0.0 1.0 1 9 21 0 8
- 5.578272 0 1 sctp 1500 -------D 0 0.0 1.0 1 9 21 0 8
+ 5.578272 0 1 sctp 1500 -------D 0 0.0 1.0 1 10 22 0 9
+ 5.578272 0 1 sctp 1500 -------D 0 0.0 1.0 1 11 23 0 10
- 5.602272 0 1 sctp 1500 -------D 0 0.0 1.0 1 10 22 0 9
r 5.626272 1 0 sctp 48 -------S 0 1.0 0.0 1 7 20 65535 65535
+ 5.626272 0 1 sctp 1500 -------D 0 0.0 1.0 1 12 24 0 11
+ 5.626272 0 1 sctp 1500 -------D 0 0.0 1.0 1 13 25 0 12
+ 5.626272 0 1 sctp 1500 -------D 0 0.0 1.0 1 14 26 0 13
- 5.626272 0 1 sctp 1500 -------D 0 0.0 1.0 1 11 23 0 10
+ 5.649504 1 0 sctp 48 -------S 0 1.0 0.0 1 8 27 65535 65535
- 5.649504 1 0 sctp 48 -------S 0 1.0 0.0 1 8 27 65535 65535
- 5.650272 0 1 sctp 1500 -------D 0 0.0 1.0 1 12 24 0 11
- 5.674272 0 1 sctp 1500 -------D 0 0.0 1.0 1 13 25 0 12
- 5.698272 0 1 sctp 1500 -------D 0 0.0 1.0 1 14 26 0 13
r 5.802272 0 1 sctp 1500 -------D 0 0.0 1.0 1 9 21 0 8
r 5.826272 0 1 sctp 1500 -------D 0 0.0 1.0 1 10 22 0 9
+ 5.826272 1 0 sctp 48 -------S 0 1.0 0.0 1 10 28 65535 65535
- 5.826272 1 0 sctp 48 -------S 0 1.0 0.0 1 10 28 65535 65535
r 5.850272 0 1 sctp 1500 -------D 0 0.0 1.0 1 11 23 0 10
r 5.850272 1 0 sctp 48 -------S 0 1.0 0.0 1 8 27 65535 65535
+ 5.850272 0 1 sctp 1500 -------D 0 0.0 1.0 1 15 29 0 14
- 5.850272 0 1 sctp 1500 -------D 0 0.0 1.0 1 15 29 0 14
+ 5.850272 0 1 sctp 1500 -------D 0 0.0 1.0 1 16 30 0 15
r 5.874272 0 1 sctp 1500 -------D 0 0.0 1.0 1 12 24 0 11
+ 5.874272 1 0 sctp 48 -------S 0 1.0 0.0 1 12 31 65535 65535
- 5.874272 1 0 sctp 48 -------S 0 1.0 0.0 1 12 31 65535 65535
- 5.874272 0 1 sctp 1500 -------D 0 0.0 1.0 1 16 30 0 15
r 5.898272 0 1 sctp 1500 -------D 0 0.0 1.0 1 13 25 0 12
r 5.922272 0 1 sctp 1500 -------D 0 0.0 1.0 1 14 26 0 13
+ 5.922272 1 0 sctp 48 -------S 0 1.0 0.0 1 14 32 65535 65535
- 5.922272 1 0 sctp 48 -------S 0 1.0 0.0 1 14 32 65535 65535
r 6.02704 1 0 sctp 48 -------S 0 1.0 0.0 1 10 28 65535 65535
+ 6.02704 0 1 sctp 1500 -------D 0 0.0 1.0 1 17 33 0 16
- 6.02704 0 1 sctp 1500 -------D 0 0.0 1.0 1 17 33 0 16
+ 6.02704 0 1 sctp 1500 -------D 0 0.0 1.0 1 18 34 0 17
+ 6.02704 0 1 sctp 1500 -------D 0 0.0 1.0 1 19 35 0 18
- 6.05104 0 1 sctp 1500 -------D 0 0.0 1.0 1 18 34 0 17
r 6.074272 0 1 sctp 1500 -------D 0 0.0 1.0 1 15 29 0 14
r 6.07504 1 0 sctp 48 -------S 0 1.0 0.0 1 12 31 65535 65535
+ 6.07504 0 1 sctp 1500 -------D 0 0.0 1.0 1 20 36 0 19
+ 6.07504 0 1 sctp 1500 -------D 0 0.0 1.0 1 21 37 0 20
+ 6.07504 0 1 sctp 1500 -------D 0 0.0 1.0 1 22 38 0 21
- 6.07504 0 1 sctp 1500 -------D 0 0.0 1.0 1 19 35 0 18
r 6.098272 0 1 sctp 1500 -------D 0 0.0 1.0 1 16 30 0 15
+ 6.098272 1 0 sctp 48 -------S 0 1.0 0.0 1 16 39 65535 65535
- 6.098272 1 0 sctp 48 -------S 0 1.0 0.0 1 16 39 65535 65535
- 6.09904 0 1 sctp 1500 -------D 0 0.0 1.0 1 20 36 0 19
r 6.12304 1 0 sctp 48 -------S 0 1.0 0.0 1 14 32 65535 65535
+ 6.12304 0 1 sctp 1500 -------D 0 0.0 1.0 1 23 40 0 22
+ 6.12304 0 1 sctp 1500 -------D 0 0.0 1.0 1 24 41 0 23
+ 6.12304 0 1 sctp 1500 -------D 0 0.0 1.0 1 25 42 0 24
- 6.12304 0 1 sctp 1500 -------D 0 0.0 1.0 1 21 37 0 20
- 6.14704 0 1 sctp 1500 -------D 0 0.0 1.0 1 22 38 0 21
- 6.17104 0 1 sctp 1500 -------D 0 0.0 1.0 1 23 40 0 22
- 6.19504 0 1 sctp 1500 -------D 0 0.0 1.0 1 24 41 0 23
- 6.21904 0 1 sctp 1500 -------D 0 0.0 1.0 1 25 42 0 24
r 6.25104 0 1 sctp 1500 -------D 0 0.0 1.0 1 17 33 0 16
r 6.27504 0 1 sctp 1500 -------D 0 0.0 1.0 1 18 34 0 17
+ 6.27504 1 0 sctp 48 -------S 0 1.0 0.0 1 18 43 65535 65535
- 6.27504 1 0 sctp 48 -------S 0 1.0 0.0 1 18 43 65535 65535
r 6.29904 0 1 sctp 1500 -------D 0 0.0 1.0 1 19 35 0 18
r 6.29904 1 0 sctp 48 -------S 0 1.0 0.0 1 16 39 65535 65535
+ 6.29904 0 1 sctp 1500 -------D 0 0.0 1.0 1 26 44 0 25
- 6.29904 0 1 sctp 1500 -------D 0 0.0 1.0 1 26 44 0 25
+ 6.29904 0 1 sctp 1500 -------D 0 0.0 1.0 1 27 45 0 26
+ 6.29904 0 1 sctp 1500 -------D 0 0.0 1.0 1 28 46 0 27
r 6.32304 0 1 sctp 1500 -------D 0 0.0 1.0 1 20 36 0 19
+ 6.32304 1 0 sctp 48 -------S 0 1.0 0.0 1 20 47 65535 65535
- 6.32304 1 0 sctp 48 -------S 0 1.0 0.0 1 20 47 65535 65535
- 6.32304 0 1 sctp 1500 -------D 0 0.0 1.0 1 27 45 0 26
r 6.34704 0 1 sctp 1500 -------D 0 0.0 1.0 1 21 37 0 20
- 6.34704 0 1 sctp 1500 -------D 0 0.0 1.0 1 28 46 0 27
r 6.37104 0 1 sctp 1500 -------D 0 0.0 1.0 1 22 38 0 21
+ 6.37104 1 0 sctp 48 -------S 0 1.0 0.0 1 22 48 65535 65535
- 6.37104 1 0 sctp 48 -------S 0 1.0 0.0 1 22 48 65535 65535
r 6.39504 0 1 sctp 1500 -------D 0 0.0 1.0 1 23 40 0 22
r 6.41904 0 1 sctp 1500 -------D 0 0.0 1.0 1 24 41 0 23
+ 6.41904 1 0 sctp 48 -------S 0 1.0 0.0 1 24 49 65535 65535
- 6.41904 1 0 sctp 48 -------S 0 1.0 0.0 1 24 49 65535 65535
r 6.44304 0 1 sctp 1500 -------D 0 0.0 1.0 1 25 42 0 24
r 6.475808 1 0 sctp 48 -------S 0 1.0 0.0 1 18 43 65535 65535
+ 6.475808 0 1 sctp 1500 -------D 0 0.0 1.0 1 29 50 0 28
- 6.475808 0 1 sctp 1500 -------D 0 0.0 1.0 1 29 50 0 28
+ 6.475808 0 1 sctp 1500 -------D 0 0.0 1.0 1 30 51 0 29
+ 6.475808 0 1 sctp 1500 -------D 0 0.0 1.0 1 31 52 0 30
- 6.499808 0 1 sctp 1500 -------D 0 0.0 1.0 1 30 51 0 29
r 6.52304 0 1 sctp 1500 -------D 0 0.0 1.0 1 26 44 0 25
+ 6.52304 1 0 sctp 48 -------S 0 1.0 0.0 1 26 53 65535 65535
- 6.52304 1 0 sctp 48 -------S 0 1.0 0.0 1 26 53 65535 65535
r 6.523808 1 0 sctp 48 -------S 0 1.0 0.0 1 20 47 65535 65535
+ 6.523808 0 1 sctp 1500 -------D 0 0.0 1.0 1 32 54 0 31
+ 6.523808 0 1 sctp 1500 -------D 0 0.0 1.0 1 33 55 0 32
+ 6.523808 0 1 sctp 1500 -------D 0 0.0 1.0 1 34 56 0 33
- 6.523808 0 1 sctp 1500 -------D 0 0.0 1.0 1 31 52 0 30
r 6.54704 0 1 sctp 1500 -------D 0 0.0 1.0 1 27 45 0 26
- 6.547808 0 1 sctp 1500 -------D 0 0.0 1.0 1 32 54 0 31
r 6.57104 0 1 sctp 1500 -------D 0 0.0 1.0 1 28 46 0 27
+ 6.57104 1 0 sctp 48 -------S 0 1.0 0.0 1 28 57 65535 65535
- 6.57104 1 0 sctp 48 -------S 0 1.0 0.0 1 28 57 65535 65535
r 6.571808 1 0 sctp 48 -------S 0 1.0 0.0 1 22 48 65535 65535
+ 6.571808 0 1 sctp 1500 -------D 0 0.0 1.0 1 35 58 0 34
+ 6.571808 0 1 sctp 1500 -------D 0 0.0 1.0 1 36 59 0 35
+ 6.571808 0 1 sctp 1500 -------D 0 0.0 1.0 1 37 60 0 36
- 6.571808 0 1 sctp 1500 -------D 0 0.0 1.0 1 33 55 0 32
- 6.595808 0 1 sctp 1500 -------D 0 0.0 1.0 1 34 56 0 33
r 6.619808 1 0 sctp 48 -------S 0 1.0 0.0 1 24 49 65535 65535
+ 6.619808 0 1 sctp 1500 -------D 0 0.0 1.0 1 38 61 0 37
+ 6.619808 0 1 sctp 1500 -------D 0 0.0 1.0 1 39 62 0 38
+ 6.619808 0 1 sctp 1500 -------D 0 0.0 1.0 1 40 63 0 39
- 6.619808 0 1 sctp 1500 -------D 0 0.0 1.0 1 35 58 0 34
- 6.643808 0 1 sctp 1500 -------D 0 0.0 1.0 1 36 59 0 35
- 6.667808 0 1 sctp 1500 -------D 0 0.0 1.0 1 37 60 0 36
- 6.691808 0 1 sctp 1500 -------D 0 0.0 1.0 1 38 61 0 37
r 6.699808 0 1 sctp 1500 -------D 0 0.0 1.0 1 29 50 0 28
- 6.715808 0 1 sctp 1500 -------D 0 0.0 1.0 1 39 62 0 38
r 6.723808 0 1 sctp 1500 -------D 0 0.0 1.0 1 30 51 0 29
+ 6.723808 1 0 sctp 48 -------S 0 1.0 0.0 1 30 64 65535 65535
- 6.723808 1 0 sctp 48 -------S 0 1.0 0.0 1 30 64 65535 65535
r 6.723808 1 0 sctp 48 -------S 0 1.0 0.0 1 26 53 65535 65535
+ 6.723808 0 1 sctp 1500 -------D 0 0.0 1.0 1 41 65 0 40
+ 6.723808 0 1 sctp 1500 -------D 0 0.0 1.0 1 42 66 0 41
+ 6.723808 0 1 sctp 1500 -------D 0 0.0 1.0 1 43 67 0 42
- 6.739808 0 1 sctp 1500 -------D 0 0.0 1.0 1 40 63 0 39
r 6.747808 0 1 sctp 1500 -------D 0 0.0 1.0 1 31 52 0 30
- 6.763808 0 1 sctp 1500 -------D 0 0.0 1.0 1 41 65 0 40
r 6.771808 0 1 sctp 1500 -------D 0 0.0 1.0 1 32 54 0 31
+ 6.771808 1 0 sctp 48 -------S 0 1.0 0.0 1 32 68 65535 65535
- 6.771808 1 0 sctp 48 -------S 0 1.0 0.0 1 32 68 65535 65535
r 6.771808 1 0 sctp 48 -------S 0 1.0 0.0 1 28 57 65535 65535
+ 6.771808 0 1 sctp 1500 -------D 0 0.0 1.0 1 44 69 0 43
+ 6.771808 0 1 sctp 1500 -------D 0 0.0 1.0 1 45 70 0 44
+ 6.771808 0 1 sctp 1500 -------D 0 0.0 1.0 1 46 71 0 45
- 6.787808 0 1 sctp 1500 -------D 0 0.0 1.0 1 42 66 0 41
r 6.795808 0 1 sctp 1500 -------D 0 0.0 1.0 1 33 55 0 32
- 6.811808 0 1 sctp 1500 -------D 0 0.0 1.0 1 43 67 0 42
r 6.819808 0 1 sctp 1500 -------D 0 0.0 1.0 1 34 56 0 33
+ 6.819808 1 0 sctp 48 -------S 0 1.0 0.0 1 34 72 65535 65535
- 6.819808 1 0 sctp 48 -------S 0 1.0 0.0 1 34 72 65535 65535
- 6.835808 0 1 sctp 1500 -------D 0 0.0 1.0 1 44 69 0 43
r 6.843808 0 1 sctp 1500 -------D 0 0.0 1.0 1 35 58 0 34
- 6.859808 0 1 sctp 1500 -------D 0 0.0 1.0 1 45 70 0 44
r 6.867808 0 1 sctp 1500 -------D 0 0.0 1.0 1 36 59 0 35
+ 6.867808 1 0 sctp 48 -------S 0 1.0 0.0 1 36 73 65535 65535
- 6.867808 1 0 sctp 48 -------S 0 1.0 0.0 1 36 73 65535 65535
- 6.883808 0 1 sctp 1500 -------D 0 0.0 1.0 1 46 71 0 45
r 6.891808 0 1 sctp 1500 -------D 0 0.0 1.0 1 37 60 0 36
r 6.915808 0 1 sctp 1500 -------D 0 0.0 1.0 1 38 61 0 37
+ 6.915808 1 0 sctp 48 -------S 0 1.0 0.0 1 38 74 65535 65535
- 6.915808 1 0 sctp 48 -------S 0 1.0 0.0 1 38 74 65535 65535
r 6.924576 1 0 sctp 48 -------S 0 1.0 0.0 1 30 64 65535 65535
+ 6.924576 0 1 sctp 1500 -------D 0 0.0 1.0 1 47 75 0 46
- 6.924576 0 1 sctp 1500 -------D 0 0.0 1.0 1 47 75 0 46
+ 6.924576 0 1 sctp 1500 -------D 0 0.0 1.0 1 48 76 0 47
+ 6.924576 0 1 sctp 1500 -------D 0 0.0 1.0 1 49 77 0 48
r 6.939808 0 1 sctp 1500 -------D 0 0.0 1.0 1 39 62 0 38
- 6.948576 0 1 sctp 1500 -------D 0 0.0 1.0 1 48 76 0 47
r 6.963808 0 1 sctp 1500 -------D 0 0.0 1.0 1 40 63 0 39
+ 6.963808 1 0 sctp 48 -------S 0 1.0 0.0 1 40 78 65535 65535
- 6.963808 1 0 sctp 48 -------S 0 1.0 0.0 1 40 78 65535 65535
r 6.972576 1 0 sctp 48 -------S 0 1.0 0.0 1 32 68 65535 65535
+ 6.972576 0 1 sctp 1500 -------D 0 0.0 1.0 1 50 79 0 49
+ 6.972576 0 1 sctp 1500 -------D 0 0.0 1.0 1 51 80 0 50
+ 6.972576 0 1 sctp 1500 -------D 0 0.0 1.0 1 52 81 0 51
- 6.972576 0 1 sctp 1500 -------D 0 0.0 1.0 1 49 77 0 48
r 6.987808 0 1 sctp 1500 -------D 0 0.0 1.0 1 41 65 0 40
- 6.996576 0 1 sctp 1500 -------D 0 0.0 1.0 1 50 79 0 49
r 7.011808 0 1 sctp 1500 -------D 0 0.0 1.0 1 42 66 0 41
+ 7.011808 1 0 sctp 48 -------S 0 1.0 0.0 1 42 82 65535 65535
- 7.011808 1 0 sctp 48 -------S 0 1.0 0.0 1 42 82 65535 65535
r 7.020576 1 0 sctp 48 -------S 0 1.0 0.0 1 34 72 65535 65535
+ 7.020576 0 1 sctp 1500 -------D 0 0.0 1.0 1 53 83 0 52
+ 7.020576 0 1 sctp 1500 -------D 0 0.0 1.0 1 54 84 0 53
+ 7.020576 0 1 sctp 1500 -------D 0 0.0 1.0 1 55 85 0 54
- 7.020576 0 1 sctp 1500 -------D 0 0.0 1.0 1 51 80 0 50
r 7.035808 0 1 sctp 1500 -------D 0 0.0 1.0 1 43 67 0 42
- 7.044576 0 1 sctp 1500 -------D 0 0.0 1.0 1 52 81 0 51
r 7.059808 0 1 sctp 1500 -------D 0 0.0 1.0 1 44 69 0 43
+ 7.059808 1 0 sctp 48 -------S 0 1.0 0.0 1 44 86 65535 65535
- 7.059808 1 0 sctp 48 -------S 0 1.0 0.0 1 44 86 65535 65535
r 7.068576 1 0 sctp 48 -------S 0 1.0 0.0 1 36 73 65535 65535
+ 7.068576 0 1 sctp 1500 -------D 0 0.0 1.0 1 56 87 0 55
+ 7.068576 0 1 sctp 1500 -------D 0 0.0 1.0 1 57 88 0 56
+ 7.068576 0 1 sctp 1500 -------D 0 0.0 1.0 1 58 89 0 57
- 7.068576 0 1 sctp 1500 -------D 0 0.0 1.0 1 53 83 0 52
r 7.083808 0 1 sctp 1500 -------D 0 0.0 1.0 1 45 70 0 44
- 7.092576 0 1 sctp 1500 -------D 0 0.0 1.0 1 54 84 0 53
r 7.107808 0 1 sctp 1500 -------D 0 0.0 1.0 1 46 71 0 45
+ 7.107808 1 0 sctp 48 -------S 0 1.0 0.0 1 46 90 65535 65535
- 7.107808 1 0 sctp 48 -------S 0 1.0 0.0 1 46 90 65535 65535
r 7.116576 1 0 sctp 48 -------S 0 1.0 0.0 1 38 74 65535 65535
+ 7.116576 0 1 sctp 1500 -------D 0 0.0 1.0 1 59 91 0 58
+ 7.116576 0 1 sctp 1500 -------D 0 0.0 1.0 1 60 92 0 59
+ 7.116576 0 1 sctp 1500 -------D 0 0.0 1.0 1 61 93 0 60
- 7.116576 0 1 sctp 1500 -------D 0 0.0 1.0 1 55 85 0 54
- 7.140576 0 1 sctp 1500 -------D 0 0.0 1.0 1 56 87 0 55
r 7.148576 0 1 sctp 1500 -------D 0 0.0 1.0 1 47 75 0 46
r 7.164576 1 0 sctp 48 -------S 0 1.0 0.0 1 40 78 65535 65535
+ 7.164576 0 1 sctp 1500 -------D 0 0.0 1.0 1 62 94 0 61
+ 7.164576 0 1 sctp 1500 -------D 0 0.0 1.0 1 63 95 0 62
+ 7.164576 0 1 sctp 1500 -------D 0 0.0 1.0 1 64 96 0 63
- 7.164576 0 1 sctp 1500 -------D 0 0.0 1.0 1 57 88 0 56
r 7.172576 0 1 sctp 1500 -------D 0 0.0 1.0 1 48 76 0 47
+ 7.172576 1 0 sctp 48 -------S 0 1.0 0.0 1 48 97 65535 65535
- 7.172576 1 0 sctp 48 -------S 0 1.0 0.0 1 48 97 65535 65535
- 7.188576 0 1 sctp 1500 -------D 0 0.0 1.0 1 58 89 0 57
r 7.196576 0 1 sctp 1500 -------D 0 0.0 1.0 1 49 77 0 48
r 7.212576 1 0 sctp 48 -------S 0 1.0 0.0 1 42 82 65535 65535
+ 7.212576 0 1 sctp 1500 -------D 0 0.0 1.0 1 65 98 0 64
+ 7.212576 0 1 sctp 1500 -------D 0 0.0 1.0 1 66 99 0 65
+ 7.212576 0 1 sctp 1500 -------D 0 0.0 1.0 1 67 100 0 66
- 7.212576 0 1 sctp 1500 -------D 0 0.0 1.0 1 59 91 0 58
r 7.220576 0 1 sctp 1500 -------D 0 0.0 1.0 1 50 79 0 49
+ 7.220576 1 0 sctp 48 -------S 0 1.0 0.0 1 50 101 65535 65535
- 7.220576 1 0 sctp 48 -------S 0 1.0 0.0 1 50 101 65535 65535
- 7.236576 0 1 sctp 1500 -------D 0 0.0 1.0 1 60 92 0 59
r 7.244576 0 1 sctp 1500 -------D 0 0.0 1.0 1 51 80 0 50
r 7.260576 1 0 sctp 48 -------S 0 1.0 0.0 1 44 86 65535 65535
+ 7.260576 0 1 sctp 1500 -------D 0 0.0 1.0 1 68 102 0 67
+ 7.260576 0 1 sctp 1500 -------D 0 0.0 1.0 1 69 103 0 68
+ 7.260576 0 1 sctp 1500 -------D 0 0.0 1.0 1 70 104 0 69
- 7.260576 0 1 sctp 1500 -------D 0 0.0 1.0 1 61 93 0 60
r 7.268576 0 1 sctp 1500 -------D 0 0.0 1.0 1 52 81 0 51
+ 7.268576 1 0 sctp 48 -------S 0 1.0 0.0 1 52 105 65535 65535
- 7.268576 1 0 sctp 48 -------S 0 1.0 0.0 1 52 105 65535 65535
- 7.284576 0 1 sctp 1500 -------D 0 0.0 1.0 1 62 94 0 61
r 7.292576 0 1 sctp 1500 -------D 0 0.0 1.0 1 53 83 0 52
r 7.308576 1 0 sctp 48 -------S 0 1.0 0.0 1 46 90 65535 65535
+ 7.308576 0 1 sctp 1500 -------D 0 0.0 1.0 1 71 106 0 70
+ 7.308576 0 1 sctp 1500 -------D 0 0.0 1.0 1 72 107 0 71
+ 7.308576 0 1 sctp 1500 -------D 0 0.0 1.0 1 73 108 0 72
- 7.308576 0 1 sctp 1500 -------D 0 0.0 1.0 1 63 95 0 62
r 7.316576 0 1 sctp 1500 -------D 0 0.0 1.0 1 54 84 0 53
+ 7.316576 1 0 sctp 48 -------S 0 1.0 0.0 1 54 109 65535 65535
- 7.316576 1 0 sctp 48 -------S 0 1.0 0.0 1 54 109 65535 65535
- 7.332576 0 1 sctp 1500 -------D 0 0.0 1.0 1 64 96 0 63
r 7.340576 0 1 sctp 1500 -------D 0 0.0 1.0 1 55 85 0 54
- 7.356576 0 1 sctp 1500 -------D 0 0.0 1.0 1 65 98 0 64
r 7.364576 0 1 sctp 1500 -------D 0 0.0 1.0 1 56 87 0 55
+ 7.364576 1 0 sctp 48 -------S 0 1.0 0.0 1 56 110 65535 65535
- 7.364576 1 0 sctp 48 -------S 0 1.0 0.0 1 56 110 65535 65535
r 7.373344 1 0 sctp 48 -------S 0 1.0 0.0 1 48 97 65535 65535
+ 7.373344 0 1 sctp 1500 -------D 0 0.0 1.0 1 74 111 0 73
+ 7.373344 0 1 sctp 1500 -------D 0 0.0 1.0 1 75 112 0 74
+ 7.373344 0 1 sctp 1500 -------D 0 0.0 1.0 1 76 113 0 75
- 7.380576 0 1 sctp 1500 -------D 0 0.0 1.0 1 66 99 0 65
r 7.388576 0 1 sctp 1500 -------D 0 0.0 1.0 1 57 88 0 56
- 7.404576 0 1 sctp 1500 -------D 0 0.0 1.0 1 67 100 0 66
r 7.412576 0 1 sctp 1500 -------D 0 0.0 1.0 1 58 89 0 57
+ 7.412576 1 0 sctp 48 -------S 0 1.0 0.0 1 58 114 65535 65535
- 7.412576 1 0 sctp 48 -------S 0 1.0 0.0 1 58 114 65535 65535
r 7.421344 1 0 sctp 48 -------S 0 1.0 0.0 1 50 101 65535 65535
+ 7.421344 0 1 sctp 1500 -------D 0 0.0 1.0 1 77 115 0 76
+ 7.421344 0 1 sctp 1500 -------D 0 0.0 1.0 1 78 116 0 77
+ 7.421344 0 1 sctp 1500 -------D 0 0.0 1.0 1 79 117 0 78
- 7.428576 0 1 sctp 1500 -------D 0 0.0 1.0 1 68 102 0 67
r 7.436576 0 1 sctp 1500 -------D 0 0.0 1.0 1 59 91 0 58
- 7.452576 0 1 sctp 1500 -------D 0 0.0 1.0 1 69 103 0 68
r 7.460576 0 1 sctp 1500 -------D 0 0.0 1.0 1 60 92 0 59
+ 7.460576 1 0 sctp 48 -------S 0 1.0 0.0 1 60 118 65535 65535
- 7.460576 1 0 sctp 48 -------S 0 1.0 0.0 1 60 118 65535 65535
r 7.469344 1 0 sctp 48 -------S 0 1.0 0.0 1 52 105 65535 65535
+ 7.469344 0 1 sctp 1500 -------D 0 0.0 1.0 1 80 119 0 79
+ 7.469344 0 1 sctp 1500 -------D 0 0.0 1.0 1 81 120 0 80
+ 7.469344 0 1 sctp 1500 -------D 0 0.0 1.0 1 82 121 0 81
- 7.476576 0 1 sctp 1500 -------D 0 0.0 1.0 1 70 104 0 69
r 7.484576 0 1 sctp 1500 -------D 0 0.0 1.0 1 61 93 0 60
- 7.500576 0 1 sctp 1500 -------D 0 0.0 1.0 1 71 106 0 70
r 7.508576 0 1 sctp 1500 -------D 0 0.0 1.0 1 62 94 0 61
+ 7.508576 1 0 sctp 48 -------S 0 1.0 0.0 1 62 122 65535 65535
- 7.508576 1 0 sctp 48 -------S 0 1.0 0.0 1 62 122 65535 65535
r 7.517344 1 0 sctp 48 -------S 0 1.0 0.0 1 54 109 65535 65535
+ 7.517344 0 1 sctp 1500 -------D 0 0.0 1.0 1 83 123 0 82
+ 7.517344 0 1 sctp 1500 -------D 0 0.0 1.0 1 84 124 0 83
+ 7.517344 0 1 sctp 1500 -------D 0 0.0 1.0 1 85 125 0 84
- 7.524576 0 1 sctp 1500 -------D 0 0.0 1.0 1 72 107 0 71
r 7.532576 0 1 sctp 1500 -------D 0 0.0 1.0 1 63 95 0 62
- 7.548576 0 1 sctp 1500 -------D 0 0.0 1.0 1 73 108 0 72
r 7.556576 0 1 sctp 1500 -------D 0 0.0 1.0 1 64 96 0 63
+ 7.556576 1 0 sctp 48 -------S 0 1.0 0.0 1 64 126 65535 65535
- 7.556576 1 0 sctp 48 -------S 0 1.0 0.0 1 64 126 65535 65535
r 7.565344 1 0 sctp 48 -------S 0 1.0 0.0 1 56 110 65535 65535
+ 7.565344 0 1 sctp 1500 -------D 0 0.0 1.0 1 86 127 0 85
+ 7.565344 0 1 sctp 1500 -------D 0 0.0 1.0 1 87 128 0 86
+ 7.565344 0 1 sctp 1500 -------D 0 0.0 1.0 1 88 129 0 87
- 7.572576 0 1 sctp 1500 -------D 0 0.0 1.0 1 74 111 0 73
r 7.580576 0 1 sctp 1500 -------D 0 0.0 1.0 1 65 98 0 64
- 7.596576 0 1 sctp 1500 -------D 0 0.0 1.0 1 75 112 0 74
r 7.604576 0 1 sctp 1500 -------D 0 0.0 1.0 1 66 99 0 65
+ 7.604576 1 0 sctp 48 -------S 0 1.0 0.0 1 66 130 65535 65535
- 7.604576 1 0 sctp 48 -------S 0 1.0 0.0 1 66 130 65535 65535
r 7.613344 1 0 sctp 48 -------S 0 1.0 0.0 1 58 114 65535 65535
+ 7.613344 0 1 sctp 1500 -------D 0 0.0 1.0 1 89 131 0 88
+ 7.613344 0 1 sctp 1500 -------D 0 0.0 1.0 1 90 132 0 89
+ 7.613344 0 1 sctp 1500 -------D 0 0.0 1.0 1 91 133 0 90
- 7.620576 0 1 sctp 1500 -------D 0 0.0 1.0 1 76 113 0 75
r 7.628576 0 1 sctp 1500 -------D 0 0.0 1.0 1 67 100 0 66
- 7.644576 0 1 sctp 1500 -------D 0 0.0 1.0 1 77 115 0 76
r 7.652576 0 1 sctp 1500 -------D 0 0.0 1.0 1 68 102 0 67
+ 7.652576 1 0 sctp 48 -------S 0 1.0 0.0 1 68 134 65535 65535
- 7.652576 1 0 sctp 48 -------S 0 1.0 0.0 1 68 134 65535 65535
r 7.661344 1 0 sctp 48 -------S 0 1.0 0.0 1 60 118 65535 65535
+ 7.661344 0 1 sctp 1500 -------D 0 0.0 1.0 1 92 135 0 91
+ 7.661344 0 1 sctp 1500 -------D 0 0.0 1.0 1 93 136 0 92
+ 7.661344 0 1 sctp 1500 -------D 0 0.0 1.0 1 94 137 0 93
- 7.668576 0 1 sctp 1500 -------D 0 0.0 1.0 1 78 116 0 77
r 7.676576 0 1 sctp 1500 -------D 0 0.0 1.0 1 69 103 0 68
- 7.692576 0 1 sctp 1500 -------D 0 0.0 1.0 1 79 117 0 78
r 7.700576 0 1 sctp 1500 -------D 0 0.0 1.0 1 70 104 0 69
+ 7.700576 1 0 sctp 48 -------S 0 1.0 0.0 1 70 138 65535 65535
- 7.700576 1 0 sctp 48 -------S 0 1.0 0.0 1 70 138 65535 65535
r 7.709344 1 0 sctp 48 -------S 0 1.0 0.0 1 62 122 65535 65535
+ 7.709344 0 1 sctp 1500 -------D 0 0.0 1.0 1 95 139 0 94
+ 7.709344 0 1 sctp 1500 -------D 0 0.0 1.0 1 96 140 0 95
+ 7.709344 0 1 sctp 1500 -------D 0 0.0 1.0 1 97 141 0 96
- 7.716576 0 1 sctp 1500 -------D 0 0.0 1.0 1 80 119 0 79
r 7.724576 0 1 sctp 1500 -------D 0 0.0 1.0 1 71 106 0 70
- 7.740576 0 1 sctp 1500 -------D 0 0.0 1.0 1 81 120 0 80
r 7.748576 0 1 sctp 1500 -------D 0 0.0 1.0 1 72 107 0 71
+ 7.748576 1 0 sctp 48 -------S 0 1.0 0.0 1 72 142 65535 65535
- 7.748576 1 0 sctp 48 -------S 0 1.0 0.0 1 72 142 65535 65535
r 7.757344 1 0 sctp 48 -------S 0 1.0 0.0 1 64 126 65535 65535
+ 7.757344 0 1 sctp 1500 -------D 0 0.0 1.0 1 98 143 0 97
+ 7.757344 0 1 sctp 1500 -------D 0 0.0 1.0 1 99 144 0 98
+ 7.757344 0 1 sctp 1500 -------D 0 0.0 1.0 1 100 145 0 99
- 7.764576 0 1 sctp 1500 -------D 0 0.0 1.0 1 82 121 0 81
r 7.772576 0 1 sctp 1500 -------D 0 0.0 1.0 1 73 108 0 72
- 7.788576 0 1 sctp 1500 -------D 0 0.0 1.0 1 83 123 0 82
r 7.796576 0 1 sctp 1500 -------D 0 0.0 1.0 1 74 111 0 73
+ 7.796576 1 0 sctp 48 -------S 0 1.0 0.0 1 74 146 65535 65535
- 7.796576 1 0 sctp 48 -------S 0 1.0 0.0 1 74 146 65535 65535
r 7.805344 1 0 sctp 48 -------S 0 1.0 0.0 1 66 130 65535 65535
+ 7.805344 0 1 sctp 1500 -------D 0 0.0 1.0 1 101 147 0 100
+ 7.805344 0 1 sctp 1500 -------D 0 0.0 1.0 1 102 148 0 101
+ 7.805344 0 1 sctp 1500 -------D 0 0.0 1.0 1 103 149 0 102
- 7.812576 0 1 sctp 1500 -------D 0 0.0 1.0 1 84 124 0 83
r 7.820576 0 1 sctp 1500 -------D 0 0.0 1.0 1 75 112 0 74
- 7.836576 0 1 sctp 1500 -------D 0 0.0 1.0 1 85 125 0 84
r 7.844576 0 1 sctp 1500 -------D 0 0.0 1.0 1 76 113 0 75
+ 7.844576 1 0 sctp 48 -------S 0 1.0 0.0 1 76 150 65535 65535
- 7.844576 1 0 sctp 48 -------S 0 1.0 0.0 1 76 150 65535 65535
r 7.853344 1 0 sctp 48 -------S 0 1.0 0.0 1 68 134 65535 65535
+ 7.853344 0 1 sctp 1500 -------D 0 0.0 1.0 1 104 151 0 103
+ 7.853344 0 1 sctp 1500 -------D 0 0.0 1.0 1 105 152 0 104
+ 7.853344 0 1 sctp 1500 -------D 0 0.0 1.0 1 106 153 0 105
- 7.860576 0 1 sctp 1500 -------D 0 0.0 1.0 1 86 127 0 85
r 7.868576 0 1 sctp 1500 -------D 0 0.0 1.0 1 77 115 0 76
- 7.884576 0 1 sctp 1500 -------D 0 0.0 1.0 1 87 128 0 86
r 7.892576 0 1 sctp 1500 -------D 0 0.0 1.0 1 78 116 0 77
+ 7.892576 1 0 sctp 48 -------S 0 1.0 0.0 1 78 154 65535 65535
- 7.892576 1 0 sctp 48 -------S 0 1.0 0.0 1 78 154 65535 65535
r 7.901344 1 0 sctp 48 -------S 0 1.0 0.0 1 70 138 65535 65535
+ 7.901344 0 1 sctp 1500 -------D 0 0.0 1.0 1 107 155 0 106
+ 7.901344 0 1 sctp 1500 -------D 0 0.0 1.0 1 108 156 0 107
+ 7.901344 0 1 sctp 1500 -------D 0 0.0 1.0 1 109 157 0 108
- 7.908576 0 1 sctp 1500 -------D 0 0.0 1.0 1 88 129 0 87
r 7.916576 0 1 sctp 1500 -------D 0 0.0 1.0 1 79 117 0 78
- 7.932576 0 1 sctp 1500 -------D 0 0.0 1.0 1 89 131 0 88
r 7.940576 0 1 sctp 1500 -------D 0 0.0 1.0 1 80 119 0 79
+ 7.940576 1 0 sctp 48 -------S 0 1.0 0.0 1 80 158 65535 65535
- 7.940576 1 0 sctp 48 -------S 0 1.0 0.0 1 80 158 65535 65535
r 7.949344 1 0 sctp 48 -------S 0 1.0 0.0 1 72 142 65535 65535
+ 7.949344 0 1 sctp 1500 -------D 0 0.0 1.0 1 110 159 0 109
+ 7.949344 0 1 sctp 1500 -------D 0 0.0 1.0 1 111 160 0 110
+ 7.949344 0 1 sctp 1500 -------D 0 0.0 1.0 1 112 161 0 111
- 7.956576 0 1 sctp 1500 -------D 0 0.0 1.0 1 90 132 0 89
r 7.964576 0 1 sctp 1500 -------D 0 0.0 1.0 1 81 120 0 80
- 7.980576 0 1 sctp 1500 -------D 0 0.0 1.0 1 91 133 0 90
r 7.988576 0 1 sctp 1500 -------D 0 0.0 1.0 1 82 121 0 81
+ 7.988576 1 0 sctp 48 -------S 0 1.0 0.0 1 82 162 65535 65535
- 7.988576 1 0 sctp 48 -------S 0 1.0 0.0 1 82 162 65535 65535
r 7.997344 1 0 sctp 48 -------S 0 1.0 0.0 1 74 146 65535 65535
+ 7.997344 0 1 sctp 1500 -------D 0 0.0 1.0 1 113 163 0 112
+ 7.997344 0 1 sctp 1500 -------D 0 0.0 1.0 1 114 164 0 113
+ 7.997344 0 1 sctp 1500 -------D 0 0.0 1.0 1 115 165 0 114
- 8.004576 0 1 sctp 1500 -------D 0 0.0 1.0 1 92 135 0 91
r 8.012576 0 1 sctp 1500 -------D 0 0.0 1.0 1 83 123 0 82
- 8.028576 0 1 sctp 1500 -------D 0 0.0 1.0 1 93 136 0 92
r 8.036576 0 1 sctp 1500 -------D 0 0.0 1.0 1 84 124 0 83
+ 8.036576 1 0 sctp 48 -------S 0 1.0 0.0 1 84 166 65535 65535
- 8.036576 1 0 sctp 48 -------S 0 1.0 0.0 1 84 166 65535 65535
r 8.045344 1 0 sctp 48 -------S 0 1.0 0.0 1 76 150 65535 65535
+ 8.045344 0 1 sctp 1500 -------D 0 0.0 1.0 1 116 167 0 115
+ 8.045344 0 1 sctp 1500 -------D 0 0.0 1.0 1 117 168 0 116
+ 8.045344 0 1 sctp 1500 -------D 0 0.0 1.0 1 118 169 0 117
- 8.052576 0 1 sctp 1500 -------D 0 0.0 1.0 1 94 137 0 93
r 8.060576 0 1 sctp 1500 -------D 0 0.0 1.0 1 85 125 0 84
- 8.076576 0 1 sctp 1500 -------D 0 0.0 1.0 1 95 139 0 94
r 8.084576 0 1 sctp 1500 -------D 0 0.0 1.0 1 86 127 0 85
+ 8.084576 1 0 sctp 48 -------S 0 1.0 0.0 1 86 170 65535 65535
- 8.084576 1 0 sctp 48 -------S 0 1.0 0.0 1 86 170 65535 65535
r 8.093344 1 0 sctp 48 -------S 0 1.0 0.0 1 78 154 65535 65535
+ 8.093344 0 1 sctp 1500 -------D 0 0.0 1.0 1 119 171 0 118
+ 8.093344 0 1 sctp 1500 -------D 0 0.0 1.0 1 120 172 0 119
+ 8.093344 0 1 sctp 1500 -------D 0 0.0 1.0 1 121 173 0 120
- 8.100576 0 1 sctp 1500 -------D 0 0.0 1.0 1 96 140 0 95
r 8.108576 0 1 sctp 1500 -------D 0 0.0 1.0 1 87 128 0 86
- 8.124576 0 1 sctp 1500 -------D 0 0.0 1.0 1 97 141 0 96
r 8.132576 0 1 sctp 1500 -------D 0 0.0 1.0 1 88 129 0 87
+ 8.132576 1 0 sctp 48 -------S 0 1.0 0.0 1 88 174 65535 65535
- 8.132576 1 0 sctp 48 -------S 0 1.0 0.0 1 88 174 65535 65535
r 8.141344 1 0 sctp 48 -------S 0 1.0 0.0 1 80 158 65535 65535
+ 8.141344 0 1 sctp 1500 -------D 0 0.0 1.0 1 122 175 0 121
+ 8.141344 0 1 sctp 1500 -------D 0 0.0 1.0 1 123 176 0 122
+ 8.141344 0 1 sctp 1500 -------D 0 0.0 1.0 1 124 177 0 123
- 8.148576 0 1 sctp 1500 -------D 0 0.0 1.0 1 98 143 0 97
r 8.156576 0 1 sctp 1500 -------D 0 0.0 1.0 1 89 131 0 88
- 8.172576 0 1 sctp 1500 -------D 0 0.0 1.0 1 99 144 0 98
r 8.180576 0 1 sctp 1500 -------D 0 0.0 1.0 1 90 132 0 89
+ 8.180576 1 0 sctp 48 -------S 0 1.0 0.0 1 90 178 65535 65535
- 8.180576 1 0 sctp 48 -------S 0 1.0 0.0 1 90 178 65535 65535
r 8.189344 1 0 sctp 48 -------S 0 1.0 0.0 1 82 162 65535 65535
+ 8.189344 0 1 sctp 1500 -------D 0 0.0 1.0 1 125 179 0 124
+ 8.189344 0 1 sctp 1500 -------D 0 0.0 1.0 1 126 180 0 125
+ 8.189344 0 1 sctp 1500 -------D 0 0.0 1.0 1 127 181 0 126
- 8.196576 0 1 sctp 1500 -------D 0 0.0 1.0 1 100 145 0 99
r 8.204576 0 1 sctp 1500 -------D 0 0.0 1.0 1 91 133 0 90
- 8.220576 0 1 sctp 1500 -------D 0 0.0 1.0 1 101 147 0 100
r 8.228576 0 1 sctp 1500 -------D 0 0.0 1.0 1 92 135 0 91
+ 8.228576 1 0 sctp 48 -------S 0 1.0 0.0 1 92 182 65535 65535
- 8.228576 1 0 sctp 48 -------S 0 1.0 0.0 1 92 182 65535 65535
r 8.237344 1 0 sctp 48 -------S 0 1.0 0.0 1 84 166 65535 65535
+ 8.237344 0 1 sctp 1500 -------D 0 0.0 1.0 1 128 183 0 127
+ 8.237344 0 1 sctp 1500 -------D 0 0.0 1.0 1 129 184 0 128
- 8.244576 0 1 sctp 1500 -------D 0 0.0 1.0 1 102 148 0 101
r 8.252576 0 1 sctp 1500 -------D 0 0.0 1.0 1 93 136 0 92
- 8.268576 0 1 sctp 1500 -------D 0 0.0 1.0 1 103 149 0 102
r 8.276576 0 1 sctp 1500 -------D 0 0.0 1.0 1 94 137 0 93
+ 8.276576 1 0 sctp 48 -------S 0 1.0 0.0 1 94 185 65535 65535
- 8.276576 1 0 sctp 48 -------S 0 1.0 0.0 1 94 185 65535 65535
r 8.285344 1 0 sctp 48 -------S 0 1.0 0.0 1 86 170 65535 65535
+ 8.285344 0 1 sctp 1500 -------D 0 0.0 1.0 1 130 186 0 129
+ 8.285344 0 1 sctp 1500 -------D 0 0.0 1.0 1 131 187 0 130
- 8.292576 0 1 sctp 1500 -------D 0 0.0 1.0 1 104 151 0 103
r 8.300576 0 1 sctp 1500 -------D 0 0.0 1.0 1 95 139 0 94
- 8.316576 0 1 sctp 1500 -------D 0 0.0 1.0 1 105 152 0 104
r 8.324576 0 1 sctp 1500 -------D 0 0.0 1.0 1 96 140 0 95
+ 8.324576 1 0 sctp 48 -------S 0 1.0 0.0 1 96 188 65535 65535
- 8.324576 1 0 sctp 48 -------S 0 1.0 0.0 1 96 188 65535 65535
r 8.333344 1 0 sctp 48 -------S 0 1.0 0.0 1 88 174 65535 65535
+ 8.333344 0 1 sctp 1500 -------D 0 0.0 1.0 1 132 189 0 131
+ 8.333344 0 1 sctp 1500 -------D 0 0.0 1.0 1 133 190 0 132
- 8.340576 0 1 sctp 1500 -------D 0 0.0 1.0 1 106 153 0 105
r 8.348576 0 1 sctp 1500 -------D 0 0.0 1.0 1 97 141 0 96
- 8.364576 0 1 sctp 1500 -------D 0 0.0 1.0 1 107 155 0 106
r 8.372576 0 1 sctp 1500 -------D 0 0.0 1.0 1 98 143 0 97
+ 8.372576 1 0 sctp 48 -------S 0 1.0 0.0 1 98 191 65535 65535
- 8.372576 1 0 sctp 48 -------S 0 1.0 0.0 1 98 191 65535 65535
r 8.381344 1 0 sctp 48 -------S 0 1.0 0.0 1 90 178 65535 65535
+ 8.381344 0 1 sctp 1500 -------D 0 0.0 1.0 1 134 192 0 133
+ 8.381344 0 1 sctp 1500 -------D 0 0.0 1.0 1 135 193 0 134
- 8.388576 0 1 sctp 1500 -------D 0 0.0 1.0 1 108 156 0 107
r 8.396576 0 1 sctp 1500 -------D 0 0.0 1.0 1 99 144 0 98
- 8.412576 0 1 sctp 1500 -------D 0 0.0 1.0 1 109 157 0 108
r 8.420576 0 1 sctp 1500 -------D 0 0.0 1.0 1 100 145 0 99