+ 0.5 1 5 sctp 56 -------I 0 1.0 5.0 1 -1 6 65535 65535
- 0.5 1 5 sctp 56 -------I 0 1.0 5.0 1 -1 6 65535 65535
r 0.700896 1 5 sctp 56 -------I 0 1.0 5.0 1 -1 6 65535 65535
+ 0.700896 5 1 sctp 56 -------I 0 5.0 1.0 1 -1 7 65535 65535
- 0.700896 5 1 sctp 56 -------I 0 5.0 1.0 1 -1 7 65535 65535
r 0.901792 5 1 sctp 56 -------I 0 5.0 1.0 1 -1 7 65535 65535
+ 0.901792 1 5 sctp 36 -------I 0 1.0 5.0 1 -1 8 65535 65535
- 0.901792 1 5 sctp 36 -------I 0 1.0 5.0 1 -1 8 65535 65535
r 1.102368 1 5 sctp 36 -------I 0 1.0 5.0 1 -1 8 65535 65535
+ 1.102368 5 1 sctp 36 -------I 0 5.0 1.0 1 -1 9 65535 65535
- 1.102368 5 1 sctp 36 -------I 0 5.0 1.0 1 -1 9 65535 65535
r 1.302944 5 1 sctp 36 -------I 0 5.0 1.0 1 -1 9 65535 65535
+ 1.302944 1 5 sctp 56 -------H 0 1.0 5.0 1 -1 10 65535 65535
- 1.302944 1 5 sctp 56 -------H 0 1.0 5.0 1 -1 10 65535 65535
+ 1.302944 2 6 sctp 56 -------H 0 2.0 6.0 1 -1 11 65535 65535
- 1.302944 2 6 sctp 56 -------H 0 2.0 6.0 1 -1 11 65535 65535
+ 1.302944 3 7 sctp 56 -------H 0 3.0 7.0 1 -1 12 65535 65535
- 1.302944 3 7 sctp 56 -------H 0 3.0 7.0 1 -1 12 65535 65535
r 1.50384 1 5 sctp 56 -------H 0 1.0 5.0 1 -1 10 65535 65535
+ 1.50384 5 1 sctp 56 -------B 0 5.0 1.0 1 -1 13 65535 65535
- 1.50384 5 1 sctp 56 -------B 0 5.0 1.0 1 -1 13 65535 65535
r 1.50384 2 6 sctp 56 -------H 0 2.0 6.0 1 -1 11 65535 65535
+ 1.50384 6 2 sctp 56 -------B 0 6.0 2.0 1 -1 14 65535 65535
- 1.50384 6 2 sctp 56 -------B 0 6.0 2.0 1 -1 14 65535 65535
r 1.50384 3 7 sctp 56 -------H 0 3.0 7.0 1 -1 12 65535 65535
+ 1.50384 7 3 sctp 56 -------B 0 7.0 3.0 1 -1 15 65535 65535
- 1.50384 7 3 sctp 56 -------B 0 7.0 3.0 1 -1 15 65535 65535
r 1.704736 5 1 sctp 56 -------B 0 5.0 1.0 1 -1 13 65535 65535
r 1.704736 6 2 sctp 56 -------B 0 6.0 2.0 1 -1 14 65535 65535
r 1.704736 7 3 sctp 56 -------B 0 7.0 3.0 1 -1 15 65535 65535
+ 1.704736 1 5 sctp 1500 -------D 0 1.0 5.0 1 1 16 0 0
- 1.704736 1 5 sctp 1500 -------D 0 1.0 5.0 1 1 16 0 0
+ 1.704736 1 5 sctp 1500 -------D 0 1.0 5.0 1 2 17 0 1
+ 1.704736 1 5 sctp 1500 -------D 0 1.0 5.0 1 3 18 0 2
- 1.728736 1 5 sctp 1500 -------D 0 1.0 5.0 1 2 17 0 1
- 1.752736 1 5 sctp 1500 -------D 0 1.0 5.0 1 3 18 0 2
r 1.928736 1 5 sctp 1500 -------D 0 1.0 5.0 1 1 16 0 0
+ 1.928736 5 1 sctp 48 -------S 0 5.0 1.0 1 1 19 65535 65535
- 1.928736 5 1 sctp 48 -------S 0 5.0 1.0 1 1 19 65535 65535
r 1.952736 1 5 sctp 1500 -------D 0 1.0 5.0 1 2 17 0 1
r 1.976736 1 5 sctp 1500 -------D 0 1.0 5.0 1 3 18 0 2
+ 1.976736 5 1 sctp 48 -------S 0 5.0 1.0 1 3 20 65535 65535
- 1.976736 5 1 sctp 48 -------S 0 5.0 1.0 1 3 20 65535 65535
r 2.129504 5 1 sctp 48 -------S 0 5.0 1.0 1 1 19 65535 65535
+ 2.129504 1 5 sctp 1500 -------D 0 1.0 5.0 1 4 21 0 3
- 2.129504 1 5 sctp 1500 -------D 0 1.0 5.0 1 4 21 0 3
+ 2.129504 1 5 sctp 1500 -------D 0 1.0 5.0 1 5 22 0 4
- 2.153504 1 5 sctp 1500 -------D 0 1.0 5.0 1 5 22 0 4
r 2.177504 5 1 sctp 48 -------S 0 5.0 1.0 1 3 20 65535 65535
+ 2.177504 1 5 sctp 1500 -------D 0 1.0 5.0 1 6 23 0 5
+ 2.177504 1 5 sctp 1500 -------D 0 1.0 5.0 1 7 24 0 6
+ 2.177504 1 5 sctp 1500 -------D 0 1.0 5.0 1 8 25 0 7
- 2.177504 1 5 sctp 1500 -------D 0 1.0 5.0 1 6 23 0 5
- 2.201504 1 5 sctp 1500 -------D 0 1.0 5.0 1 7 24 0 6
- 2.225504 1 5 sctp 1500 -------D 0 1.0 5.0 1 8 25 0 7
r 2.353504 1 5 sctp 1500 -------D 0 1.0 5.0 1 4 21 0 3
r 2.377504 1 5 sctp 1500 -------D 0 1.0 5.0 1 5 22 0 4
+ 2.377504 5 1 sctp 48 -------S 0 5.0 1.0 1 5 26 65535 65535
- 2.377504 5 1 sctp 48 -------S 0 5.0 1.0 1 5 26 65535 65535
r 2.401504 1 5 sctp 1500 -------D 0 1.0 5.0 1 6 23 0 5
r 2.425504 1 5 sctp 1500 -------D 0 1.0 5.0 1 7 24 0 6
+ 2.425504 5 1 sctp 48 -------S 0 5.0 1.0 1 7 27 65535 65535
- 2.425504 5 1 sctp 48 -------S 0 5.0 1.0 1 7 27 65535 65535
r 2.449504 1 5 sctp 1500 -------D 0 1.0 5.0 1 8 25 0 7
r 2.578272 5 1 sctp 48 -------S 0 5.0 1.0 1 5 26 65535 65535
+ 2.578272 1 5 sctp 1500 -------D 0 1.0 5.0 1 9 28 0 8
- 2.578272 1 5 sctp 1500 -------D 0 1.0 5.0 1 9 28 0 8
+ 2.578272 1 5 sctp 1500 -------D 0 1.0 5.0 1 10 29 0 9
+ 2.578272 1 5 sctp 1500 -------D 0 1.0 5.0 1 11 30 0 10
- 2.602272 1 5 sctp 1500 -------D 0 1.0 5.0 1 10 29 0 9
r 2.626272 5 1 sctp 48 -------S 0 5.0 1.0 1 7 27 65535 65535
+ 2.626272 1 5 sctp 1500 -------D 0 1.0 5.0 1 12 31 0 11
+ 2.626272 1 5 sctp 1500 -------D 0 1.0 5.0 1 13 32 0 12
d 2.626272 1 5 sctp 1500 -------D 0 1.0 5.0 1 14 33 0 13
- 2.626272 1 5 sctp 1500 -------D 0 1.0 5.0 1 11 30 0 10
+ 2.649504 5 1 sctp 48 -------S 0 5.0 1.0 1 8 34 65535 65535
- 2.649504 5 1 sctp 48 -------S 0 5.0 1.0 1 8 34 65535 65535
- 2.650272 1 5 sctp 1500 -------D 0 1.0 5.0 1 12 31 0 11
- 2.674272 1 5 sctp 1500 -------D 0 1.0 5.0 1 13 32 0 12
r 2.802272 1 5 sctp 1500 -------D 0 1.0 5.0 1 9 28 0 8
r 2.826272 1 5 sctp 1500 -------D 0 1.0 5.0 1 10 29 0 9
+ 2.826272 5 1 sctp 48 -------S 0 5.0 1.0 1 10 35 65535 65535
- 2.826272 5 1 sctp 48 -------S 0 5.0 1.0 1 10 35 65535 65535
r 2.850272 1 5 sctp 1500 -------D 0 1.0 5.0 1 11 30 0 10
r 2.850272 5 1 sctp 48 -------S 0 5.0 1.0 1 8 34 65535 65535
+ 2.850272 1 5 sctp 1500 -------D 0 1.0 5.0 1 15 36 0 14
- 2.850272 1 5 sctp 1500 -------D 0 1.0 5.0 1 15 36 0 14
+ 2.850272 1 5 sctp 1500 -------D 0 1.0 5.0 1 16 37 0 15
r 2.874272 1 5 sctp 1500 -------D 0 1.0 5.0 1 12 31 0 11
+ 2.874272 5 1 sctp 48 -------S 0 5.0 1.0 1 12 38 65535 65535
- 2.874272 5 1 sctp 48 -------S 0 5.0 1.0 1 12 38 65535 65535
- 2.874272 1 5 sctp 1500 -------D 0 1.0 5.0 1 16 37 0 15
r 2.898272 1 5 sctp 1500 -------D 0 1.0 5.0 1 13 32 0 12
r 3.02704 5 1 sctp 48 -------S 0 5.0 1.0 1 10 35 65535 65535
+ 3.02704 1 5 sctp 1500 -------D 0 1.0 5.0 1 17 39 0 16
- 3.02704 1 5 sctp 1500 -------D 0 1.0 5.0 1 17 39 0 16
+ 3.02704 1 5 sctp 1500 -------D 0 1.0 5.0 1 18 40 0 17
+ 3.02704 1 5 sctp 1500 -------D 0 1.0 5.0 1 19 41 0 18
- 3.05104 1 5 sctp 1500 -------D 0 1.0 5.0 1 18 40 0 17
r 3.074272 1 5 sctp 1500 -------D 0 1.0 5.0 1 15 36 0 14
+ 3.074272 5 1 sctp 52 -------S 0 5.0 1.0 1 13 42 65535 65535
- 3.074272 5 1 sctp 52 -------S 0 5.0 1.0 1 13 42 65535 65535
r 3.07504 5 1 sctp 48 -------S 0 5.0 1.0 1 12 38 65535 65535
+ 3.07504 1 5 sctp 1500 -------D 0 1.0 5.0 1 20 43 0 19
+ 3.07504 1 5 sctp 1500 -------D 0 1.0 5.0 1 21 44 0 20
+ 3.07504 1 5 sctp 1500 -------D 0 1.0 5.0 1 22 45 0 21
- 3.07504 1 5 sctp 1500 -------D 0 1.0 5.0 1 19 41 0 18
r 3.098272 1 5 sctp 1500 -------D 0 1.0 5.0 1 16 37 0 15
+ 3.098272 5 1 sctp 52 -------S 0 5.0 1.0 1 13 46 65535 65535
- 3.098272 5 1 sctp 52 -------S 0 5.0 1.0 1 13 46 65535 65535
- 3.09904 1 5 sctp 1500 -------D 0 1.0 5.0 1 20 43 0 19
- 3.12304 1 5 sctp 1500 -------D 0 1.0 5.0 1 21 44 0 20
- 3.14704 1 5 sctp 1500 -------D 0 1.0 5.0 1 22 45 0 21
r 3.25104 1 5 sctp 1500 -------D 0 1.0 5.0 1 17 39 0 16
+ 3.25104 5 1 sctp 52 -------S 0 5.0 1.0 1 13 47 65535 65535
- 3.25104 5 1 sctp 52 -------S 0 5.0 1.0 1 13 47 65535 65535
r 3.27504 1 5 sctp 1500 -------D 0 1.0 5.0 1 18 40 0 17
+ 3.27504 5 1 sctp 52 -------S 0 5.0 1.0 1 13 48 65535 65535
- 3.27504 5 1 sctp 52 -------S 0 5.0 1.0 1 13 48 65535 65535
r 3.275104 5 1 sctp 52 -------S 0 5.0 1.0 1 13 42 65535 65535
+ 3.275104 1 5 sctp 1500 -------D 0 1.0 5.0 1 23 49 0 22
- 3.275104 1 5 sctp 1500 -------D 0 1.0 5.0 1 23 49 0 22
+ 3.275104 1 5 sctp 1500 -------D 0 1.0 5.0 1 24 50 0 23
+ 3.275104 1 5 sctp 1500 -------D 0 1.0 5.0 1 25 51 0 24
r 3.29904 1 5 sctp 1500 -------D 0 1.0 5.0 1 19 41 0 18
+ 3.29904 5 1 sctp 52 -------S 0 5.0 1.0 1 13 52 65535 65535
- 3.29904 5 1 sctp 52 -------S 0 5.0 1.0 1 13 52 65535 65535
r 3.299104 5 1 sctp 52 -------S 0 5.0 1.0 1 13 46 65535 65535
+ 3.299104 1 5 sctp 1500 -------D 0 1.0 5.0 1 26 53 0 25
- 3.299104 1 5 sctp 1500 -------D 0 1.0 5.0 1 24 50 0 23
r 3.32304 1 5 sctp 1500 -------D 0 1.0 5.0 1 20 43 0 19
+ 3.32304 5 1 sctp 52 -------S 0 5.0 1.0 1 13 54 65535 65535
- 3.32304 5 1 sctp 52 -------S 0 5.0 1.0 1 13 54 65535 65535
- 3.323104 1 5 sctp 1500 -------D 0 1.0 5.0 1 25 51 0 24
r 3.34704 1 5 sctp 1500 -------D 0 1.0 5.0 1 21 44 0 20
+ 3.34704 5 1 sctp 52 -------S 0 5.0 1.0 1 13 55 65535 65535
- 3.34704 5 1 sctp 52 -------S 0 5.0 1.0 1 13 55 65535 65535
- 3.347104 1 5 sctp 1500 -------D 0 1.0 5.0 1 26 53 0 25
r 3.37104 1 5 sctp 1500 -------D 0 1.0 5.0 1 22 45 0 21
+ 3.37104 5 1 sctp 52 -------S 0 5.0 1.0 1 13 56 65535 65535
- 3.37104 5 1 sctp 52 -------S 0 5.0 1.0 1 13 56 65535 65535
r 3.451872 5 1 sctp 52 -------S 0 5.0 1.0 1 13 47 65535 65535
d 3.451872 2 6 sctp 1500 -------D 0 2.0 6.0 1 14 57 0 13
r 3.475872 5 1 sctp 52 -------S 0 5.0 1.0 1 13 48 65535 65535
r 3.499104 1 5 sctp 1500 -------D 0 1.0 5.0 1 23 49 0 22
+ 3.499104 5 1 sctp 52 -------S 0 5.0 1.0 1 13 58 65535 65535
- 3.499104 5 1 sctp 52 -------S 0 5.0 1.0 1 13 58 65535 65535
r 3.499872 5 1 sctp 52 -------S 0 5.0 1.0 1 13 52 65535 65535
r 3.523104 1 5 sctp 1500 -------D 0 1.0 5.0 1 24 50 0 23
+ 3.523104 5 1 sctp 52 -------S 0 5.0 1.0 1 13 59 65535 65535
- 3.523104 5 1 sctp 52 -------S 0 5.0 1.0 1 13 59 65535 65535
r 3.523872 5 1 sctp 52 -------S 0 5.0 1.0 1 13 54 65535 65535
r 3.547104 1 5 sctp 1500 -------D 0 1.0 5.0 1 25 51 0 24
+ 3.547104 5 1 sctp 52 -------S 0 5.0 1.0 1 13 60 65535 65535
- 3.547104 5 1 sctp 52 -------S 0 5.0 1.0 1 13 60 65535 65535
r 3.547872 5 1 sctp 52 -------S 0 5.0 1.0 1 13 55 65535 65535
+ 3.547872 1 5 sctp 1500 -------D 0 1.0 5.0 1 27 61 0 26
- 3.547872 1 5 sctp 1500 -------D 0 1.0 5.0 1 27 61 0 26
r 3.571104 1 5 sctp 1500 -------D 0 1.0 5.0 1 26 53 0 25
+ 3.571104 5 1 sctp 52 -------S 0 5.0 1.0 1 13 62 65535 65535
- 3.571104 5 1 sctp 52 -------S 0 5.0 1.0 1 13 62 65535 65535
r 3.571872 5 1 sctp 52 -------S 0 5.0 1.0 1 13 56 65535 65535
+ 3.571872 1 5 sctp 1500 -------D 0 1.0 5.0 1 28 63 0 27
- 3.571872 1 5 sctp 1500 -------D 0 1.0 5.0 1 28 63 0 27
r 3.699936 5 1 sctp 52 -------S 0 5.0 1.0 1 13 58 65535 65535
+ 3.699936 1 5 sctp 1500 -------D 0 1.0 5.0 1 29 64 0 28
- 3.699936 1 5 sctp 1500 -------D 0 1.0 5.0 1 29 64 0 28
r 3.723936 5 1 sctp 52 -------S 0 5.0 1.0 1 13 59 65535 65535
+ 3.723936 1 5 sctp 1500 -------D 0 1.0 5.0 1 30 65 0 29
- 3.723936 1 5 sctp 1500 -------D 0 1.0 5.0 1 30 65 0 29
r 3.747936 5 1 sctp 52 -------S 0 5.0 1.0 1 13 60 65535 65535
+ 3.747936 1 5 sctp 1500 -------D 0 1.0 5.0 1 31 66 0 30
- 3.747936 1 5 sctp 1500 -------D 0 1.0 5.0 1 31 66 0 30
r 3.771872 1 5 sctp 1500 -------D 0 1.0 5.0 1 27 61 0 26
+ 3.771872 5 1 sctp 52 -------S 0 5.0 1.0 1 13 67 65535 65535
- 3.771872 5 1 sctp 52 -------S 0 5.0 1.0 1 13 67 65535 65535
r 3.771936 5 1 sctp 52 -------S 0 5.0 1.0 1 13 62 65535 65535
+ 3.771936 1 5 sctp 1500 -------D 0 1.0 5.0 1 32 68 0 31
- 3.771936 1 5 sctp 1500 -------D 0 1.0 5.0 1 32 68 0 31
r 3.795872 1 5 sctp 1500 -------D 0 1.0 5.0 1 28 63 0 27
+ 3.795872 5 1 sctp 52 -------S 0 5.0 1.0 1 13 69 65535 65535
- 3.795872 5 1 sctp 52 -------S 0 5.0 1.0 1 13 69 65535 65535
r 3.923936 1 5 sctp 1500 -------D 0 1.0 5.0 1 29 64 0 28
+ 3.923936 5 1 sctp 52 -------S 0 5.0 1.0 1 13 70 65535 65535
- 3.923936 5 1 sctp 52 -------S 0 5.0 1.0 1 13 70 65535 65535
r 3.947936 1 5 sctp 1500 -------D 0 1.0 5.0 1 30 65 0 29
+ 3.947936 5 1 sctp 52 -------S 0 5.0 1.0 1 13 71 65535 65535
- 3.947936 5 1 sctp 52 -------S 0 5.0 1.0 1 13 71 65535 65535
r 3.971936 1 5 sctp 1500 -------D 0 1.0 5.0 1 31 66 0 30
+ 3.971936 5 1 sctp 52 -------S 0 5.0 1.0 1 13 72 65535 65535
- 3.971936 5 1 sctp 52 -------S 0 5.0 1.0 1 13 72 65535 65535
r 3.972704 5 1 sctp 52 -------S 0 5.0 1.0 1 13 67 65535 65535
+ 3.972704 1 5 sctp 1500 -------D 0 1.0 5.0 1 33 73 0 32
- 3.972704 1 5 sctp 1500 -------D 0 1.0 5.0 1 33 73 0 32
r 3.995936 1 5 sctp 1500 -------D 0 1.0 5.0 1 32 68 0 31
+ 3.995936 5 1 sctp 52 -------S 0 5.0 1.0 1 13 74 65535 65535
- 3.995936 5 1 sctp 52 -------S 0 5.0 1.0 1 13 74 65535 65535
r 3.996704 5 1 sctp 52 -------S 0 5.0 1.0 1 13 69 65535 65535
+ 3.996704 1 5 sctp 1500 -------D 0 1.0 5.0 1 34 75 0 33
- 3.996704 1 5 sctp 1500 -------D 0 1.0 5.0 1 34 75 0 33
r 4.124768 5 1 sctp 52 -------S 0 5.0 1.0 1 13 70 65535 65535
+ 4.124768 1 5 sctp 1500 -------D 0 1.0 5.0 1 35 76 0 34
- 4.124768 1 5 sctp 1500 -------D 0 1.0 5.0 1 35 76 0 34
r 4.148768 5 1 sctp 52 -------S 0 5.0 1.0 1 13 71 65535 65535
+ 4.148768 1 5 sctp 1500 -------D 0 1.0 5.0 1 36 77 0 35
- 4.148768 1 5 sctp 1500 -------D 0 1.0 5.0 1 36 77 0 35
r 4.172768 5 1 sctp 52 -------S 0 5.0 1.0 1 13 72 65535 65535
+ 4.172768 1 5 sctp 1500 -------D 0 1.0 5.0 1 37 78 0 36
- 4.172768 1 5 sctp 1500 -------D 0 1.0 5.0 1 37 78 0 36
r 4.196704 1 5 sctp 1500 -------D 0 1.0 5.0 1 33 73 0 32
+ 4.196704 5 1 sctp 52 -------S 0 5.0 1.0 1 13 79 65535 65535
- 4.196704 5 1 sctp 52 -------S 0 5.0 1.0 1 13 79 65535 65535
r 4.196768 5 1 sctp 52 -------S 0 5.0 1.0 1 13 74 65535 65535
+ 4.196768 1 5 sctp 1500 -------D 0 1.0 5.0 1 38 80 0 37
- 4.196768 1 5 sctp 1500 -------D 0 1.0 5.0 1 38 80 0 37
r 4.220704 1 5 sctp 1500 -------D 0 1.0 5.0 1 34 75 0 33
+ 4.220704 5 1 sctp 52 -------S 0 5.0 1.0 1 13 81 65535 65535
- 4.220704 5 1 sctp 52 -------S 0 5.0 1.0 1 13 81 65535 65535
r 4.348768 1 5 sctp 1500 -------D 0 1.0 5.0 1 35 76 0 34
+ 4.348768 5 1 sctp 52 -------S 0 5.0 1.0 1 13 82 65535 65535
- 4.348768 5 1 sctp 52 -------S 0 5.0 1.0 1 13 82 65535 65535
r 4.372768 1 5 sctp 1500 -------D 0 1.0 5.0 1 36 77 0 35
+ 4.372768 5 1 sctp 52 -------S 0 5.0 1.0 1 13 83 65535 65535
- 4.372768 5 1 sctp 52 -------S 0 5.0 1.0 1 13 83 65535 65535
r 4.396768 1 5 sctp 1500 -------D 0 1.0 5.0 1 37 78 0 36
+ 4.396768 5 1 sctp 52 -------S 0 5.0 1.0 1 13 84 65535 65535
- 4.396768 5 1 sctp 52 -------S 0 5.0 1.0 1 13 84 65535 65535
r 4.397536 5 1 sctp 52 -------S 0 5.0 1.0 1 13 79 65535 65535
+ 4.397536 1 5 sctp 1500 -------D 0 1.0 5.0 1 39 85 0 38
- 4.397536 1 5 sctp 1500 -------D 0 1.0 5.0 1 39 85 0 38
r 4.420768 1 5 sctp 1500 -------D 0 1.0 5.0 1 38 80 0 37
+ 4.420768 5 1 sctp 52 -------S 0 5.0 1.0 1 13 86 65535 65535
- 4.420768 5 1 sctp 52 -------S 0 5.0 1.0 1 13 86 65535 65535
r 4.421536 5 1 sctp 52 -------S 0 5.0 1.0 1 13 81 65535 65535
+ 4.421536 1 5 sctp 1500 -------D 0 1.0 5.0 1 40 87 0 39
- 4.421536 1 5 sctp 1500 -------D 0 1.0 5.0 1 40 87 0 39
r 4.5496 5 1 sctp 52 -------S 0 5.0 1.0 1 13 82 65535 65535
+ 4.5496 1 5 sctp 1500 -------D 0 1.0 5.0 1 41 88 0 40
- 4.5496 1 5 sctp 1500 -------D 0 1.0 5.0 1 41 88 0 40
r 4.5736 5 1 sctp 52 -------S 0 5.0 1.0 1 13 83 65535 65535
+ 4.5736 1 5 sctp 1500 -------D 0 1.0 5.0 1 42 89 0 41
- 4.5736 1 5 sctp 1500 -------D 0 1.0 5.0 1 42 89 0 41
r 4.5976 5 1 sctp 52 -------S 0 5.0 1.0 1 13 84 65535 65535
+ 4.5976 1 5 sctp 1500 -------D 0 1.0 5.0 1 43 90 0 42
- 4.5976 1 5 sctp 1500 -------D 0 1.0 5.0 1 43 90 0 42
r 4.621536 1 5 sctp 1500 -------D 0 1.0 5.0 1 39 85 0 38
+ 4.621536 5 1 sctp 52 -------S 0 5.0 1.0 1 13 91 65535 65535
- 4.621536 5 1 sctp 52 -------S 0 5.0 1.0 1 13 91 65535 65535
r 4.6216 5 1 sctp 52 -------S 0 5.0 1.0 1 13 86 65535 65535
+ 4.6216 1 5 sctp 1500 -------D 0 1.0 5.0 1 44 92 0 43
- 4.6216 1 5 sctp 1500 -------D 0 1.0 5.0 1 44 92 0 43
r 4.645536 1 5 sctp 1500 -------D 0 1.0 5.0 1 40 87 0 39
+ 4.645536 5 1 sctp 52 -------S 0 5.0 1.0 1 13 93 65535 65535
- 4.645536 5 1 sctp 52 -------S 0 5.0 1.0 1 13 93 65535 65535
+ 4.657248 3 7 sctp 1500 -------D 0 3.0 7.0 1 14 94 0 13
- 4.657248 3 7 sctp 1500 -------D 0 3.0 7.0 1 14 94 0 13
r 4.7736 1 5 sctp 1500 -------D 0 1.0 5.0 1 41 88 0 40
+ 4.7736 5 1 sctp 52 -------S 0 5.0 1.0 1 13 95 65535 65535
- 4.7736 5 1 sctp 52 -------S 0 5.0 1.0 1 13 95 65535 65535
r 4.7976 1 5 sctp 1500 -------D 0 1.0 5.0 1 42 89 0 41
+ 4.7976 5 1 sctp 52 -------S 0 5.0 1.0 1 13 96 65535 65535
- 4.7976 5 1 sctp 52 -------S 0 5.0 1.0 1 13 96 65535 65535
r 4.8216 1 5 sctp 1500 -------D 0 1.0 5.0 1 43 90 0 42
+ 4.8216 5 1 sctp 52 -------S 0 5.0 1.0 1 13 97 65535 65535
- 4.8216 5 1 sctp 52 -------S 0 5.0 1.0 1 13 97 65535 65535
r 4.822368 5 1 sctp 52 -------S 0 5.0 1.0 1 13 91 65535 65535
+ 4.822368 1 5 sctp 1500 -------D 0 1.0 5.0 1 45 98 0 44
- 4.822368 1 5 sctp 1500 -------D 0 1.0 5.0 1 45 98 0 44
r 4.8456 1 5 sctp 1500 -------D 0 1.0 5.0 1 44 92 0 43
+ 4.8456 5 1 sctp 52 -------S 0 5.0 1.0 1 13 99 65535 65535
- 4.8456 5 1 sctp 52 -------S 0 5.0 1.0 1 13 99 65535 65535
r 4.846368 5 1 sctp 52 -------S 0 5.0 1.0 1 13 93 65535 65535
+ 4.846368 1 5 sctp 1500 -------D 0 1.0 5.0 1 46 100 0 45
- 4.846368 1 5 sctp 1500 -------D 0 1.0 5.0 1 46 100 0 45
r 4.881248 3 7 sctp 1500 -------D 0 3.0 7.0 1 14 94 0 13
r 4.974432 5 1 sctp 52 -------S 0 5.0 1.0 1 13 95 65535 65535
+ 4.974432 1 5 sctp 1500 -------D 0 1.0 5.0 1 47 101 0 46
- 4.974432 1 5 sctp 1500 -------D 0 1.0 5.0 1 47 101 0 46
r 4.998432 5 1 sctp 52 -------S 0 5.0 1.0 1 13 96 65535 65535
+ 4.998432 1 5 sctp 1500 -------D 0 1.0 5.0 1 48 102 0 47
- 4.998432 1 5 sctp 1500 -------D 0 1.0 5.0 1 48 102 0 47
r 5.022432 5 1 sctp 52 -------S 0 5.0 1.0 1 13 97 65535 65535
+ 5.022432 1 5 sctp 1500 -------D 0 1.0 5.0 1 49 103 0 48
- 5.022432 1 5 sctp 1500 -------D 0 1.0 5.0 1 49 103 0 48
r 5.046368 1 5 sctp 1500 -------D 0 1.0 5.0 1 45 98 0 44
+ 5.046368 5 1 sctp 48 -------S 0 5.0 1.0 1 45 104 65535 65535
- 5.046368 5 1 sctp 48 -------S 0 5.0 1.0 1 45 104 65535 65535
r 5.046432 5 1 sctp 52 -------S 0 5.0 1.0 1 13 99 65535 65535
+ 5.046432 1 5 sctp 1500 -------D 0 1.0 5.0 1 50 105 0 49
- 5.046432 1 5 sctp 1500 -------D 0 1.0 5.0 1 50 105 0 49
r 5.070368 1 5 sctp 1500 -------D 0 1.0 5.0 1 46 100 0 45
r 5.198432 1 5 sctp 1500 -------D 0 1.0 5.0 1 47 101 0 46
+ 5.198432 5 1 sctp 48 -------S 0 5.0 1.0 1 47 106 65535 65535
- 5.198432 5 1 sctp 48 -------S 0 5.0 1.0 1 47 106 65535 65535
r 5.222432 1 5 sctp 1500 -------D 0 1.0 5.0 1 48 102 0 47
r 5.246432 1 5 sctp 1500 -------D 0 1.0 5.0 1 49 103 0 48
+ 5.246432 5 1 sctp 48 -------S 0 5.0 1.0 1 49 107 65535 65535
- 5.246432 5 1 sctp 48 -------S 0 5.0 1.0 1 49 107 65535 65535
r 5.247136 5 1 sctp 48 -------S 0 5.0 1.0 1 45 104 65535 65535
+ 5.247136 1 5 sctp 1500 -------D 0 1.0 5.0 1 51 108 0 50
- 5.247136 1 5 sctp 1500 -------D 0 1.0 5.0 1 51 108 0 50
+ 5.247136 1 5 sctp 1500 -------D 0 1.0 5.0 1 52 109 0 51
r 5.270432 1 5 sctp 1500 -------D 0 1.0 5.0 1 50 105 0 49
- 5.271136 1 5 sctp 1500 -------D 0 1.0 5.0 1 52 109 0 51
r 5.3992 5 1 sctp 48 -------S 0 5.0 1.0 1 47 106 65535 65535
+ 5.3992 1 5 sctp 1500 -------D 0 1.0 5.0 1 53 110 0 52
- 5.3992 1 5 sctp 1500 -------D 0 1.0 5.0 1 53 110 0 52
+ 5.3992 1 5 sctp 1500 -------D 0 1.0 5.0 1 54 111 0 53
- 5.4232 1 5 sctp 1500 -------D 0 1.0 5.0 1 54 111 0 53
r 5.4472 5 1 sctp 48 -------S 0 5.0 1.0 1 49 107 65535 65535
+ 5.4472 1 5 sctp 1500 -------D 0 1.0 5.0 1 55 112 0 54
+ 5.4472 1 5 sctp 1500 -------D 0 1.0 5.0 1 56 113 0 55
- 5.4472 1 5 sctp 1500 -------D 0 1.0 5.0 1 55 112 0 54
+ 5.470432 5 1 sctp 48 -------S 0 5.0 1.0 1 50 114 65535 65535
- 5.470432 5 1 sctp 48 -------S 0 5.0 1.0 1 50 114 65535 65535
r 5.471136 1 5 sctp 1500 -------D 0 1.0 5.0 1 51 108 0 50
- 5.4712 1 5 sctp 1500 -------D 0 1.0 5.0 1 56 113 0 55
r 5.495136 1 5 sctp 1500 -------D 0 1.0 5.0 1 52 109 0 51
+ 5.495136 5 1 sctp 48 -------S 0 5.0 1.0 1 52 115 65535 65535
- 5.495136 5 1 sctp 48 -------S 0 5.0 1.0 1 52 115 65535 65535
r 5.6232 1 5 sctp 1500 -------D 0 1.0 5.0 1 53 110 0 52
r 5.6472 1 5 sctp 1500 -------D 0 1.0 5.0 1 54 111 0 53
+ 5.6472 5 1 sctp 48 -------S 0 5.0 1.0 1 54 116 65535 65535
- 5.6472 5 1 sctp 48 -------S 0 5.0 1.0 1 54 116 65535 65535
r 5.6712 1 5 sctp 1500 -------D 0 1.0 5.0 1 55 112 0 54
r 5.6712 5 1 sctp 48 -------S 0 5.0 1.0 1 50 114 65535 65535
+ 5.6712 1 5 sctp 1500 -------D 0 1.0 5.0 1 57 117 0 56
- 5.6712 1 5 sctp 1500 -------D 0 1.0 5.0 1 57 117 0 56
r 5.6952 1 5 sctp 1500 -------D 0 1.0 5.0 1 56 113 0 55
+ 5.6952 5 1 sctp 48 -------S 0 5.0 1.0 1 56 118 65535 65535
- 5.6952 5 1 sctp 48 -------S 0 5.0 1.0 1 56 118 65535 65535
r 5.695904 5 1 sctp 48 -------S 0 5.0 1.0 1 52 115 65535 65535
+ 5.695904 1 5 sctp 1500 -------D 0 1.0 5.0 1 58 119 0 57
- 5.695904 1 5 sctp 1500 -------D 0 1.0 5.0 1 58 119 0 57
+ 5.695904 1 5 sctp 1500 -------D 0 1.0 5.0 1 59 120 0 58
+ 5.695904 1 5 sctp 1500 -------D 0 1.0 5.0 1 60 121 0 59
- 5.719904 1 5 sctp 1500 -------D 0 1.0 5.0 1 59 120 0 58
- 5.743904 1 5 sctp 1500 -------D 0 1.0 5.0 1 60 121 0 59
r 5.847968 5 1 sctp 48 -------S 0 5.0 1.0 1 54 116 65535 65535
+ 5.847968 1 5 sctp 1500 -------D 0 1.0 5.0 1 61 122 0 60
- 5.847968 1 5 sctp 1500 -------D 0 1.0 5.0 1 61 122 0 60
+ 5.847968 1 5 sctp 1500 -------D 0 1.0 5.0 1 62 123 0 61
- 5.871968 1 5 sctp 1500 -------D 0 1.0 5.0 1 62 123 0 61
r 5.8952 1 5 sctp 1500 -------D 0 1.0 5.0 1 57 117 0 56
r 5.895968 5 1 sctp 48 -------S 0 5.0 1.0 1 56 118 65535 65535
+ 5.895968 1 5 sctp 1500 -------D 0 1.0 5.0 1 63 124 0 62
+ 5.895968 1 5 sctp 1500 -------D 0 1.0 5.0 1 64 125 0 63
- 5.895968 1 5 sctp 1500 -------D 0 1.0 5.0 1 63 124 0 62
r 5.919904 1 5 sctp 1500 -------D 0 1.0 5.0 1 58 119 0 57
+ 5.919904 5 1 sctp 48 -------S 0 5.0 1.0 1 58 126 65535 65535
- 5.919904 5 1 sctp 48 -------S 0 5.0 1.0 1 58 126 65535 65535
- 5.919968 1 5 sctp 1500 -------D 0 1.0 5.0 1 64 125 0 63
r 5.943904 1 5 sctp 1500 -------D 0 1.0 5.0 1 59 120 0 58
r 5.967904 1 5 sctp 1500 -------D 0 1.0 5.0 1 60 121 0 59
+ 5.967904 5 1 sctp 48 -------S 0 5.0 1.0 1 60 127 65535 65535
- 5.967904 5 1 sctp 48 -------S 0 5.0 1.0 1 60 127 65535 65535
r 6.071968 1 5 sctp 1500 -------D 0 1.0 5.0 1 61 122 0 60
r 6.095968 1 5 sctp 1500 -------D 0 1.0 5.0 1 62 123 0 61
+ 6.095968 5 1 sctp 48 -------S 0 5.0 1.0 1 62 128 65535 65535
- 6.095968 5 1 sctp 48 -------S 0 5.0 1.0 1 62 128 65535 65535
r 6.119968 1 5 sctp 1500 -------D 0 1.0 5.0 1 63 124 0 62
r 6.120672 5 1 sctp 48 -------S 0 5.0 1.0 1 58 126 65535 65535
+ 6.120672 1 5 sctp 1500 -------D 0 1.0 5.0 1 65 129 0 64
- 6.120672 1 5 sctp 1500 -------D 0 1.0 5.0 1 65 129 0 64
+ 6.120672 1 5 sctp 1500 -------D 0 1.0 5.0 1 66 130 0 65
r 6.143968 1 5 sctp 1500 -------D 0 1.0 5.0 1 64 125 0 63
+ 6.143968 5 1 sctp 48 -------S 0 5.0 1.0 1 64 131 65535 65535
- 6.143968 5 1 sctp 48 -------S 0 5.0 1.0 1 64 131 65535 65535
- 6.144672 1 5 sctp 1500 -------D 0 1.0 5.0 1 66 130 0 65
r 6.168672 5 1 sctp 48 -------S 0 5.0 1.0 1 60 127 65535 65535
+ 6.168672 1 5 sctp 1500 -------D 0 1.0 5.0 1 67 132 0 66
+ 6.168672 1 5 sctp 1500 -------D 0 1.0 5.0 1 68 133 0 67
+ 6.168672 1 5 sctp 1500 -------D 0 1.0 5.0 1 69 134 0 68
- 6.168672 1 5 sctp 1500 -------D 0 1.0 5.0 1 67 132 0 66
- 6.192672 1 5 sctp 1500 -------D 0 1.0 5.0 1 68 133 0 67
- 6.216672 1 5 sctp 1500 -------D 0 1.0 5.0 1 69 134 0 68
r 6.296736 5 1 sctp 48 -------S 0 5.0 1.0 1 62 128 65535 65535
+ 6.296736 1 5 sctp 1500 -------D 0 1.0 5.0 1 70 135 0 69
- 6.296736 1 5 sctp 1500 -------D 0 1.0 5.0 1 70 135 0 69
+ 6.296736 1 5 sctp 1500 -------D 0 1.0 5.0 1 71 136 0 70
- 6.320736 1 5 sctp 1500 -------D 0 1.0 5.0 1 71 136 0 70
r 6.344672 1 5 sctp 1500 -------D 0 1.0 5.0 1 65 129 0 64
r 6.344736 5 1 sctp 48 -------S 0 5.0 1.0 1 64 131 65535 65535
+ 6.344736 1 5 sctp 1500 -------D 0 1.0 5.0 1 72 137 0 71
+ 6.344736 1 5 sctp 1500 -------D 0 1.0 5.0 1 73 138 0 72
- 6.344736 1 5 sctp 1500 -------D 0 1.0 5.0 1 72 137 0 71
r 6.368672 1 5 sctp 1500 -------D 0 1.0 5.0 1 66 130 0 65
+ 6.368672 5 1 sctp 48 -------S 0 5.0 1.0 1 66 139 65535 65535
- 6.368672 5 1 sctp 48 -------S 0 5.0 1.0 1 66 139 65535 65535
- 6.368736 1 5 sctp 1500 -------D 0 1.0 5.0 1 73 138 0 72
r 6.392672 1 5 sctp 1500 -------D 0 1.0 5.0 1 67 132 0 66
r 6.416672 1 5 sctp 1500 -------D 0 1.0 5.0 1 68 133 0 67
+ 6.416672 5 1 sctp 48 -------S 0 5.0 1.0 1 68 140 65535 65535
- 6.416672 5 1 sctp 48 -------S 0 5.0 1.0 1 68 140 65535 65535
r 6.440672 1 5 sctp 1500 -------D 0 1.0 5.0 1 69 134 0 68
r 6.520736 1 5 sctp 1500 -------D 0 1.0 5.0 1 70 135 0 69
+ 6.520736 5 1 sctp 48 -------S 0 5.0 1.0 1 70 141 65535 65535
- 6.520736 5 1 sctp 48 -------S 0 5.0 1.0 1 70 141 65535 65535
r 6.544736 1 5 sctp 1500 -------D 0 1.0 5.0 1 71 136 0 70
r 6.568736 1 5 sctp 1500 -------D 0 1.0 5.0 1 72 137 0 71
+ 6.568736 5 1 sctp 48 -------S 0 5.0 1.0 1 72 142 65535 65535
- 6.568736 5 1 sctp 48 -------S 0 5.0 1.0 1 72 142 65535 65535
r 6.56944 5 1 sctp 48 -------S 0 5.0 1.0 1 66 139 65535 65535
+ 6.56944 1 5 sctp 1500 -------D 0 1.0 5.0 1 74 143 0 73
- 6.56944 1 5 sctp 1500 -------D 0 1.0 5.0 1 74 143 0 73
+ 6.56944 1 5 sctp 1500 -------D 0 1.0 5.0 1 75 144 0 74
r 6.592736 1 5 sctp 1500 -------D 0 1.0 5.0 1 73 138 0 72
- 6.59344 1 5 sctp 1500 -------D 0 1.0 5.0 1 75 144 0 74
r 6.61744 5 1 sctp 48 -------S 0 5.0 1.0 1 68 140 65535 65535
+ 6.61744 1 5 sctp 1500 -------D 0 1.0 5.0 1 76 145 0 75
+ 6.61744 1 5 sctp 1500 -------D 0 1.0 5.0 1 77 146 0 76
+ 6.61744 1 5 sctp 1500 -------D 0 1.0 5.0 1 78 147 0 77
- 6.61744 1 5 sctp 1500 -------D 0 1.0 5.0 1 76 145 0 75
- 6.64144 1 5 sctp 1500 -------D 0 1.0 5.0 1 77 146 0 76
- 6.66544 1 5 sctp 1500 -------D 0 1.0 5.0 1 78 147 0 77
r 6.721504 5 1 sctp 48 -------S 0 5.0 1.0 1 70 141 65535 65535
+ 6.721504 1 5 sctp 1500 -------D 0 1.0 5.0 1 79 148 0 78
- 6.721504 1 5 sctp 1500 -------D 0 1.0 5.0 1 79 148 0 78
+ 6.721504 1 5 sctp 1500 -------D 0 1.0 5.0 1 80 149 0 79
- 6.745504 1 5 sctp 1500 -------D 0 1.0 5.0 1 80 149 0 79
r 6.769504 5 1 sctp 48 -------S 0 5.0 1.0 1 72 142 65535 65535
+ 6.769504 1 5 sctp 1500 -------D 0 1.0 5.0 1 81 150 0 80
+ 6.769504 1 5 sctp 1500 -------D 0 1.0 5.0 1 82 151 0 81
- 6.769504 1 5 sctp 1500 -------D 0 1.0 5.0 1 81 150 0 80
+ 6.792736 5 1 sctp 48 -------S 0 5.0 1.0 1 73 152 65535 65535
- 6.792736 5 1 sctp 48 -------S 0 5.0 1.0 1 73 152 65535 65535
r 6.79344 1 5 sctp 1500 -------D 0 1.0 5.0 1 74 143 0 73
- 6.793504 1 5 sctp 1500 -------D 0 1.0 5.0 1 82 151 0 81
r 6.81744 1 5 sctp 1500 -------D 0 1.0 5.0 1 75 144 0 74
+ 6.81744 5 1 sctp 48 -------S 0 5.0 1.0 1 75 153 65535 65535
- 6.81744 5 1 sctp 48 -------S 0 5.0 1.0 1 75 153 65535 65535
r 6.84144 1 5 sctp 1500 -------D 0 1.0 5.0 1 76 145 0 75
r 6.86544 1 5 sctp 1500 -------D 0 1.0 5.0 1 77 146 0 76
+ 6.86544 5 1 sctp 48 -------S 0 5.0 1.0 1 77 154 65535 65535
- 6.86544 5 1 sctp 48 -------S 0 5.0 1.0 1 77 154 65535 65535
r 6.88944 1 5 sctp 1500 -------D 0 1.0 5.0 1 78 147 0 77
r 6.945504 1 5 sctp 1500 -------D 0 1.0 5.0 1 79 148 0 78
+ 6.945504 5 1 sctp 48 -------S 0 5.0 1.0 1 79 155 65535 65535
- 6.945504 5 1 sctp 48 -------S 0 5.0 1.0 1 79 155 65535 65535
r 6.969504 1 5 sctp 1500 -------D 0 1.0 5.0 1 80 149 0 79
r 6.993504 1 5 sctp 1500 -------D 0 1.0 5.0 1 81 150 0 80
+ 6.993504 5 1 sctp 48 -------S 0 5.0 1.0 1 81 156 65535 65535
- 6.993504 5 1 sctp 48 -------S 0 5.0 1.0 1 81 156 65535 65535
r 6.993504 5 1 sctp 48 -------S 0 5.0 1.0 1 73 152 65535 65535
+ 6.993504 1 5 sctp 1500 -------D 0 1.0 5.0 1 83 157 0 82
- 6.993504 1 5 sctp 1500 -------D 0 1.0 5.0 1 83 157 0 82
r 7.017504 1 5 sctp 1500 -------D 0 1.0 5.0 1 82 151 0 81
r 7.018208 5 1 sctp 48 -------S 0 5.0 1.0 1 75 153 65535 65535
+ 7.018208 1 5 sctp 1500 -------D 0 1.0 5.0 1 84 158 0 83
- 7.018208 1 5 sctp 1500 -------D 0 1.0 5.0 1 84 158 0 83
+ 7.018208 1 5 sctp 1500 -------D 0 1.0 5.0 1 85 159 0 84
- 7.042208 1 5 sctp 1500 -------D 0 1.0 5.0 1 85 159 0 84
r 7.066208 5 1 sctp 48 -------S 0 5.0 1.0 1 77 154 65535 65535
+ 7.066208 1 5 sctp 1500 -------D 0 1.0 5.0 1 86 160 0 85
+ 7.066208 1 5 sctp 1500 -------D 0 1.0 5.0 1 87 161 0 86
+ 7.066208 1 5 sctp 1500 -------D 0 1.0 5.0 1 88 162 0 87
- 7.066208 1 5 sctp 1500 -------D 0 1.0 5.0 1 86 160 0 85
- 7.090208 1 5 sctp 1500 -------D 0 1.0 5.0 1 87 161 0 86
- 7.114208 1 5 sctp 1500 -------D 0 1.0 5.0 1 88 162 0 87
r 7.146272 5 1 sctp 48 -------S 0 5.0 1.0 1 79 155 65535 65535
+ 7.146272 1 5 sctp 1500 -------D 0 1.0 5.0 1 89 163 0 88
- 7.146272 1 5 sctp 1500 -------D 0 1.0 5.0 1 89 163 0 88
+ 7.146272 1 5 sctp 1500 -------D 0 1.0 5.0 1 90 164 0 89
- 7.170272 1 5 sctp 1500 -------D 0 1.0 5.0 1 90 164 0 89
r 7.194272 5 1 sctp 48 -------S 0 5.0 1.0 1 81 156 65535 65535
+ 7.194272 1 5 sctp 1500 -------D 0 1.0 5.0 1 91 165 0 90
+ 7.194272 1 5 sctp 1500 -------D 0 1.0 5.0 1 92 166 0 91
- 7.194272 1 5 sctp 1500 -------D 0 1.0 5.0 1 91 165 0 90
r 7.217504 1 5 sctp 1500 -------D 0 1.0 5.0 1 83 157 0 82
+ 7.217504 5 1 sctp 48 -------S 0 5.0 1.0 1 83 167 65535 65535
- 7.217504 5 1 sctp 48 -------S 0 5.0 1.0 1 83 167 65535 65535
- 7.218272 1 5 sctp 1500 -------D 0 1.0 5.0 1 92 166 0 91
r 7.242208 1 5 sctp 1500 -------D 0 1.0 5.0 1 84 158 0 83
r 7.266208 1 5 sctp 1500 -------D 0 1.0 5.0 1 85 159 0 84
+ 7.266208 5 1 sctp 48 -------S 0 5.0 1.0 1 85 168 65535 65535
- 7.266208 5 1 sctp 48 -------S 0 5.0 1.0 1 85 168 65535 65535
r 7.290208 1 5 sctp 1500 -------D 0 1.0 5.0 1 86 160 0 85
r 7.314208 1 5 sctp 1500 -------D 0 1.0 5.0 1 87 161 0 86
+ 7.314208 5 1 sctp 48 -------S 0 5.0 1.0 1 87 169 65535 65535
- 7.314208 5 1 sctp 48 -------S 0 5.0 1.0 1 87 169 65535 65535
r 7.338208 1 5 sctp 1500 -------D 0 1.0 5.0 1 88 162 0 87
r 7.370272 1 5 sctp 1500 -------D 0 1.0 5.0 1 89 163 0 88
+ 7.370272 5 1 sctp 48 -------S 0 5.0 1.0 1 89 170 65535 65535
- 7.370272 5 1 sctp 48 -------S 0 5.0 1.0 1 89 170 65535 65535
r 7.394272 1 5 sctp 1500 -------D 0 1.0 5.0 1 90 164 0 89
r 7.418272 1 5 sctp 1500 -------D 0 1.0 5.0 1 91 165 0 90
+ 7.418272 5 1 sctp 48 -------S 0 5.0 1.0 1 91 171 65535 65535
- 7.418272 5 1 sctp 48 -------S 0 5.0 1.0 1 91 171 65535 65535
r 7.418272 5 1 sctp 48 -------S 0 5.0 1.0 1 83 167 65535 65535
+ 7.418272 1 5 sctp 1500 -------D 0 1.0 5.0 1 93 172 0 92
- 7.418272 1 5 sctp 1500 -------D 0 1.0 5.0 1 93 172 0 92
+ 7.418272 1 5 sctp 1500 -------D 0 1.0 5.0 1 94 173 0 93
r 7.442272 1 5 sctp 1500 -------D 0 1.0 5.0 1 92 166 0 91
- 7.442272 1 5 sctp 1500 -------D 0 1.0 5.0 1 94 173 0 93
r 7.466976 5 1 sctp 48 -------S 0 5.0 1.0 1 85 168 65535 65535
+ 7.466976 1 5 sctp 1500 -------D 0 1.0 5.0 1 95 174 0 94
- 7.466976 1 5 sctp 1500 -------D 0 1.0 5.0 1 95 174 0 94
+ 7.466976 1 5 sctp 1500 -------D 0 1.0 5.0 1 96 175 0 95
- 7.490976 1 5 sctp 1500 -------D 0 1.0 5.0 1 96 175 0 95
r 7.514976 5 1 sctp 48 -------S 0 5.0 1.0 1 87 169 65535 65535
+ 7.514976 1 5 sctp 1500 -------D 0 1.0 5.0 1 97 176 0 96
+ 7.514976 1 5 sctp 1500 -------D 0 1.0 5.0 1 98 177 0 97
- 7.514976 1 5 sctp 1500 -------D 0 1.0 5.0 1 97 176 0 96
- 7.538976 1 5 sctp 1500 -------D 0 1.0 5.0 1 98 177 0 97
r 7.57104 5 1 sctp 48 -------S 0 5.0 1.0 1 89 170 65535 65535
+ 7.57104 1 5 sctp 1500 -------D 0 1.0 5.0 1 99 178 0 98
- 7.57104 1 5 sctp 1500 -------D 0 1.0 5.0 1 99 178 0 98