+ 0 1 4 sctp 56 -------I 0 1.0 4.0 1 -1 4 65535 65535
- 0 1 4 sctp 56 -------I 0 1.0 4.0 1 -1 4 65535 65535
r 0.045045 1 4 sctp 56 -------I 0 1.0 4.0 1 -1 4 65535 65535
+ 0.045045 4 1 sctp 56 -------I 0 4.0 1.0 1 -1 5 65535 65535
- 0.045045 4 1 sctp 56 -------I 0 4.0 1.0 1 -1 5 65535 65535
r 0.09009 4 1 sctp 56 -------I 0 4.0 1.0 1 -1 5 65535 65535
+ 0.09009 1 4 sctp 36 -------I 0 1.0 4.0 1 -1 6 65535 65535
- 0.09009 1 4 sctp 36 -------I 0 1.0 4.0 1 -1 6 65535 65535
r 0.135118 1 4 sctp 36 -------I 0 1.0 4.0 1 -1 6 65535 65535
+ 0.135118 4 1 sctp 36 -------I 0 4.0 1.0 1 -1 7 65535 65535
- 0.135118 4 1 sctp 36 -------I 0 4.0 1.0 1 -1 7 65535 65535
r 0.180147 4 1 sctp 36 -------I 0 4.0 1.0 1 -1 7 65535 65535
d 0.180147 1 4 sctp 56 -------H 0 1.0 4.0 1 -1 8 65535 65535
+ 0.180147 2 5 sctp 56 -------H 0 2.0 5.0 1 -1 9 65535 65535
- 0.180147 2 5 sctp 56 -------H 0 2.0 5.0 1 -1 9 65535 65535
r 0.225192 2 5 sctp 56 -------H 0 2.0 5.0 1 -1 9 65535 65535
+ 0.225192 5 2 sctp 56 -------B 0 5.0 2.0 1 -1 10 65535 65535
- 0.225192 5 2 sctp 56 -------B 0 5.0 2.0 1 -1 10 65535 65535
r 0.270237 5 2 sctp 56 -------B 0 5.0 2.0 1 -1 10 65535 65535
d 3.180147 1 4 sctp 56 -------H 0 1.0 4.0 1 -1 11 65535 65535
+ 9.180147 1 4 sctp 56 -------H 0 1.0 4.0 1 -1 12 65535 65535
- 9.180147 1 4 sctp 56 -------H 0 1.0 4.0 1 -1 12 65535 65535
r 9.225192 1 4 sctp 56 -------H 0 1.0 4.0 1 -1 12 65535 65535
+ 9.225192 4 1 sctp 56 -------B 0 4.0 1.0 1 -1 13 65535 65535
- 9.225192 4 1 sctp 56 -------B 0 4.0 1.0 1 -1 13 65535 65535
r 9.270237 4 1 sctp 56 -------B 0 4.0 1.0 1 -1 13 65535 65535
+ 9.270237 1 4 sctp 1500 -------D 0 1.0 4.0 1 1 14 0 0
- 9.270237 1 4 sctp 1500 -------D 0 1.0 4.0 1 1 14 0 0
+ 9.270237 1 4 sctp 1500 -------D 0 1.0 4.0 1 2 15 0 1
+ 9.270237 1 4 sctp 1500 -------D 0 1.0 4.0 1 3 16 0 2
+ 9.270237 2 5 sctp 1500 -------D 0 2.0 5.0 1 4 17 0 3
- 9.270237 2 5 sctp 1500 -------D 0 2.0 5.0 1 4 17 0 3
+ 9.270237 2 5 sctp 1500 -------D 0 2.0 5.0 1 5 18 0 4
+ 9.270237 2 5 sctp 1500 -------D 0 2.0 5.0 1 6 19 0 5
- 9.271437 1 4 sctp 1500 -------D 0 1.0 4.0 1 2 15 0 1
- 9.271437 2 5 sctp 1500 -------D 0 2.0 5.0 1 5 18 0 4
- 9.272637 1 4 sctp 1500 -------D 0 1.0 4.0 1 3 16 0 2
- 9.272637 2 5 sctp 1500 -------D 0 2.0 5.0 1 6 19 0 5
r 9.316437 1 4 sctp 1500 -------D 0 1.0 4.0 1 1 14 0 0
r 9.316437 2 5 sctp 1500 -------D 0 2.0 5.0 1 4 17 0 3
+ 9.316437 5 2 sctp 52 -------S 0 5.0 2.0 1 1 20 65535 65535
- 9.316437 5 2 sctp 52 -------S 0 5.0 2.0 1 1 20 65535 65535
r 9.317637 1 4 sctp 1500 -------D 0 1.0 4.0 1 2 15 0 1
r 9.317637 2 5 sctp 1500 -------D 0 2.0 5.0 1 5 18 0 4
+ 9.317637 5 2 sctp 52 -------S 0 5.0 2.0 1 2 21 65535 65535
- 9.317637 5 2 sctp 52 -------S 0 5.0 2.0 1 2 21 65535 65535
r 9.318837 1 4 sctp 1500 -------D 0 1.0 4.0 1 3 16 0 2
r 9.318837 2 5 sctp 1500 -------D 0 2.0 5.0 1 6 19 0 5
+ 9.318837 5 2 sctp 48 -------S 0 5.0 2.0 1 6 22 65535 65535
- 9.318837 5 2 sctp 48 -------S 0 5.0 2.0 1 6 22 65535 65535
r 9.361478 5 2 sctp 52 -------S 0 5.0 2.0 1 1 20 65535 65535
+ 9.361478 1 4 sctp 1500 -------D 0 1.0 4.0 1 7 23 0 6
- 9.361478 1 4 sctp 1500 -------D 0 1.0 4.0 1 7 23 0 6
+ 9.361478 1 4 sctp 1500 -------D 0 1.0 4.0 1 8 24 0 7
+ 9.361478 2 5 sctp 1500 -------D 0 2.0 5.0 1 9 25 0 8
- 9.361478 2 5 sctp 1500 -------D 0 2.0 5.0 1 9 25 0 8
+ 9.361478 2 5 sctp 1500 -------D 0 2.0 5.0 1 10 26 0 9
r 9.362678 5 2 sctp 52 -------S 0 5.0 2.0 1 2 21 65535 65535
+ 9.362678 1 4 sctp 1500 -------D 0 1.0 4.0 1 11 27 0 10
+ 9.362678 1 4 sctp 1500 -------D 0 1.0 4.0 1 12 28 0 11
+ 9.362678 2 5 sctp 1500 -------D 0 2.0 5.0 1 13 29 0 12
+ 9.362678 2 5 sctp 1500 -------D 0 2.0 5.0 1 14 30 0 13
- 9.362678 1 4 sctp 1500 -------D 0 1.0 4.0 1 8 24 0 7
- 9.362678 2 5 sctp 1500 -------D 0 2.0 5.0 1 10 26 0 9
r 9.363875 5 2 sctp 48 -------S 0 5.0 2.0 1 6 22 65535 65535
+ 9.363875 1 4 sctp 1500 -------D 0 1.0 4.0 1 15 31 0 14
+ 9.363875 1 4 sctp 1500 -------D 0 1.0 4.0 1 16 32 0 15
+ 9.363875 2 5 sctp 1500 -------D 0 2.0 5.0 1 17 33 0 16
+ 9.363875 2 5 sctp 1500 -------D 0 2.0 5.0 1 18 34 0 17
- 9.363878 1 4 sctp 1500 -------D 0 1.0 4.0 1 11 27 0 10
- 9.363878 2 5 sctp 1500 -------D 0 2.0 5.0 1 13 29 0 12
- 9.365078 1 4 sctp 1500 -------D 0 1.0 4.0 1 12 28 0 11
- 9.365078 2 5 sctp 1500 -------D 0 2.0 5.0 1 14 30 0 13
- 9.366278 1 4 sctp 1500 -------D 0 1.0 4.0 1 15 31 0 14
- 9.366278 2 5 sctp 1500 -------D 0 2.0 5.0 1 17 33 0 16
- 9.367478 1 4 sctp 1500 -------D 0 1.0 4.0 1 16 32 0 15
- 9.367478 2 5 sctp 1500 -------D 0 2.0 5.0 1 18 34 0 17
r 9.407678 1 4 sctp 1500 -------D 0 1.0 4.0 1 7 23 0 6
r 9.407678 2 5 sctp 1500 -------D 0 2.0 5.0 1 9 25 0 8
+ 9.407678 5 2 sctp 52 -------S 0 5.0 2.0 1 7 35 65535 65535
- 9.407678 5 2 sctp 52 -------S 0 5.0 2.0 1 7 35 65535 65535
r 9.408878 1 4 sctp 1500 -------D 0 1.0 4.0 1 8 24 0 7
r 9.408878 2 5 sctp 1500 -------D 0 2.0 5.0 1 10 26 0 9
+ 9.408878 5 2 sctp 48 -------S 0 5.0 2.0 1 10 36 65535 65535
- 9.408878 5 2 sctp 48 -------S 0 5.0 2.0 1 10 36 65535 65535
r 9.410078 1 4 sctp 1500 -------D 0 1.0 4.0 1 11 27 0 10
r 9.410078 2 5 sctp 1500 -------D 0 2.0 5.0 1 13 29 0 12
+ 9.410078 5 2 sctp 52 -------S 0 5.0 2.0 1 11 37 65535 65535
- 9.410078 5 2 sctp 52 -------S 0 5.0 2.0 1 11 37 65535 65535
r 9.411278 1 4 sctp 1500 -------D 0 1.0 4.0 1 12 28 0 11
r 9.411278 2 5 sctp 1500 -------D 0 2.0 5.0 1 14 30 0 13
+ 9.411278 5 2 sctp 48 -------S 0 5.0 2.0 1 14 38 65535 65535
- 9.411278 5 2 sctp 48 -------S 0 5.0 2.0 1 14 38 65535 65535
r 9.412478 1 4 sctp 1500 -------D 0 1.0 4.0 1 15 31 0 14
r 9.412478 2 5 sctp 1500 -------D 0 2.0 5.0 1 17 33 0 16
+ 9.412478 5 2 sctp 52 -------S 0 5.0 2.0 1 15 39 65535 65535
- 9.412478 5 2 sctp 52 -------S 0 5.0 2.0 1 15 39 65535 65535
r 9.413678 1 4 sctp 1500 -------D 0 1.0 4.0 1 16 32 0 15
r 9.413678 2 5 sctp 1500 -------D 0 2.0 5.0 1 18 34 0 17
+ 9.413678 5 2 sctp 48 -------S 0 5.0 2.0 1 18 40 65535 65535
- 9.413678 5 2 sctp 48 -------S 0 5.0 2.0 1 18 40 65535 65535
r 9.45272 5 2 sctp 52 -------S 0 5.0 2.0 1 7 35 65535 65535
+ 9.45272 1 4 sctp 1500 -------D 0 1.0 4.0 1 19 41 0 18
- 9.45272 1 4 sctp 1500 -------D 0 1.0 4.0 1 19 41 0 18
+ 9.45272 1 4 sctp 1500 -------D 0 1.0 4.0 1 20 42 0 19
+ 9.45272 2 5 sctp 1500 -------D 0 2.0 5.0 1 21 43 0 20
- 9.45272 2 5 sctp 1500 -------D 0 2.0 5.0 1 21 43 0 20
+ 9.45272 2 5 sctp 1500 -------D 0 2.0 5.0 1 22 44 0 21
r 9.453917 5 2 sctp 48 -------S 0 5.0 2.0 1 10 36 65535 65535
+ 9.453917 1 4 sctp 1500 -------D 0 1.0 4.0 1 23 45 0 22
+ 9.453917 1 4 sctp 1500 -------D 0 1.0 4.0 1 24 46 0 23
+ 9.453917 2 5 sctp 1500 -------D 0 2.0 5.0 1 25 47 0 24
+ 9.453917 2 5 sctp 1500 -------D 0 2.0 5.0 1 26 48 0 25
- 9.45392 1 4 sctp 1500 -------D 0 1.0 4.0 1 20 42 0 19
- 9.45392 2 5 sctp 1500 -------D 0 2.0 5.0 1 22 44 0 21
r 9.45512 5 2 sctp 52 -------S 0 5.0 2.0 1 11 37 65535 65535
+ 9.45512 1 4 sctp 1500 -------D 0 1.0 4.0 1 27 49 0 26
+ 9.45512 1 4 sctp 1500 -------D 0 1.0 4.0 1 28 50 0 27
+ 9.45512 2 5 sctp 1500 -------D 0 2.0 5.0 1 29 51 0 28
+ 9.45512 2 5 sctp 1500 -------D 0 2.0 5.0 1 30 52 0 29
- 9.45512 1 4 sctp 1500 -------D 0 1.0 4.0 1 23 45 0 22
- 9.45512 2 5 sctp 1500 -------D 0 2.0 5.0 1 25 47 0 24
r 9.456317 5 2 sctp 48 -------S 0 5.0 2.0 1 14 38 65535 65535
+ 9.456317 1 4 sctp 1500 -------D 0 1.0 4.0 1 31 53 0 30
+ 9.456317 1 4 sctp 1500 -------D 0 1.0 4.0 1 32 54 0 31
+ 9.456317 2 5 sctp 1500 -------D 0 2.0 5.0 1 33 55 0 32
+ 9.456317 2 5 sctp 1500 -------D 0 2.0 5.0 1 34 56 0 33
- 9.45632 1 4 sctp 1500 -------D 0 1.0 4.0 1 24 46 0 23
- 9.45632 2 5 sctp 1500 -------D 0 2.0 5.0 1 26 48 0 25
r 9.45752 5 2 sctp 52 -------S 0 5.0 2.0 1 15 39 65535 65535
+ 9.45752 1 4 sctp 1500 -------D 0 1.0 4.0 1 35 57 0 34
+ 9.45752 1 4 sctp 1500 -------D 0 1.0 4.0 1 36 58 0 35
+ 9.45752 2 5 sctp 1500 -------D 0 2.0 5.0 1 37 59 0 36
+ 9.45752 2 5 sctp 1500 -------D 0 2.0 5.0 1 38 60 0 37
- 9.45752 1 4 sctp 1500 -------D 0 1.0 4.0 1 27 49 0 26
- 9.45752 2 5 sctp 1500 -------D 0 2.0 5.0 1 29 51 0 28
r 9.458717 5 2 sctp 48 -------S 0 5.0 2.0 1 18 40 65535 65535
+ 9.458717 1 4 sctp 1500 -------D 0 1.0 4.0 1 39 61 0 38
+ 9.458717 2 5 sctp 1500 -------D 0 2.0 5.0 1 40 62 0 39
- 9.45872 1 4 sctp 1500 -------D 0 1.0 4.0 1 28 50 0 27
- 9.45872 2 5 sctp 1500 -------D 0 2.0 5.0 1 30 52 0 29
- 9.45992 1 4 sctp 1500 -------D 0 1.0 4.0 1 31 53 0 30
- 9.45992 2 5 sctp 1500 -------D 0 2.0 5.0 1 33 55 0 32
- 9.46112 1 4 sctp 1500 -------D 0 1.0 4.0 1 32 54 0 31
- 9.46112 2 5 sctp 1500 -------D 0 2.0 5.0 1 34 56 0 33
- 9.46232 1 4 sctp 1500 -------D 0 1.0 4.0 1 35 57 0 34
- 9.46232 2 5 sctp 1500 -------D 0 2.0 5.0 1 37 59 0 36
- 9.46352 1 4 sctp 1500 -------D 0 1.0 4.0 1 36 58 0 35
- 9.46352 2 5 sctp 1500 -------D 0 2.0 5.0 1 38 60 0 37
- 9.46472 1 4 sctp 1500 -------D 0 1.0 4.0 1 39 61 0 38
- 9.46472 2 5 sctp 1500 -------D 0 2.0 5.0 1 40 62 0 39
r 9.49892 1 4 sctp 1500 -------D 0 1.0 4.0 1 19 41 0 18
r 9.49892 2 5 sctp 1500 -------D 0 2.0 5.0 1 21 43 0 20
+ 9.49892 5 2 sctp 52 -------S 0 5.0 2.0 1 19 63 65535 65535
- 9.49892 5 2 sctp 52 -------S 0 5.0 2.0 1 19 63 65535 65535
r 9.50012 1 4 sctp 1500 -------D 0 1.0 4.0 1 20 42 0 19
r 9.50012 2 5 sctp 1500 -------D 0 2.0 5.0 1 22 44 0 21
+ 9.50012 5 2 sctp 48 -------S 0 5.0 2.0 1 22 64 65535 65535
- 9.50012 5 2 sctp 48 -------S 0 5.0 2.0 1 22 64 65535 65535
r 9.50132 1 4 sctp 1500 -------D 0 1.0 4.0 1 23 45 0 22
r 9.50132 2 5 sctp 1500 -------D 0 2.0 5.0 1 25 47 0 24
+ 9.50132 5 2 sctp 52 -------S 0 5.0 2.0 1 23 65 65535 65535
- 9.50132 5 2 sctp 52 -------S 0 5.0 2.0 1 23 65 65535 65535
r 9.50252 1 4 sctp 1500 -------D 0 1.0 4.0 1 24 46 0 23
r 9.50252 2 5 sctp 1500 -------D 0 2.0 5.0 1 26 48 0 25
+ 9.50252 5 2 sctp 48 -------S 0 5.0 2.0 1 26 66 65535 65535
- 9.50252 5 2 sctp 48 -------S 0 5.0 2.0 1 26 66 65535 65535
r 9.50372 1 4 sctp 1500 -------D 0 1.0 4.0 1 27 49 0 26
r 9.50372 2 5 sctp 1500 -------D 0 2.0 5.0 1 29 51 0 28
+ 9.50372 5 2 sctp 52 -------S 0 5.0 2.0 1 27 67 65535 65535
- 9.50372 5 2 sctp 52 -------S 0 5.0 2.0 1 27 67 65535 65535
r 9.50492 1 4 sctp 1500 -------D 0 1.0 4.0 1 28 50 0 27
r 9.50492 2 5 sctp 1500 -------D 0 2.0 5.0 1 30 52 0 29
+ 9.50492 5 2 sctp 48 -------S 0 5.0 2.0 1 30 68 65535 65535
- 9.50492 5 2 sctp 48 -------S 0 5.0 2.0 1 30 68 65535 65535
r 9.50612 1 4 sctp 1500 -------D 0 1.0 4.0 1 31 53 0 30
r 9.50612 2 5 sctp 1500 -------D 0 2.0 5.0 1 33 55 0 32
+ 9.50612 5 2 sctp 52 -------S 0 5.0 2.0 1 31 69 65535 65535
- 9.50612 5 2 sctp 52 -------S 0 5.0 2.0 1 31 69 65535 65535
r 9.50732 1 4 sctp 1500 -------D 0 1.0 4.0 1 32 54 0 31
r 9.50732 2 5 sctp 1500 -------D 0 2.0 5.0 1 34 56 0 33
+ 9.50732 5 2 sctp 48 -------S 0 5.0 2.0 1 34 70 65535 65535
- 9.50732 5 2 sctp 48 -------S 0 5.0 2.0 1 34 70 65535 65535
r 9.50852 1 4 sctp 1500 -------D 0 1.0 4.0 1 35 57 0 34
r 9.50852 2 5 sctp 1500 -------D 0 2.0 5.0 1 37 59 0 36
+ 9.50852 5 2 sctp 52 -------S 0 5.0 2.0 1 35 71 65535 65535
- 9.50852 5 2 sctp 52 -------S 0 5.0 2.0 1 35 71 65535 65535
r 9.50972 1 4 sctp 1500 -------D 0 1.0 4.0 1 36 58 0 35
r 9.50972 2 5 sctp 1500 -------D 0 2.0 5.0 1 38 60 0 37
+ 9.50972 5 2 sctp 48 -------S 0 5.0 2.0 1 38 72 65535 65535
- 9.50972 5 2 sctp 48 -------S 0 5.0 2.0 1 38 72 65535 65535
r 9.51092 1 4 sctp 1500 -------D 0 1.0 4.0 1 39 61 0 38
r 9.51092 2 5 sctp 1500 -------D 0 2.0 5.0 1 40 62 0 39
+ 9.51092 5 2 sctp 48 -------S 0 5.0 2.0 1 40 73 65535 65535
- 9.51092 5 2 sctp 48 -------S 0 5.0 2.0 1 40 73 65535 65535
r 9.543962 5 2 sctp 52 -------S 0 5.0 2.0 1 19 63 65535 65535
+ 9.543962 1 4 sctp 1500 -------D 0 1.0 4.0 1 41 74 0 40
- 9.543962 1 4 sctp 1500 -------D 0 1.0 4.0 1 41 74 0 40
+ 9.543962 2 5 sctp 1500 -------D 0 2.0 5.0 1 42 75 0 41
- 9.543962 2 5 sctp 1500 -------D 0 2.0 5.0 1 42 75 0 41
r 9.545158 5 2 sctp 48 -------S 0 5.0 2.0 1 22 64 65535 65535
+ 9.545158 1 4 sctp 1500 -------D 0 1.0 4.0 1 43 76 0 42
+ 9.545158 2 5 sctp 1500 -------D 0 2.0 5.0 1 44 77 0 43
- 9.545162 1 4 sctp 1500 -------D 0 1.0 4.0 1 43 76 0 42
- 9.545162 2 5 sctp 1500 -------D 0 2.0 5.0 1 44 77 0 43
r 9.546362 5 2 sctp 52 -------S 0 5.0 2.0 1 23 65 65535 65535
+ 9.546362 1 4 sctp 1500 -------D 0 1.0 4.0 1 45 78 0 44
+ 9.546362 2 5 sctp 1500 -------D 0 2.0 5.0 1 46 79 0 45
- 9.546362 1 4 sctp 1500 -------D 0 1.0 4.0 1 45 78 0 44
- 9.546362 2 5 sctp 1500 -------D 0 2.0 5.0 1 46 79 0 45
r 9.547558 5 2 sctp 48 -------S 0 5.0 2.0 1 26 66 65535 65535
+ 9.547558 1 4 sctp 1500 -------D 0 1.0 4.0 1 47 80 0 46
+ 9.547558 2 5 sctp 1500 -------D 0 2.0 5.0 1 48 81 0 47
- 9.547562 1 4 sctp 1500 -------D 0 1.0 4.0 1 47 80 0 46
- 9.547562 2 5 sctp 1500 -------D 0 2.0 5.0 1 48 81 0 47
r 9.548762 5 2 sctp 52 -------S 0 5.0 2.0 1 27 67 65535 65535
+ 9.548762 1 4 sctp 1500 -------D 0 1.0 4.0 1 49 82 0 48
+ 9.548762 2 5 sctp 1500 -------D 0 2.0 5.0 1 50 83 0 49
- 9.548762 1 4 sctp 1500 -------D 0 1.0 4.0 1 49 82 0 48
- 9.548762 2 5 sctp 1500 -------D 0 2.0 5.0 1 50 83 0 49
r 9.549958 5 2 sctp 48 -------S 0 5.0 2.0 1 30 68 65535 65535
+ 9.549958 1 4 sctp 1500 -------D 0 1.0 4.0 1 51 84 0 50
+ 9.549958 2 5 sctp 1500 -------D 0 2.0 5.0 1 52 85 0 51
- 9.549962 1 4 sctp 1500 -------D 0 1.0 4.0 1 51 84 0 50
- 9.549962 2 5 sctp 1500 -------D 0 2.0 5.0 1 52 85 0 51
r 9.551162 5 2 sctp 52 -------S 0 5.0 2.0 1 31 69 65535 65535
+ 9.551162 1 4 sctp 1500 -------D 0 1.0 4.0 1 53 86 0 52
+ 9.551162 2 5 sctp 1500 -------D 0 2.0 5.0 1 54 87 0 53
- 9.551162 1 4 sctp 1500 -------D 0 1.0 4.0 1 53 86 0 52
- 9.551162 2 5 sctp 1500 -------D 0 2.0 5.0 1 54 87 0 53
r 9.552358 5 2 sctp 48 -------S 0 5.0 2.0 1 34 70 65535 65535
+ 9.552358 1 4 sctp 1500 -------D 0 1.0 4.0 1 55 88 0 54
+ 9.552358 2 5 sctp 1500 -------D 0 2.0 5.0 1 56 89 0 55
- 9.552362 1 4 sctp 1500 -------D 0 1.0 4.0 1 55 88 0 54
- 9.552362 2 5 sctp 1500 -------D 0 2.0 5.0 1 56 89 0 55
r 9.553562 5 2 sctp 52 -------S 0 5.0 2.0 1 35 71 65535 65535
+ 9.553562 1 4 sctp 1500 -------D 0 1.0 4.0 1 57 90 0 56
+ 9.553562 2 5 sctp 1500 -------D 0 2.0 5.0 1 58 91 0 57
- 9.553562 1 4 sctp 1500 -------D 0 1.0 4.0 1 57 90 0 56
- 9.553562 2 5 sctp 1500 -------D 0 2.0 5.0 1 58 91 0 57
r 9.554758 5 2 sctp 48 -------S 0 5.0 2.0 1 38 72 65535 65535
+ 9.554758 1 4 sctp 1500 -------D 0 1.0 4.0 1 59 92 0 58
+ 9.554758 1 4 sctp 1500 -------D 0 1.0 4.0 1 60 93 0 59
+ 9.554758 2 5 sctp 1500 -------D 0 2.0 5.0 1 61 94 0 60
+ 9.554758 2 5 sctp 1500 -------D 0 2.0 5.0 1 62 95 0 61
- 9.554762 1 4 sctp 1500 -------D 0 1.0 4.0 1 59 92 0 58
- 9.554762 2 5 sctp 1500 -------D 0 2.0 5.0 1 61 94 0 60
r 9.555958 5 2 sctp 48 -------S 0 5.0 2.0 1 40 73 65535 65535
+ 9.555958 1 4 sctp 1500 -------D 0 1.0 4.0 1 63 96 0 62
+ 9.555958 2 5 sctp 1500 -------D 0 2.0 5.0 1 64 97 0 63
- 9.555962 1 4 sctp 1500 -------D 0 1.0 4.0 1 60 93 0 59
- 9.555962 2 5 sctp 1500 -------D 0 2.0 5.0 1 62 95 0 61
- 9.557162 1 4 sctp 1500 -------D 0 1.0 4.0 1 63 96 0 62
- 9.557162 2 5 sctp 1500 -------D 0 2.0 5.0 1 64 97 0 63
r 9.590162 1 4 sctp 1500 -------D 0 1.0 4.0 1 41 74 0 40
r 9.590162 2 5 sctp 1500 -------D 0 2.0 5.0 1 42 75 0 41
+ 9.590162 5 2 sctp 48 -------S 0 5.0 2.0 1 42 98 65535 65535
- 9.590162 5 2 sctp 48 -------S 0 5.0 2.0 1 42 98 65535 65535
r 9.591362 1 4 sctp 1500 -------D 0 1.0 4.0 1 43 76 0 42
r 9.591362 2 5 sctp 1500 -------D 0 2.0 5.0 1 44 77 0 43
+ 9.591362 5 2 sctp 48 -------S 0 5.0 2.0 1 44 99 65535 65535
- 9.591362 5 2 sctp 48 -------S 0 5.0 2.0 1 44 99 65535 65535
r 9.592562 1 4 sctp 1500 -------D 0 1.0 4.0 1 45 78 0 44
r 9.592562 2 5 sctp 1500 -------D 0 2.0 5.0 1 46 79 0 45
+ 9.592562 5 2 sctp 48 -------S 0 5.0 2.0 1 46 100 65535 65535
- 9.592562 5 2 sctp 48 -------S 0 5.0 2.0 1 46 100 65535 65535
r 9.593762 1 4 sctp 1500 -------D 0 1.0 4.0 1 47 80 0 46
r 9.593762 2 5 sctp 1500 -------D 0 2.0 5.0 1 48 81 0 47
+ 9.593762 5 2 sctp 48 -------S 0 5.0 2.0 1 48 101 65535 65535
- 9.593762 5 2 sctp 48 -------S 0 5.0 2.0 1 48 101 65535 65535
r 9.594962 1 4 sctp 1500 -------D 0 1.0 4.0 1 49 82 0 48
r 9.594962 2 5 sctp 1500 -------D 0 2.0 5.0 1 50 83 0 49
+ 9.594962 5 2 sctp 48 -------S 0 5.0 2.0 1 50 102 65535 65535
- 9.594962 5 2 sctp 48 -------S 0 5.0 2.0 1 50 102 65535 65535
r 9.596162 1 4 sctp 1500 -------D 0 1.0 4.0 1 51 84 0 50
r 9.596162 2 5 sctp 1500 -------D 0 2.0 5.0 1 52 85 0 51
+ 9.596162 5 2 sctp 48 -------S 0 5.0 2.0 1 52 103 65535 65535
- 9.596162 5 2 sctp 48 -------S 0 5.0 2.0 1 52 103 65535 65535
r 9.597362 1 4 sctp 1500 -------D 0 1.0 4.0 1 53 86 0 52
r 9.597362 2 5 sctp 1500 -------D 0 2.0 5.0 1 54 87 0 53
+ 9.597362 5 2 sctp 48 -------S 0 5.0 2.0 1 54 104 65535 65535
- 9.597362 5 2 sctp 48 -------S 0 5.0 2.0 1 54 104 65535 65535
r 9.598562 1 4 sctp 1500 -------D 0 1.0 4.0 1 55 88 0 54
r 9.598562 2 5 sctp 1500 -------D 0 2.0 5.0 1 56 89 0 55
+ 9.598562 5 2 sctp 48 -------S 0 5.0 2.0 1 56 105 65535 65535
- 9.598562 5 2 sctp 48 -------S 0 5.0 2.0 1 56 105 65535 65535
r 9.599762 1 4 sctp 1500 -------D 0 1.0 4.0 1 57 90 0 56
r 9.599762 2 5 sctp 1500 -------D 0 2.0 5.0 1 58 91 0 57
+ 9.599762 5 2 sctp 48 -------S 0 5.0 2.0 1 58 106 65535 65535
- 9.599762 5 2 sctp 48 -------S 0 5.0 2.0 1 58 106 65535 65535
r 9.600962 1 4 sctp 1500 -------D 0 1.0 4.0 1 59 92 0 58
r 9.600962 2 5 sctp 1500 -------D 0 2.0 5.0 1 61 94 0 60
+ 9.600962 5 2 sctp 52 -------S 0 5.0 2.0 1 59 107 65535 65535
- 9.600962 5 2 sctp 52 -------S 0 5.0 2.0 1 59 107 65535 65535
r 9.602162 1 4 sctp 1500 -------D 0 1.0 4.0 1 60 93 0 59
r 9.602162 2 5 sctp 1500 -------D 0 2.0 5.0 1 62 95 0 61
+ 9.602162 5 2 sctp 48 -------S 0 5.0 2.0 1 62 108 65535 65535
- 9.602162 5 2 sctp 48 -------S 0 5.0 2.0 1 62 108 65535 65535
r 9.603362 1 4 sctp 1500 -------D 0 1.0 4.0 1 63 96 0 62
r 9.603362 2 5 sctp 1500 -------D 0 2.0 5.0 1 64 97 0 63
+ 9.603362 5 2 sctp 48 -------S 0 5.0 2.0 1 64 109 65535 65535
- 9.603362 5 2 sctp 48 -------S 0 5.0 2.0 1 64 109 65535 65535
r 9.6352 5 2 sctp 48 -------S 0 5.0 2.0 1 42 98 65535 65535
+ 9.6352 1 4 sctp 1500 -------D 0 1.0 4.0 1 65 110 0 64
- 9.6352 1 4 sctp 1500 -------D 0 1.0 4.0 1 65 110 0 64
+ 9.6352 2 5 sctp 1500 -------D 0 2.0 5.0 1 66 111 0 65
- 9.6352 2 5 sctp 1500 -------D 0 2.0 5.0 1 66 111 0 65
r 9.6364 5 2 sctp 48 -------S 0 5.0 2.0 1 44 99 65535 65535
+ 9.6364 1 4 sctp 1500 -------D 0 1.0 4.0 1 67 112 0 66
+ 9.6364 2 5 sctp 1500 -------D 0 2.0 5.0 1 68 113 0 67
- 9.6364 1 4 sctp 1500 -------D 0 1.0 4.0 1 67 112 0 66
- 9.6364 2 5 sctp 1500 -------D 0 2.0 5.0 1 68 113 0 67
r 9.6376 5 2 sctp 48 -------S 0 5.0 2.0 1 46 100 65535 65535
+ 9.6376 1 4 sctp 1500 -------D 0 1.0 4.0 1 69 114 0 68
+ 9.6376 2 5 sctp 1500 -------D 0 2.0 5.0 1 70 115 0 69
- 9.6376 1 4 sctp 1500 -------D 0 1.0 4.0 1 69 114 0 68
- 9.6376 2 5 sctp 1500 -------D 0 2.0 5.0 1 70 115 0 69
r 9.6388 5 2 sctp 48 -------S 0 5.0 2.0 1 48 101 65535 65535
+ 9.6388 1 4 sctp 1500 -------D 0 1.0 4.0 1 71 116 0 70
+ 9.6388 2 5 sctp 1500 -------D 0 2.0 5.0 1 72 117 0 71
- 9.6388 1 4 sctp 1500 -------D 0 1.0 4.0 1 71 116 0 70
- 9.6388 2 5 sctp 1500 -------D 0 2.0 5.0 1 72 117 0 71
r 9.64 5 2 sctp 48 -------S 0 5.0 2.0 1 50 102 65535 65535
+ 9.64 1 4 sctp 1500 -------D 0 1.0 4.0 1 73 118 0 72
+ 9.64 2 5 sctp 1500 -------D 0 2.0 5.0 1 74 119 0 73
- 9.64 1 4 sctp 1500 -------D 0 1.0 4.0 1 73 118 0 72
- 9.64 2 5 sctp 1500 -------D 0 2.0 5.0 1 74 119 0 73
r 9.6412 5 2 sctp 48 -------S 0 5.0 2.0 1 52 103 65535 65535
+ 9.6412 1 4 sctp 1500 -------D 0 1.0 4.0 1 75 120 0 74
+ 9.6412 2 5 sctp 1500 -------D 0 2.0 5.0 1 76 121 0 75
- 9.6412 1 4 sctp 1500 -------D 0 1.0 4.0 1 75 120 0 74
- 9.6412 2 5 sctp 1500 -------D 0 2.0 5.0 1 76 121 0 75
r 9.6424 5 2 sctp 48 -------S 0 5.0 2.0 1 54 104 65535 65535
+ 9.6424 1 4 sctp 1500 -------D 0 1.0 4.0 1 77 122 0 76
+ 9.6424 2 5 sctp 1500 -------D 0 2.0 5.0 1 78 123 0 77
- 9.6424 1 4 sctp 1500 -------D 0 1.0 4.0 1 77 122 0 76
- 9.6424 2 5 sctp 1500 -------D 0 2.0 5.0 1 78 123 0 77
r 9.6436 5 2 sctp 48 -------S 0 5.0 2.0 1 56 105 65535 65535
+ 9.6436 1 4 sctp 1500 -------D 0 1.0 4.0 1 79 124 0 78
+ 9.6436 2 5 sctp 1500 -------D 0 2.0 5.0 1 80 125 0 79
- 9.6436 1 4 sctp 1500 -------D 0 1.0 4.0 1 79 124 0 78
- 9.6436 2 5 sctp 1500 -------D 0 2.0 5.0 1 80 125 0 79
r 9.6448 5 2 sctp 48 -------S 0 5.0 2.0 1 58 106 65535 65535
+ 9.6448 1 4 sctp 1500 -------D 0 1.0 4.0 1 81 126 0 80
+ 9.6448 2 5 sctp 1500 -------D 0 2.0 5.0 1 82 127 0 81
- 9.6448 1 4 sctp 1500 -------D 0 1.0 4.0 1 81 126 0 80
- 9.6448 2 5 sctp 1500 -------D 0 2.0 5.0 1 82 127 0 81
r 9.646003 5 2 sctp 52 -------S 0 5.0 2.0 1 59 107 65535 65535
+ 9.646003 1 4 sctp 1500 -------D 0 1.0 4.0 1 83 128 0 82
- 9.646003 1 4 sctp 1500 -------D 0 1.0 4.0 1 83 128 0 82
+ 9.646003 2 5 sctp 1500 -------D 0 2.0 5.0 1 84 129 0 83
- 9.646003 2 5 sctp 1500 -------D 0 2.0 5.0 1 84 129 0 83
r 9.6472 5 2 sctp 48 -------S 0 5.0 2.0 1 62 108 65535 65535
+ 9.6472 1 4 sctp 1500 -------D 0 1.0 4.0 1 85 130 0 84
+ 9.6472 1 4 sctp 1500 -------D 0 1.0 4.0 1 86 131 0 85
+ 9.6472 2 5 sctp 1500 -------D 0 2.0 5.0 1 87 132 0 86
+ 9.6472 2 5 sctp 1500 -------D 0 2.0 5.0 1 88 133 0 87
- 9.647203 1 4 sctp 1500 -------D 0 1.0 4.0 1 85 130 0 84
- 9.647203 2 5 sctp 1500 -------D 0 2.0 5.0 1 87 132 0 86
r 9.6484 5 2 sctp 48 -------S 0 5.0 2.0 1 64 109 65535 65535
+ 9.6484 1 4 sctp 1500 -------D 0 1.0 4.0 1 89 134 0 88
+ 9.6484 2 5 sctp 1500 -------D 0 2.0 5.0 1 90 135 0 89
- 9.648403 1 4 sctp 1500 -------D 0 1.0 4.0 1 86 131 0 85
- 9.648403 2 5 sctp 1500 -------D 0 2.0 5.0 1 88 133 0 87
- 9.649603 1 4 sctp 1500 -------D 0 1.0 4.0 1 89 134 0 88
- 9.649603 2 5 sctp 1500 -------D 0 2.0 5.0 1 90 135 0 89
r 9.6814 1 4 sctp 1500 -------D 0 1.0 4.0 1 65 110 0 64
r 9.6814 2 5 sctp 1500 -------D 0 2.0 5.0 1 66 111 0 65
+ 9.6814 5 2 sctp 48 -------S 0 5.0 2.0 1 66 136 65535 65535
- 9.6814 5 2 sctp 48 -------S 0 5.0 2.0 1 66 136 65535 65535
r 9.6826 1 4 sctp 1500 -------D 0 1.0 4.0 1 67 112 0 66
r 9.6826 2 5 sctp 1500 -------D 0 2.0 5.0 1 68 113 0 67
+ 9.6826 5 2 sctp 48 -------S 0 5.0 2.0 1 68 137 65535 65535
- 9.6826 5 2 sctp 48 -------S 0 5.0 2.0 1 68 137 65535 65535
r 9.6838 1 4 sctp 1500 -------D 0 1.0 4.0 1 69 114 0 68
r 9.6838 2 5 sctp 1500 -------D 0 2.0 5.0 1 70 115 0 69
+ 9.6838 5 2 sctp 48 -------S 0 5.0 2.0 1 70 138 65535 65535
- 9.6838 5 2 sctp 48 -------S 0 5.0 2.0 1 70 138 65535 65535
r 9.685 1 4 sctp 1500 -------D 0 1.0 4.0 1 71 116 0 70
r 9.685 2 5 sctp 1500 -------D 0 2.0 5.0 1 72 117 0 71
+ 9.685 5 2 sctp 48 -------S 0 5.0 2.0 1 72 139 65535 65535
- 9.685 5 2 sctp 48 -------S 0 5.0 2.0 1 72 139 65535 65535
r 9.6862 1 4 sctp 1500 -------D 0 1.0 4.0 1 73 118 0 72
r 9.6862 2 5 sctp 1500 -------D 0 2.0 5.0 1 74 119 0 73
+ 9.6862 5 2 sctp 48 -------S 0 5.0 2.0 1 74 140 65535 65535
- 9.6862 5 2 sctp 48 -------S 0 5.0 2.0 1 74 140 65535 65535
r 9.6874 1 4 sctp 1500 -------D 0 1.0 4.0 1 75 120 0 74
r 9.6874 2 5 sctp 1500 -------D 0 2.0 5.0 1 76 121 0 75
+ 9.6874 5 2 sctp 48 -------S 0 5.0 2.0 1 76 141 65535 65535
- 9.6874 5 2 sctp 48 -------S 0 5.0 2.0 1 76 141 65535 65535
r 9.6886 1 4 sctp 1500 -------D 0 1.0 4.0 1 77 122 0 76
r 9.6886 2 5 sctp 1500 -------D 0 2.0 5.0 1 78 123 0 77
+ 9.6886 5 2 sctp 48 -------S 0 5.0 2.0 1 78 142 65535 65535
- 9.6886 5 2 sctp 48 -------S 0 5.0 2.0 1 78 142 65535 65535
r 9.6898 1 4 sctp 1500 -------D 0 1.0 4.0 1 79 124 0 78
r 9.6898 2 5 sctp 1500 -------D 0 2.0 5.0 1 80 125 0 79
+ 9.6898 5 2 sctp 48 -------S 0 5.0 2.0 1 80 143 65535 65535
- 9.6898 5 2 sctp 48 -------S 0 5.0 2.0 1 80 143 65535 65535
r 9.691 1 4 sctp 1500 -------D 0 1.0 4.0 1 81 126 0 80
r 9.691 2 5 sctp 1500 -------D 0 2.0 5.0 1 82 127 0 81
+ 9.691 5 2 sctp 48 -------S 0 5.0 2.0 1 82 144 65535 65535
- 9.691 5 2 sctp 48 -------S 0 5.0 2.0 1 82 144 65535 65535
r 9.692203 1 4 sctp 1500 -------D 0 1.0 4.0 1 83 128 0 82
r 9.692203 2 5 sctp 1500 -------D 0 2.0 5.0 1 84 129 0 83
+ 9.692203 5 2 sctp 48 -------S 0 5.0 2.0 1 84 145 65535 65535
- 9.692203 5 2 sctp 48 -------S 0 5.0 2.0 1 84 145 65535 65535
r 9.693403 1 4 sctp 1500 -------D 0 1.0 4.0 1 85 130 0 84
r 9.693403 2 5 sctp 1500 -------D 0 2.0 5.0 1 87 132 0 86
+ 9.693403 5 2 sctp 52 -------S 0 5.0 2.0 1 85 146 65535 65535
- 9.693403 5 2 sctp 52 -------S 0 5.0 2.0 1 85 146 65535 65535
r 9.694603 1 4 sctp 1500 -------D 0 1.0 4.0 1 86 131 0 85
r 9.694603 2 5 sctp 1500 -------D 0 2.0 5.0 1 88 133 0 87
+ 9.694603 5 2 sctp 48 -------S 0 5.0 2.0 1 88 147 65535 65535
- 9.694603 5 2 sctp 48 -------S 0 5.0 2.0 1 88 147 65535 65535
r 9.695803 1 4 sctp 1500 -------D 0 1.0 4.0 1 89 134 0 88
r 9.695803 2 5 sctp 1500 -------D 0 2.0 5.0 1 90 135 0 89
+ 9.695803 5 2 sctp 48 -------S 0 5.0 2.0 1 90 148 65535 65535
- 9.695803 5 2 sctp 48 -------S 0 5.0 2.0 1 90 148 65535 65535
r 9.726438 5 2 sctp 48 -------S 0 5.0 2.0 1 66 136 65535 65535
+ 9.726438 1 4 sctp 1500 -------D 0 1.0 4.0 1 91 149 0 90
- 9.726438 1 4 sctp 1500 -------D 0 1.0 4.0 1 91 149 0 90
+ 9.726438 2 5 sctp 1500 -------D 0 2.0 5.0 1 92 150 0 91
- 9.726438 2 5 sctp 1500 -------D 0 2.0 5.0 1 92 150 0 91
r 9.727638 5 2 sctp 48 -------S 0 5.0 2.0 1 68 137 65535 65535
+ 9.727638 1 4 sctp 1500 -------D 0 1.0 4.0 1 93 151 0 92
+ 9.727638 2 5 sctp 1500 -------D 0 2.0 5.0 1 94 152 0 93
- 9.727638 1 4 sctp 1500 -------D 0 1.0 4.0 1 93 151 0 92
- 9.727638 2 5 sctp 1500 -------D 0 2.0 5.0 1 94 152 0 93
r 9.728838 5 2 sctp 48 -------S 0 5.0 2.0 1 70 138 65535 65535
+ 9.728838 1 4 sctp 1500 -------D 0 1.0 4.0 1 95 153 0 94
+ 9.728838 2 5 sctp 1500 -------D 0 2.0 5.0 1 96 154 0 95
- 9.728838 1 4 sctp 1500 -------D 0 1.0 4.0 1 95 153 0 94
- 9.728838 2 5 sctp 1500 -------D 0 2.0 5.0 1 96 154 0 95
r 9.730038 5 2 sctp 48 -------S 0 5.0 2.0 1 72 139 65535 65535
+ 9.730038 1 4 sctp 1500 -------D 0 1.0 4.0 1 97 155 0 96
+ 9.730038 2 5 sctp 1500 -------D 0 2.0 5.0 1 98 156 0 97
- 9.730038 1 4 sctp 1500 -------D 0 1.0 4.0 1 97 155 0 96
- 9.730038 2 5 sctp 1500 -------D 0 2.0 5.0 1 98 156 0 97
r 9.731238 5 2 sctp 48 -------S 0 5.0 2.0 1 74 140 65535 65535
+ 9.731238 1 4 sctp 1500 -------D 0 1.0 4.0 1 99 157 0 98
+ 9.731238 2 5 sctp 1500 -------D 0 2.0 5.0 1 100 158 0 99
- 9.731238 1 4 sctp 1500 -------D 0 1.0 4.0 1 99 157 0 98
- 9.731238 2 5 sctp 1500 -------D 0 2.0 5.0 1 100 158 0 99
r 9.732438 5 2 sctp 48 -------S 0 5.0 2.0 1 76 141 65535 65535
+ 9.732438 1 4 sctp 1500 -------D 0 1.0 4.0 1 101 159 0 100
+ 9.732438 2 5 sctp 1500 -------D 0 2.0 5.0 1 102 160 0 101
- 9.732438 1 4 sctp 1500 -------D 0 1.0 4.0 1 101 159 0 100
- 9.732438 2 5 sctp 1500 -------D 0 2.0 5.0 1 102 160 0 101
r 9.733638 5 2 sctp 48 -------S 0 5.0 2.0 1 78 142 65535 65535
+ 9.733638 1 4 sctp 1500 -------D 0 1.0 4.0 1 103 161 0 102
+ 9.733638 2 5 sctp 1500 -------D 0 2.0 5.0 1 104 162 0 103
- 9.733638 1 4 sctp 1500 -------D 0 1.0 4.0 1 103 161 0 102
- 9.733638 2 5 sctp 1500 -------D 0 2.0 5.0 1 104 162 0 103
r 9.734838 5 2 sctp 48 -------S 0 5.0 2.0 1 80 143 65535 65535
+ 9.734838 1 4 sctp 1500 -------D 0 1.0 4.0 1 105 163 0 104
+ 9.734838 2 5 sctp 1500 -------D 0 2.0 5.0 1 106 164 0 105
- 9.734838 1 4 sctp 1500 -------D 0 1.0 4.0 1 105 163 0 104
- 9.734838 2 5 sctp 1500 -------D 0 2.0 5.0 1 106 164 0 105
r 9.736038 5 2 sctp 48 -------S 0 5.0 2.0 1 82 144 65535 65535
+ 9.736038 1 4 sctp 1500 -------D 0 1.0 4.0 1 107 165 0 106
+ 9.736038 2 5 sctp 1500 -------D 0 2.0 5.0 1 108 166 0 107
- 9.736038 1 4 sctp 1500 -------D 0 1.0 4.0 1 107 165 0 106
- 9.736038 2 5 sctp 1500 -------D 0 2.0 5.0 1 108 166 0 107
r 9.737242 5 2 sctp 48 -------S 0 5.0 2.0 1 84 145 65535 65535
+ 9.737242 1 4 sctp 1500 -------D 0 1.0 4.0 1 109 167 0 108
- 9.737242 1 4 sctp 1500 -------D 0 1.0 4.0 1 109 167 0 108
+ 9.737242 2 5 sctp 1500 -------D 0 2.0 5.0 1 110 168 0 109
- 9.737242 2 5 sctp 1500 -------D 0 2.0 5.0 1 110 168 0 109
r 9.738445 5 2 sctp 52 -------S 0 5.0 2.0 1 85 146 65535 65535
+ 9.738445 1 4 sctp 1500 -------D 0 1.0 4.0 1 111 169 0 110
- 9.738445 1 4 sctp 1500 -------D 0 1.0 4.0 1 111 169 0 110
+ 9.738445 2 5 sctp 1500 -------D 0 2.0 5.0 1 112 170 0 111
- 9.738445 2 5 sctp 1500 -------D 0 2.0 5.0 1 112 170 0 111
r 9.739642 5 2 sctp 48 -------S 0 5.0 2.0 1 88 147 65535 65535
+ 9.739642 1 4 sctp 1500 -------D 0 1.0 4.0 1 113 171 0 112
+ 9.739642 1 4 sctp 1500 -------D 0 1.0 4.0 1 114 172 0 113
+ 9.739642 2 5 sctp 1500 -------D 0 2.0 5.0 1 115 173 0 114
+ 9.739642 2 5 sctp 1500 -------D 0 2.0 5.0 1 116 174 0 115
- 9.739645 1 4 sctp 1500 -------D 0 1.0 4.0 1 113 171 0 112
- 9.739645 2 5 sctp 1500 -------D 0 2.0 5.0 1 115 173 0 114
r 9.740842 5 2 sctp 48 -------S 0 5.0 2.0 1 90 148 65535 65535
+ 9.740842 1 4 sctp 1500 -------D 0 1.0 4.0 1 117 175 0 116
+ 9.740842 2 5 sctp 1500 -------D 0 2.0 5.0 1 118 176 0 117
- 9.740845 1 4 sctp 1500 -------D 0 1.0 4.0 1 114 172 0 113
- 9.740845 2 5 sctp 1500 -------D 0 2.0 5.0 1 116 174 0 115
- 9.742045 1 4 sctp 1500 -------D 0 1.0 4.0 1 117 175 0 116
- 9.742045 2 5 sctp 1500 -------D 0 2.0 5.0 1 118 176 0 117
r 9.772638 1 4 sctp 1500 -------D 0 1.0 4.0 1 91 149 0 90
r 9.772638 2 5 sctp 1500 -------D 0 2.0 5.0 1 92 150 0 91
+ 9.772638 5 2 sctp 48 -------S 0 5.0 2.0 1 92 177 65535 65535
- 9.772638 5 2 sctp 48 -------S 0 5.0 2.0 1 92 177 65535 65535
r 9.773838 1 4 sctp 1500 -------D 0 1.0 4.0 1 93 151 0 92
r 9.773838 2 5 sctp 1500 -------D 0 2.0 5.0 1 94 152 0 93
+ 9.773838 5 2 sctp 48 -------S 0 5.0 2.0 1 94 178 65535 65535
- 9.773838 5 2 sctp 48 -------S 0 5.0 2.0 1 94 178 65535 65535
r 9.775038 1 4 sctp 1500 -------D 0 1.0 4.0 1 95 153 0 94
r 9.775038 2 5 sctp 1500 -------D 0 2.0 5.0 1 96 154 0 95
+ 9.775038 5 2 sctp 48 -------S 0 5.0 2.0 1 96 179 65535 65535
- 9.775038 5 2 sctp 48 -------S 0 5.0 2.0 1 96 179 65535 65535
r 9.776238 1 4 sctp 1500 -------D 0 1.0 4.0 1 97 155 0 96
r 9.776238 2 5 sctp 1500 -------D 0 2.0 5.0 1 98 156 0 97
+ 9.776238 5 2 sctp 48 -------S 0 5.0 2.0 1 98 180 65535 65535
- 9.776238 5 2 sctp 48 -------S 0 5.0 2.0 1 98 180 65535 65535
r 9.777438 1 4 sctp 1500 -------D 0 1.0 4.0 1 99 157 0 98
r 9.777438 2 5 sctp 1500 -------D 0 2.0 5.0 1 100 158 0 99
+ 9.777438 5 2 sctp 48 -------S 0 5.0 2.0 1 100 181 65535 65535
- 9.777438 5 2 sctp 48 -------S 0 5.0 2.0 1 100 181 65535 65535
r 9.778638 1 4 sctp 1500 -------D 0 1.0 4.0 1 101 159 0 100
r 9.778638 2 5 sctp 1500 -------D 0 2.0 5.0 1 102 160 0 101
+ 9.778638 5 2 sctp 48 -------S 0 5.0 2.0 1 102 182 65535 65535
- 9.778638 5 2 sctp 48 -------S 0 5.0 2.0 1 102 182 65535 65535
r 9.779838 1 4 sctp 1500 -------D 0 1.0 4.0 1 103 161 0 102