+ 0 1 5 sctp 56 -------I 0 1.0 5.0 1 -1 6 65535 65535
- 0 1 5 sctp 56 -------I 0 1.0 5.0 1 -1 6 65535 65535
r 0.045045 1 5 sctp 56 -------I 0 1.0 5.0 1 -1 6 65535 65535
+ 0.045045 5 1 sctp 56 -------I 0 5.0 1.0 1 -1 7 65535 65535
- 0.045045 5 1 sctp 56 -------I 0 5.0 1.0 1 -1 7 65535 65535
r 0.09009 5 1 sctp 56 -------I 0 5.0 1.0 1 -1 7 65535 65535
+ 0.09009 1 5 sctp 36 -------I 0 1.0 5.0 1 -1 8 65535 65535
- 0.09009 1 5 sctp 36 -------I 0 1.0 5.0 1 -1 8 65535 65535
r 0.135118 1 5 sctp 36 -------I 0 1.0 5.0 1 -1 8 65535 65535
+ 0.135118 5 1 sctp 36 -------I 0 5.0 1.0 1 -1 9 65535 65535
- 0.135118 5 1 sctp 36 -------I 0 5.0 1.0 1 -1 9 65535 65535
r 0.180147 5 1 sctp 36 -------I 0 5.0 1.0 1 -1 9 65535 65535
+ 0.180147 1 5 sctp 56 -------H 0 1.0 5.0 1 -1 10 65535 65535
- 0.180147 1 5 sctp 56 -------H 0 1.0 5.0 1 -1 10 65535 65535
+ 0.180147 2 6 sctp 56 -------H 0 2.0 6.0 1 -1 11 65535 65535
- 0.180147 2 6 sctp 56 -------H 0 2.0 6.0 1 -1 11 65535 65535
+ 0.180147 3 7 sctp 56 -------H 0 3.0 7.0 1 -1 12 65535 65535
- 0.180147 3 7 sctp 56 -------H 0 3.0 7.0 1 -1 12 65535 65535
r 0.225192 1 5 sctp 56 -------H 0 1.0 5.0 1 -1 10 65535 65535
+ 0.225192 5 1 sctp 56 -------B 0 5.0 1.0 1 -1 13 65535 65535
- 0.225192 5 1 sctp 56 -------B 0 5.0 1.0 1 -1 13 65535 65535
r 0.225192 2 6 sctp 56 -------H 0 2.0 6.0 1 -1 11 65535 65535
+ 0.225192 6 2 sctp 56 -------B 0 6.0 2.0 1 -1 14 65535 65535
- 0.225192 6 2 sctp 56 -------B 0 6.0 2.0 1 -1 14 65535 65535
r 0.225192 3 7 sctp 56 -------H 0 3.0 7.0 1 -1 12 65535 65535
+ 0.225192 7 3 sctp 56 -------B 0 7.0 3.0 1 -1 15 65535 65535
- 0.225192 7 3 sctp 56 -------B 0 7.0 3.0 1 -1 15 65535 65535
r 0.270237 5 1 sctp 56 -------B 0 5.0 1.0 1 -1 13 65535 65535
r 0.270237 6 2 sctp 56 -------B 0 6.0 2.0 1 -1 14 65535 65535
r 0.270237 7 3 sctp 56 -------B 0 7.0 3.0 1 -1 15 65535 65535
+ 0.270237 1 5 sctp 1500 -------D 0 1.0 5.0 1 1 16 0 0
- 0.270237 1 5 sctp 1500 -------D 0 1.0 5.0 1 1 16 0 0
+ 0.270237 1 5 sctp 1500 -------D 0 1.0 5.0 1 2 17 0 1
+ 0.270237 1 5 sctp 1500 -------D 0 1.0 5.0 1 3 18 0 2
+ 0.270237 2 6 sctp 1500 -------D 0 2.0 6.0 1 4 19 0 3
- 0.270237 2 6 sctp 1500 -------D 0 2.0 6.0 1 4 19 0 3
+ 0.270237 2 6 sctp 1500 -------D 0 2.0 6.0 1 5 20 0 4
+ 0.270237 2 6 sctp 1500 -------D 0 2.0 6.0 1 6 21 0 5
+ 0.270237 3 7 sctp 1500 -------D 0 3.0 7.0 1 7 22 0 6
- 0.270237 3 7 sctp 1500 -------D 0 3.0 7.0 1 7 22 0 6
+ 0.270237 3 7 sctp 1500 -------D 0 3.0 7.0 1 8 23 0 7
+ 0.270237 3 7 sctp 1500 -------D 0 3.0 7.0 1 9 24 0 8
- 0.271437 1 5 sctp 1500 -------D 0 1.0 5.0 1 2 17 0 1
- 0.271437 2 6 sctp 1500 -------D 0 2.0 6.0 1 5 20 0 4
- 0.271437 3 7 sctp 1500 -------D 0 3.0 7.0 1 8 23 0 7
- 0.272637 1 5 sctp 1500 -------D 0 1.0 5.0 1 3 18 0 2
- 0.272637 2 6 sctp 1500 -------D 0 2.0 6.0 1 6 21 0 5
- 0.272637 3 7 sctp 1500 -------D 0 3.0 7.0 1 9 24 0 8
r 0.316437 1 5 sctp 1500 -------D 0 1.0 5.0 1 1 16 0 0
r 0.316437 2 6 sctp 1500 -------D 0 2.0 6.0 1 4 19 0 3
+ 0.316437 6 2 sctp 52 -------S 0 6.0 2.0 1 1 25 65535 65535
- 0.316437 6 2 sctp 52 -------S 0 6.0 2.0 1 1 25 65535 65535
r 0.316437 3 7 sctp 1500 -------D 0 3.0 7.0 1 7 22 0 6
r 0.317637 1 5 sctp 1500 -------D 0 1.0 5.0 1 2 17 0 1
+ 0.317637 5 1 sctp 56 -------S 0 5.0 1.0 1 2 26 65535 65535
- 0.317637 5 1 sctp 56 -------S 0 5.0 1.0 1 2 26 65535 65535
r 0.317637 2 6 sctp 1500 -------D 0 2.0 6.0 1 5 20 0 4
r 0.317637 3 7 sctp 1500 -------D 0 3.0 7.0 1 8 23 0 7
+ 0.317637 7 3 sctp 56 -------S 0 7.0 3.0 1 2 27 65535 65535
- 0.317637 7 3 sctp 56 -------S 0 7.0 3.0 1 2 27 65535 65535
r 0.318837 1 5 sctp 1500 -------D 0 1.0 5.0 1 3 18 0 2
r 0.318837 2 6 sctp 1500 -------D 0 2.0 6.0 1 6 21 0 5
+ 0.318837 6 2 sctp 48 -------S 0 6.0 2.0 1 8 28 65535 65535
- 0.318837 6 2 sctp 48 -------S 0 6.0 2.0 1 8 28 65535 65535
r 0.318837 3 7 sctp 1500 -------D 0 3.0 7.0 1 9 24 0 8
r 0.361478 6 2 sctp 52 -------S 0 6.0 2.0 1 1 25 65535 65535
+ 0.361478 1 5 sctp 1500 -------D 0 1.0 5.0 1 10 29 0 9
- 0.361478 1 5 sctp 1500 -------D 0 1.0 5.0 1 10 29 0 9
+ 0.361478 1 5 sctp 1500 -------D 0 1.0 5.0 1 11 30 0 10
+ 0.361478 2 6 sctp 1500 -------D 0 2.0 6.0 1 12 31 0 11
- 0.361478 2 6 sctp 1500 -------D 0 2.0 6.0 1 12 31 0 11
+ 0.361478 2 6 sctp 1500 -------D 0 2.0 6.0 1 13 32 0 12
- 0.362678 1 5 sctp 1500 -------D 0 1.0 5.0 1 11 30 0 10
- 0.362678 2 6 sctp 1500 -------D 0 2.0 6.0 1 13 32 0 12
r 0.362682 5 1 sctp 56 -------S 0 5.0 1.0 1 2 26 65535 65535
+ 0.362682 3 7 sctp 1500 -------D 0 3.0 7.0 1 14 33 0 13
- 0.362682 3 7 sctp 1500 -------D 0 3.0 7.0 1 14 33 0 13
+ 0.362682 3 7 sctp 1500 -------D 0 3.0 7.0 1 15 34 0 14
+ 0.362682 1 5 sctp 1500 -------D 0 1.0 5.0 1 16 35 0 15
+ 0.362682 1 5 sctp 1500 -------D 0 1.0 5.0 1 17 36 0 16
r 0.362682 7 3 sctp 56 -------S 0 7.0 3.0 1 2 27 65535 65535
+ 0.362682 2 6 sctp 1500 -------D 0 2.0 6.0 1 18 37 0 17
+ 0.362682 2 6 sctp 1500 -------D 0 2.0 6.0 1 19 38 0 18
+ 0.362682 3 7 sctp 1500 -------D 0 3.0 7.0 1 20 39 0 19
+ 0.362682 3 7 sctp 1500 -------D 0 3.0 7.0 1 21 40 0 20
r 0.363875 6 2 sctp 48 -------S 0 6.0 2.0 1 8 28 65535 65535
+ 0.363875 1 5 sctp 1500 -------D 0 1.0 5.0 1 22 41 0 21
+ 0.363875 1 5 sctp 1500 -------D 0 1.0 5.0 1 23 42 0 22
+ 0.363875 2 6 sctp 1500 -------D 0 2.0 6.0 1 24 43 0 23
+ 0.363875 2 6 sctp 1500 -------D 0 2.0 6.0 1 25 44 0 24
- 0.363878 1 5 sctp 1500 -------D 0 1.0 5.0 1 16 35 0 15
- 0.363878 2 6 sctp 1500 -------D 0 2.0 6.0 1 18 37 0 17
- 0.363882 3 7 sctp 1500 -------D 0 3.0 7.0 1 15 34 0 14
- 0.365078 1 5 sctp 1500 -------D 0 1.0 5.0 1 17 36 0 16
- 0.365078 2 6 sctp 1500 -------D 0 2.0 6.0 1 19 38 0 18
- 0.365082 3 7 sctp 1500 -------D 0 3.0 7.0 1 20 39 0 19
- 0.366278 1 5 sctp 1500 -------D 0 1.0 5.0 1 22 41 0 21
- 0.366278 2 6 sctp 1500 -------D 0 2.0 6.0 1 24 43 0 23
- 0.366282 3 7 sctp 1500 -------D 0 3.0 7.0 1 21 40 0 20
- 0.367478 1 5 sctp 1500 -------D 0 1.0 5.0 1 23 42 0 22
- 0.367478 2 6 sctp 1500 -------D 0 2.0 6.0 1 25 44 0 24
r 0.407678 1 5 sctp 1500 -------D 0 1.0 5.0 1 10 29 0 9
+ 0.407678 5 1 sctp 48 -------S 0 5.0 1.0 1 10 45 65535 65535
- 0.407678 5 1 sctp 48 -------S 0 5.0 1.0 1 10 45 65535 65535
r 0.407678 2 6 sctp 1500 -------D 0 2.0 6.0 1 12 31 0 11
r 0.408878 1 5 sctp 1500 -------D 0 1.0 5.0 1 11 30 0 10
+ 0.408878 5 1 sctp 48 -------S 0 5.0 1.0 1 12 46 65535 65535
- 0.408878 5 1 sctp 48 -------S 0 5.0 1.0 1 12 46 65535 65535
r 0.408878 2 6 sctp 1500 -------D 0 2.0 6.0 1 13 32 0 12
r 0.408882 3 7 sctp 1500 -------D 0 3.0 7.0 1 14 33 0 13
+ 0.408882 7 3 sctp 48 -------S 0 7.0 3.0 1 14 47 65535 65535
- 0.408882 7 3 sctp 48 -------S 0 7.0 3.0 1 14 47 65535 65535
r 0.410078 1 5 sctp 1500 -------D 0 1.0 5.0 1 16 35 0 15
r 0.410078 2 6 sctp 1500 -------D 0 2.0 6.0 1 18 37 0 17
+ 0.410078 6 2 sctp 56 -------S 0 6.0 2.0 1 14 48 65535 65535
- 0.410078 6 2 sctp 56 -------S 0 6.0 2.0 1 14 48 65535 65535
r 0.410082 3 7 sctp 1500 -------D 0 3.0 7.0 1 15 34 0 14
r 0.411278 1 5 sctp 1500 -------D 0 1.0 5.0 1 17 36 0 16
+ 0.411278 5 1 sctp 48 -------S 0 5.0 1.0 1 18 49 65535 65535
- 0.411278 5 1 sctp 48 -------S 0 5.0 1.0 1 18 49 65535 65535
r 0.411278 2 6 sctp 1500 -------D 0 2.0 6.0 1 19 38 0 18
r 0.411282 3 7 sctp 1500 -------D 0 3.0 7.0 1 20 39 0 19
+ 0.411282 7 3 sctp 48 -------S 0 7.0 3.0 1 20 50 65535 65535
- 0.411282 7 3 sctp 48 -------S 0 7.0 3.0 1 20 50 65535 65535
r 0.412478 1 5 sctp 1500 -------D 0 1.0 5.0 1 22 41 0 21
r 0.412478 2 6 sctp 1500 -------D 0 2.0 6.0 1 24 43 0 23
+ 0.412478 6 2 sctp 56 -------S 0 6.0 2.0 1 20 51 65535 65535
- 0.412478 6 2 sctp 56 -------S 0 6.0 2.0 1 20 51 65535 65535
r 0.412482 3 7 sctp 1500 -------D 0 3.0 7.0 1 21 40 0 20
r 0.413678 1 5 sctp 1500 -------D 0 1.0 5.0 1 23 42 0 22
+ 0.413678 5 1 sctp 48 -------S 0 5.0 1.0 1 24 52 65535 65535
- 0.413678 5 1 sctp 48 -------S 0 5.0 1.0 1 24 52 65535 65535
r 0.413678 2 6 sctp 1500 -------D 0 2.0 6.0 1 25 44 0 24
r 0.452717 5 1 sctp 48 -------S 0 5.0 1.0 1 10 45 65535 65535
+ 0.452717 3 7 sctp 1500 -------D 0 3.0 7.0 1 26 53 0 25
- 0.452717 3 7 sctp 1500 -------D 0 3.0 7.0 1 26 53 0 25
+ 0.452717 3 7 sctp 1500 -------D 0 3.0 7.0 1 27 54 0 26
+ 0.452717 1 5 sctp 1500 -------D 0 1.0 5.0 1 28 55 0 27
- 0.452717 1 5 sctp 1500 -------D 0 1.0 5.0 1 28 55 0 27
+ 0.452717 1 5 sctp 1500 -------D 0 1.0 5.0 1 29 56 0 28
r 0.453917 5 1 sctp 48 -------S 0 5.0 1.0 1 12 46 65535 65535
+ 0.453917 2 6 sctp 1500 -------D 0 2.0 6.0 1 30 57 0 29
- 0.453917 2 6 sctp 1500 -------D 0 2.0 6.0 1 30 57 0 29
+ 0.453917 2 6 sctp 1500 -------D 0 2.0 6.0 1 31 58 0 30
+ 0.453917 1 5 sctp 1500 -------D 0 1.0 5.0 1 32 59 0 31
+ 0.453917 1 5 sctp 1500 -------D 0 1.0 5.0 1 33 60 0 32
- 0.453917 3 7 sctp 1500 -------D 0 3.0 7.0 1 27 54 0 26
- 0.453917 1 5 sctp 1500 -------D 0 1.0 5.0 1 29 56 0 28
r 0.45392 7 3 sctp 48 -------S 0 7.0 3.0 1 14 47 65535 65535
+ 0.45392 2 6 sctp 1500 -------D 0 2.0 6.0 1 34 61 0 33
+ 0.45392 2 6 sctp 1500 -------D 0 2.0 6.0 1 35 62 0 34
+ 0.45392 3 7 sctp 1500 -------D 0 3.0 7.0 1 36 63 0 35
+ 0.45392 3 7 sctp 1500 -------D 0 3.0 7.0 1 37 64 0 36
- 0.455117 2 6 sctp 1500 -------D 0 2.0 6.0 1 31 58 0 30
- 0.455117 3 7 sctp 1500 -------D 0 3.0 7.0 1 36 63 0 35
- 0.455117 1 5 sctp 1500 -------D 0 1.0 5.0 1 32 59 0 31
r 0.455123 6 2 sctp 56 -------S 0 6.0 2.0 1 14 48 65535 65535
+ 0.455123 1 5 sctp 1500 -------D 0 1.0 5.0 1 38 65 0 37
+ 0.455123 1 5 sctp 1500 -------D 0 1.0 5.0 1 39 66 0 38
+ 0.455123 2 6 sctp 1500 -------D 0 2.0 6.0 1 40 67 0 39
+ 0.455123 2 6 sctp 1500 -------D 0 2.0 6.0 1 41 68 0 40
r 0.456317 5 1 sctp 48 -------S 0 5.0 1.0 1 18 49 65535 65535
+ 0.456317 3 7 sctp 1500 -------D 0 3.0 7.0 1 42 69 0 41
+ 0.456317 3 7 sctp 1500 -------D 0 3.0 7.0 1 43 70 0 42
+ 0.456317 1 5 sctp 1500 -------D 0 1.0 5.0 1 44 71 0 43
+ 0.456317 1 5 sctp 1500 -------D 0 1.0 5.0 1 45 72 0 44
- 0.456317 2 6 sctp 1500 -------D 0 2.0 6.0 1 34 61 0 33
- 0.456317 3 7 sctp 1500 -------D 0 3.0 7.0 1 37 64 0 36
- 0.456317 1 5 sctp 1500 -------D 0 1.0 5.0 1 33 60 0 32
r 0.45632 7 3 sctp 48 -------S 0 7.0 3.0 1 20 50 65535 65535
+ 0.45632 2 6 sctp 1500 -------D 0 2.0 6.0 1 46 73 0 45
+ 0.45632 2 6 sctp 1500 -------D 0 2.0 6.0 1 47 74 0 46
+ 0.45632 3 7 sctp 1500 -------D 0 3.0 7.0 1 48 75 0 47
+ 0.45632 3 7 sctp 1500 -------D 0 3.0 7.0 1 49 76 0 48
- 0.457517 2 6 sctp 1500 -------D 0 2.0 6.0 1 35 62 0 34
- 0.457517 3 7 sctp 1500 -------D 0 3.0 7.0 1 42 69 0 41
- 0.457517 1 5 sctp 1500 -------D 0 1.0 5.0 1 38 65 0 37
r 0.457523 6 2 sctp 56 -------S 0 6.0 2.0 1 20 51 65535 65535
+ 0.457523 1 5 sctp 1500 -------D 0 1.0 5.0 1 50 77 0 49
+ 0.457523 1 5 sctp 1500 -------D 0 1.0 5.0 1 51 78 0 50
+ 0.457523 2 6 sctp 1500 -------D 0 2.0 6.0 1 52 79 0 51
+ 0.457523 2 6 sctp 1500 -------D 0 2.0 6.0 1 53 80 0 52
r 0.458717 5 1 sctp 48 -------S 0 5.0 1.0 1 24 52 65535 65535
+ 0.458717 3 7 sctp 1500 -------D 0 3.0 7.0 1 54 81 0 53
+ 0.458717 3 7 sctp 1500 -------D 0 3.0 7.0 1 55 82 0 54
+ 0.458717 1 5 sctp 1500 -------D 0 1.0 5.0 1 56 83 0 55
- 0.458717 2 6 sctp 1500 -------D 0 2.0 6.0 1 40 67 0 39
- 0.458717 3 7 sctp 1500 -------D 0 3.0 7.0 1 43 70 0 42
- 0.458717 1 5 sctp 1500 -------D 0 1.0 5.0 1 39 66 0 38
- 0.459917 2 6 sctp 1500 -------D 0 2.0 6.0 1 41 68 0 40
- 0.459917 3 7 sctp 1500 -------D 0 3.0 7.0 1 48 75 0 47
- 0.459917 1 5 sctp 1500 -------D 0 1.0 5.0 1 44 71 0 43
- 0.461117 2 6 sctp 1500 -------D 0 2.0 6.0 1 46 73 0 45
- 0.461117 3 7 sctp 1500 -------D 0 3.0 7.0 1 49 76 0 48
- 0.461117 1 5 sctp 1500 -------D 0 1.0 5.0 1 45 72 0 44
- 0.462317 2 6 sctp 1500 -------D 0 2.0 6.0 1 47 74 0 46
- 0.462317 3 7 sctp 1500 -------D 0 3.0 7.0 1 54 81 0 53
- 0.462317 1 5 sctp 1500 -------D 0 1.0 5.0 1 50 77 0 49
- 0.463517 2 6 sctp 1500 -------D 0 2.0 6.0 1 52 79 0 51
- 0.463517 3 7 sctp 1500 -------D 0 3.0 7.0 1 55 82 0 54
- 0.463517 1 5 sctp 1500 -------D 0 1.0 5.0 1 51 78 0 50
- 0.464717 2 6 sctp 1500 -------D 0 2.0 6.0 1 53 80 0 52
- 0.464717 1 5 sctp 1500 -------D 0 1.0 5.0 1 56 83 0 55
r 0.498917 3 7 sctp 1500 -------D 0 3.0 7.0 1 26 53 0 25
+ 0.498917 7 3 sctp 48 -------S 0 7.0 3.0 1 26 84 65535 65535
- 0.498917 7 3 sctp 48 -------S 0 7.0 3.0 1 26 84 65535 65535
r 0.498917 1 5 sctp 1500 -------D 0 1.0 5.0 1 28 55 0 27
r 0.500117 2 6 sctp 1500 -------D 0 2.0 6.0 1 30 57 0 29
+ 0.500117 6 2 sctp 56 -------S 0 6.0 2.0 1 26 85 65535 65535
- 0.500117 6 2 sctp 56 -------S 0 6.0 2.0 1 26 85 65535 65535
r 0.500117 3 7 sctp 1500 -------D 0 3.0 7.0 1 27 54 0 26
r 0.500117 1 5 sctp 1500 -------D 0 1.0 5.0 1 29 56 0 28
+ 0.500117 5 1 sctp 48 -------S 0 5.0 1.0 1 30 86 65535 65535
- 0.500117 5 1 sctp 48 -------S 0 5.0 1.0 1 30 86 65535 65535
r 0.501317 2 6 sctp 1500 -------D 0 2.0 6.0 1 31 58 0 30
r 0.501317 3 7 sctp 1500 -------D 0 3.0 7.0 1 36 63 0 35
+ 0.501317 7 3 sctp 52 -------S 0 7.0 3.0 1 31 87 65535 65535
- 0.501317 7 3 sctp 52 -------S 0 7.0 3.0 1 31 87 65535 65535
r 0.501317 1 5 sctp 1500 -------D 0 1.0 5.0 1 32 59 0 31
r 0.502517 2 6 sctp 1500 -------D 0 2.0 6.0 1 34 61 0 33
+ 0.502517 6 2 sctp 56 -------S 0 6.0 2.0 1 32 88 65535 65535
- 0.502517 6 2 sctp 56 -------S 0 6.0 2.0 1 32 88 65535 65535
r 0.502517 3 7 sctp 1500 -------D 0 3.0 7.0 1 37 64 0 36
r 0.502517 1 5 sctp 1500 -------D 0 1.0 5.0 1 33 60 0 32
+ 0.502517 5 1 sctp 52 -------S 0 5.0 1.0 1 34 89 65535 65535
- 0.502517 5 1 sctp 52 -------S 0 5.0 1.0 1 34 89 65535 65535
r 0.503717 2 6 sctp 1500 -------D 0 2.0 6.0 1 35 62 0 34
r 0.503717 3 7 sctp 1500 -------D 0 3.0 7.0 1 42 69 0 41
+ 0.503717 7 3 sctp 52 -------S 0 7.0 3.0 1 37 90 65535 65535
- 0.503717 7 3 sctp 52 -------S 0 7.0 3.0 1 37 90 65535 65535
r 0.503717 1 5 sctp 1500 -------D 0 1.0 5.0 1 38 65 0 37
r 0.504917 2 6 sctp 1500 -------D 0 2.0 6.0 1 40 67 0 39
+ 0.504917 6 2 sctp 56 -------S 0 6.0 2.0 1 38 91 65535 65535
- 0.504917 6 2 sctp 56 -------S 0 6.0 2.0 1 38 91 65535 65535
r 0.504917 3 7 sctp 1500 -------D 0 3.0 7.0 1 43 70 0 42
r 0.504917 1 5 sctp 1500 -------D 0 1.0 5.0 1 39 66 0 38
+ 0.504917 5 1 sctp 52 -------S 0 5.0 1.0 1 40 92 65535 65535
- 0.504917 5 1 sctp 52 -------S 0 5.0 1.0 1 40 92 65535 65535
r 0.506117 2 6 sctp 1500 -------D 0 2.0 6.0 1 41 68 0 40
r 0.506117 3 7 sctp 1500 -------D 0 3.0 7.0 1 48 75 0 47
+ 0.506117 7 3 sctp 52 -------S 0 7.0 3.0 1 43 93 65535 65535
- 0.506117 7 3 sctp 52 -------S 0 7.0 3.0 1 43 93 65535 65535
r 0.506117 1 5 sctp 1500 -------D 0 1.0 5.0 1 44 71 0 43
r 0.507317 2 6 sctp 1500 -------D 0 2.0 6.0 1 46 73 0 45
+ 0.507317 6 2 sctp 56 -------S 0 6.0 2.0 1 44 94 65535 65535
- 0.507317 6 2 sctp 56 -------S 0 6.0 2.0 1 44 94 65535 65535
r 0.507317 3 7 sctp 1500 -------D 0 3.0 7.0 1 49 76 0 48
r 0.507317 1 5 sctp 1500 -------D 0 1.0 5.0 1 45 72 0 44
+ 0.507317 5 1 sctp 52 -------S 0 5.0 1.0 1 46 95 65535 65535
- 0.507317 5 1 sctp 52 -------S 0 5.0 1.0 1 46 95 65535 65535
r 0.508517 2 6 sctp 1500 -------D 0 2.0 6.0 1 47 74 0 46
r 0.508517 3 7 sctp 1500 -------D 0 3.0 7.0 1 54 81 0 53
+ 0.508517 7 3 sctp 52 -------S 0 7.0 3.0 1 49 96 65535 65535
- 0.508517 7 3 sctp 52 -------S 0 7.0 3.0 1 49 96 65535 65535
r 0.508517 1 5 sctp 1500 -------D 0 1.0 5.0 1 50 77 0 49
r 0.509717 2 6 sctp 1500 -------D 0 2.0 6.0 1 52 79 0 51
+ 0.509717 6 2 sctp 56 -------S 0 6.0 2.0 1 50 97 65535 65535
- 0.509717 6 2 sctp 56 -------S 0 6.0 2.0 1 50 97 65535 65535
r 0.509717 3 7 sctp 1500 -------D 0 3.0 7.0 1 55 82 0 54
r 0.509717 1 5 sctp 1500 -------D 0 1.0 5.0 1 51 78 0 50
+ 0.509717 5 1 sctp 52 -------S 0 5.0 1.0 1 52 98 65535 65535
- 0.509717 5 1 sctp 52 -------S 0 5.0 1.0 1 52 98 65535 65535
r 0.510917 2 6 sctp 1500 -------D 0 2.0 6.0 1 53 80 0 52
r 0.510917 1 5 sctp 1500 -------D 0 1.0 5.0 1 56 83 0 55
+ 0.510917 5 1 sctp 48 -------S 0 5.0 1.0 1 56 99 65535 65535
- 0.510917 5 1 sctp 48 -------S 0 5.0 1.0 1 56 99 65535 65535
r 0.543955 7 3 sctp 48 -------S 0 7.0 3.0 1 26 84 65535 65535
+ 0.543955 2 6 sctp 1500 -------D 0 2.0 6.0 1 57 100 0 56
- 0.543955 2 6 sctp 1500 -------D 0 2.0 6.0 1 57 100 0 56
+ 0.543955 3 7 sctp 1500 -------D 0 3.0 7.0 1 58 101 0 57
- 0.543955 3 7 sctp 1500 -------D 0 3.0 7.0 1 58 101 0 57
+ 0.543955 3 7 sctp 1500 -------D 0 3.0 7.0 1 59 102 0 58
r 0.545155 5 1 sctp 48 -------S 0 5.0 1.0 1 30 86 65535 65535
+ 0.545155 1 5 sctp 1500 -------D 0 1.0 5.0 1 60 103 0 59
- 0.545155 1 5 sctp 1500 -------D 0 1.0 5.0 1 60 103 0 59
+ 0.545155 1 5 sctp 1500 -------D 0 1.0 5.0 1 61 104 0 60
+ 0.545155 2 6 sctp 1500 -------D 0 2.0 6.0 1 62 105 0 61
+ 0.545155 3 7 sctp 1500 -------D 0 3.0 7.0 1 63 106 0 62
- 0.545155 2 6 sctp 1500 -------D 0 2.0 6.0 1 62 105 0 61
- 0.545155 3 7 sctp 1500 -------D 0 3.0 7.0 1 59 102 0 58
r 0.545162 6 2 sctp 56 -------S 0 6.0 2.0 1 26 85 65535 65535
- 0.546355 1 5 sctp 1500 -------D 0 1.0 5.0 1 61 104 0 60
- 0.546355 3 7 sctp 1500 -------D 0 3.0 7.0 1 63 106 0 62
r 0.546358 7 3 sctp 52 -------S 0 7.0 3.0 1 31 87 65535 65535
+ 0.546358 2 6 sctp 1500 -------D 0 2.0 6.0 1 64 107 0 63
- 0.546358 2 6 sctp 1500 -------D 0 2.0 6.0 1 64 107 0 63
+ 0.546358 3 7 sctp 1500 -------D 0 3.0 7.0 1 65 108 0 64
- 0.547555 3 7 sctp 1500 -------D 0 3.0 7.0 1 65 108 0 64
r 0.547558 5 1 sctp 52 -------S 0 5.0 1.0 1 34 89 65535 65535
+ 0.547558 1 5 sctp 1500 -------D 0 1.0 5.0 1 66 109 0 65
- 0.547558 1 5 sctp 1500 -------D 0 1.0 5.0 1 66 109 0 65
+ 0.547558 1 5 sctp 1500 -------D 0 1.0 5.0 1 67 110 0 66
+ 0.547558 2 6 sctp 1500 -------D 0 2.0 6.0 1 68 111 0 67
+ 0.547558 3 7 sctp 1500 -------D 0 3.0 7.0 1 69 112 0 68
- 0.547558 2 6 sctp 1500 -------D 0 2.0 6.0 1 68 111 0 67
r 0.547562 6 2 sctp 56 -------S 0 6.0 2.0 1 32 88 65535 65535
- 0.548755 3 7 sctp 1500 -------D 0 3.0 7.0 1 69 112 0 68
r 0.548758 7 3 sctp 52 -------S 0 7.0 3.0 1 37 90 65535 65535
+ 0.548758 2 6 sctp 1500 -------D 0 2.0 6.0 1 70 113 0 69
+ 0.548758 3 7 sctp 1500 -------D 0 3.0 7.0 1 71 114 0 70
- 0.548758 1 5 sctp 1500 -------D 0 1.0 5.0 1 67 110 0 66
- 0.548758 2 6 sctp 1500 -------D 0 2.0 6.0 1 70 113 0 69
- 0.549955 3 7 sctp 1500 -------D 0 3.0 7.0 1 71 114 0 70
r 0.549958 5 1 sctp 52 -------S 0 5.0 1.0 1 40 92 65535 65535
+ 0.549958 1 5 sctp 1500 -------D 0 1.0 5.0 1 72 115 0 71
+ 0.549958 1 5 sctp 1500 -------D 0 1.0 5.0 1 73 116 0 72
+ 0.549958 2 6 sctp 1500 -------D 0 2.0 6.0 1 74 117 0 73
+ 0.549958 3 7 sctp 1500 -------D 0 3.0 7.0 1 75 118 0 74
- 0.549958 1 5 sctp 1500 -------D 0 1.0 5.0 1 72 115 0 71
- 0.549958 2 6 sctp 1500 -------D 0 2.0 6.0 1 74 117 0 73
r 0.549962 6 2 sctp 56 -------S 0 6.0 2.0 1 38 91 65535 65535
- 0.551155 3 7 sctp 1500 -------D 0 3.0 7.0 1 75 118 0 74
r 0.551158 7 3 sctp 52 -------S 0 7.0 3.0 1 43 93 65535 65535
+ 0.551158 2 6 sctp 1500 -------D 0 2.0 6.0 1 76 119 0 75
+ 0.551158 3 7 sctp 1500 -------D 0 3.0 7.0 1 77 120 0 76
- 0.551158 1 5 sctp 1500 -------D 0 1.0 5.0 1 73 116 0 72
- 0.551158 2 6 sctp 1500 -------D 0 2.0 6.0 1 76 119 0 75
- 0.552355 3 7 sctp 1500 -------D 0 3.0 7.0 1 77 120 0 76
r 0.552358 5 1 sctp 52 -------S 0 5.0 1.0 1 46 95 65535 65535
+ 0.552358 1 5 sctp 1500 -------D 0 1.0 5.0 1 78 121 0 77
+ 0.552358 1 5 sctp 1500 -------D 0 1.0 5.0 1 79 122 0 78
+ 0.552358 2 6 sctp 1500 -------D 0 2.0 6.0 1 80 123 0 79
+ 0.552358 3 7 sctp 1500 -------D 0 3.0 7.0 1 81 124 0 80
- 0.552358 1 5 sctp 1500 -------D 0 1.0 5.0 1 78 121 0 77
- 0.552358 2 6 sctp 1500 -------D 0 2.0 6.0 1 80 123 0 79
r 0.552362 6 2 sctp 56 -------S 0 6.0 2.0 1 44 94 65535 65535
- 0.553555 3 7 sctp 1500 -------D 0 3.0 7.0 1 81 124 0 80
r 0.553558 7 3 sctp 52 -------S 0 7.0 3.0 1 49 96 65535 65535
+ 0.553558 2 6 sctp 1500 -------D 0 2.0 6.0 1 82 125 0 81
+ 0.553558 3 7 sctp 1500 -------D 0 3.0 7.0 1 83 126 0 82
- 0.553558 1 5 sctp 1500 -------D 0 1.0 5.0 1 79 122 0 78
- 0.553558 2 6 sctp 1500 -------D 0 2.0 6.0 1 82 125 0 81
- 0.554755 3 7 sctp 1500 -------D 0 3.0 7.0 1 83 126 0 82
r 0.554758 5 1 sctp 52 -------S 0 5.0 1.0 1 52 98 65535 65535
+ 0.554758 1 5 sctp 1500 -------D 0 1.0 5.0 1 84 127 0 83
+ 0.554758 1 5 sctp 1500 -------D 0 1.0 5.0 1 85 128 0 84
+ 0.554758 1 5 sctp 1500 -------D 0 1.0 5.0 1 86 129 0 85
+ 0.554758 2 6 sctp 1500 -------D 0 2.0 6.0 1 87 130 0 86
+ 0.554758 3 7 sctp 1500 -------D 0 3.0 7.0 1 88 131 0 87
- 0.554758 1 5 sctp 1500 -------D 0 1.0 5.0 1 84 127 0 83
- 0.554758 2 6 sctp 1500 -------D 0 2.0 6.0 1 87 130 0 86
r 0.554762 6 2 sctp 56 -------S 0 6.0 2.0 1 50 97 65535 65535
r 0.555955 5 1 sctp 48 -------S 0 5.0 1.0 1 56 99 65535 65535
+ 0.555955 1 5 sctp 1500 -------D 0 1.0 5.0 1 89 132 0 88
+ 0.555955 2 6 sctp 1500 -------D 0 2.0 6.0 1 90 133 0 89
+ 0.555955 2 6 sctp 1500 -------D 0 2.0 6.0 1 91 134 0 90
- 0.555955 3 7 sctp 1500 -------D 0 3.0 7.0 1 88 131 0 87
- 0.555958 1 5 sctp 1500 -------D 0 1.0 5.0 1 85 128 0 84
- 0.555958 2 6 sctp 1500 -------D 0 2.0 6.0 1 90 133 0 89
- 0.557158 1 5 sctp 1500 -------D 0 1.0 5.0 1 86 129 0 85
- 0.557158 2 6 sctp 1500 -------D 0 2.0 6.0 1 91 134 0 90
- 0.558358 1 5 sctp 1500 -------D 0 1.0 5.0 1 89 132 0 88
r 0.590155 2 6 sctp 1500 -------D 0 2.0 6.0 1 57 100 0 56
r 0.590155 3 7 sctp 1500 -------D 0 3.0 7.0 1 58 101 0 57
+ 0.590155 7 3 sctp 48 -------S 0 7.0 3.0 1 58 135 65535 65535
- 0.590155 7 3 sctp 48 -------S 0 7.0 3.0 1 58 135 65535 65535
r 0.591355 1 5 sctp 1500 -------D 0 1.0 5.0 1 60 103 0 59
r 0.591355 2 6 sctp 1500 -------D 0 2.0 6.0 1 62 105 0 61
+ 0.591355 6 2 sctp 56 -------S 0 6.0 2.0 1 58 136 65535 65535
- 0.591355 6 2 sctp 56 -------S 0 6.0 2.0 1 58 136 65535 65535
r 0.591355 3 7 sctp 1500 -------D 0 3.0 7.0 1 59 102 0 58
r 0.592555 1 5 sctp 1500 -------D 0 1.0 5.0 1 61 104 0 60
+ 0.592555 5 1 sctp 48 -------S 0 5.0 1.0 1 62 137 65535 65535
- 0.592555 5 1 sctp 48 -------S 0 5.0 1.0 1 62 137 65535 65535
r 0.592555 3 7 sctp 1500 -------D 0 3.0 7.0 1 63 106 0 62
r 0.592558 2 6 sctp 1500 -------D 0 2.0 6.0 1 64 107 0 63
+ 0.592558 6 2 sctp 48 -------S 0 6.0 2.0 1 64 138 65535 65535
- 0.592558 6 2 sctp 48 -------S 0 6.0 2.0 1 64 138 65535 65535
r 0.593755 3 7 sctp 1500 -------D 0 3.0 7.0 1 65 108 0 64
r 0.593758 1 5 sctp 1500 -------D 0 1.0 5.0 1 66 109 0 65
+ 0.593758 5 1 sctp 48 -------S 0 5.0 1.0 1 66 139 65535 65535
- 0.593758 5 1 sctp 48 -------S 0 5.0 1.0 1 66 139 65535 65535
r 0.593758 2 6 sctp 1500 -------D 0 2.0 6.0 1 68 111 0 67
r 0.594955 3 7 sctp 1500 -------D 0 3.0 7.0 1 69 112 0 68
+ 0.594955 7 3 sctp 52 -------S 0 7.0 3.0 1 66 140 65535 65535
- 0.594955 7 3 sctp 52 -------S 0 7.0 3.0 1 66 140 65535 65535
r 0.594958 1 5 sctp 1500 -------D 0 1.0 5.0 1 67 110 0 66
r 0.594958 2 6 sctp 1500 -------D 0 2.0 6.0 1 70 113 0 69
+ 0.594958 6 2 sctp 48 -------S 0 6.0 2.0 1 70 141 65535 65535
- 0.594958 6 2 sctp 48 -------S 0 6.0 2.0 1 70 141 65535 65535
r 0.596155 3 7 sctp 1500 -------D 0 3.0 7.0 1 71 114 0 70
r 0.596158 1 5 sctp 1500 -------D 0 1.0 5.0 1 72 115 0 71
+ 0.596158 5 1 sctp 48 -------S 0 5.0 1.0 1 72 142 65535 65535
- 0.596158 5 1 sctp 48 -------S 0 5.0 1.0 1 72 142 65535 65535
r 0.596158 2 6 sctp 1500 -------D 0 2.0 6.0 1 74 117 0 73
r 0.597355 3 7 sctp 1500 -------D 0 3.0 7.0 1 75 118 0 74
+ 0.597355 7 3 sctp 52 -------S 0 7.0 3.0 1 72 143 65535 65535
- 0.597355 7 3 sctp 52 -------S 0 7.0 3.0 1 72 143 65535 65535
r 0.597358 1 5 sctp 1500 -------D 0 1.0 5.0 1 73 116 0 72
r 0.597358 2 6 sctp 1500 -------D 0 2.0 6.0 1 76 119 0 75
+ 0.597358 6 2 sctp 48 -------S 0 6.0 2.0 1 76 144 65535 65535
- 0.597358 6 2 sctp 48 -------S 0 6.0 2.0 1 76 144 65535 65535
r 0.598555 3 7 sctp 1500 -------D 0 3.0 7.0 1 77 120 0 76
r 0.598558 1 5 sctp 1500 -------D 0 1.0 5.0 1 78 121 0 77
+ 0.598558 5 1 sctp 48 -------S 0 5.0 1.0 1 78 145 65535 65535
- 0.598558 5 1 sctp 48 -------S 0 5.0 1.0 1 78 145 65535 65535
r 0.598558 2 6 sctp 1500 -------D 0 2.0 6.0 1 80 123 0 79
r 0.599755 3 7 sctp 1500 -------D 0 3.0 7.0 1 81 124 0 80
+ 0.599755 7 3 sctp 52 -------S 0 7.0 3.0 1 78 146 65535 65535
- 0.599755 7 3 sctp 52 -------S 0 7.0 3.0 1 78 146 65535 65535
r 0.599758 1 5 sctp 1500 -------D 0 1.0 5.0 1 79 122 0 78
r 0.599758 2 6 sctp 1500 -------D 0 2.0 6.0 1 82 125 0 81
+ 0.599758 6 2 sctp 48 -------S 0 6.0 2.0 1 82 147 65535 65535
- 0.599758 6 2 sctp 48 -------S 0 6.0 2.0 1 82 147 65535 65535
r 0.600955 3 7 sctp 1500 -------D 0 3.0 7.0 1 83 126 0 82
r 0.600958 1 5 sctp 1500 -------D 0 1.0 5.0 1 84 127 0 83
+ 0.600958 5 1 sctp 48 -------S 0 5.0 1.0 1 84 148 65535 65535
- 0.600958 5 1 sctp 48 -------S 0 5.0 1.0 1 84 148 65535 65535
r 0.600958 2 6 sctp 1500 -------D 0 2.0 6.0 1 87 130 0 86
r 0.602155 3 7 sctp 1500 -------D 0 3.0 7.0 1 88 131 0 87
+ 0.602155 7 3 sctp 52 -------S 0 7.0 3.0 1 84 149 65535 65535
- 0.602155 7 3 sctp 52 -------S 0 7.0 3.0 1 84 149 65535 65535
r 0.602158 1 5 sctp 1500 -------D 0 1.0 5.0 1 85 128 0 84
r 0.602158 2 6 sctp 1500 -------D 0 2.0 6.0 1 90 133 0 89
+ 0.602158 6 2 sctp 56 -------S 0 6.0 2.0 1 85 150 65535 65535
- 0.602158 6 2 sctp 56 -------S 0 6.0 2.0 1 85 150 65535 65535
r 0.603358 1 5 sctp 1500 -------D 0 1.0 5.0 1 86 129 0 85
r 0.603358 2 6 sctp 1500 -------D 0 2.0 6.0 1 91 134 0 90
+ 0.603358 6 2 sctp 52 -------S 0 6.0 2.0 1 88 151 65535 65535
- 0.603358 6 2 sctp 52 -------S 0 6.0 2.0 1 88 151 65535 65535
r 0.604558 1 5 sctp 1500 -------D 0 1.0 5.0 1 89 132 0 88
r 0.635194 7 3 sctp 48 -------S 0 7.0 3.0 1 58 135 65535 65535
+ 0.635194 3 7 sctp 1500 -------D 0 3.0 7.0 1 92 152 0 91
- 0.635194 3 7 sctp 1500 -------D 0 3.0 7.0 1 92 152 0 91
+ 0.635194 2 6 sctp 1500 -------D 0 2.0 6.0 1 93 153 0 92
- 0.635194 2 6 sctp 1500 -------D 0 2.0 6.0 1 93 153 0 92
r 0.6364 6 2 sctp 56 -------S 0 6.0 2.0 1 58 136 65535 65535
+ 0.6364 1 5 sctp 1500 -------D 0 1.0 5.0 1 94 154 0 93
- 0.6364 1 5 sctp 1500 -------D 0 1.0 5.0 1 94 154 0 93
+ 0.6364 2 6 sctp 1500 -------D 0 2.0 6.0 1 95 155 0 94
- 0.6364 2 6 sctp 1500 -------D 0 2.0 6.0 1 95 155 0 94
r 0.637594 5 1 sctp 48 -------S 0 5.0 1.0 1 62 137 65535 65535
+ 0.637594 3 7 sctp 1500 -------D 0 3.0 7.0 1 96 156 0 95
- 0.637594 3 7 sctp 1500 -------D 0 3.0 7.0 1 96 156 0 95
+ 0.637594 3 7 sctp 1500 -------D 0 3.0 7.0 1 97 157 0 96
+ 0.637594 1 5 sctp 1500 -------D 0 1.0 5.0 1 98 158 0 97
r 0.637597 6 2 sctp 48 -------S 0 6.0 2.0 1 64 138 65535 65535
+ 0.637597 2 6 sctp 1500 -------D 0 2.0 6.0 1 99 159 0 98
+ 0.637597 3 7 sctp 1500 -------D 0 3.0 7.0 1 100 160 0 99
- 0.6376 1 5 sctp 1500 -------D 0 1.0 5.0 1 98 158 0 97
- 0.6376 2 6 sctp 1500 -------D 0 2.0 6.0 1 99 159 0 98
- 0.638794 3 7 sctp 1500 -------D 0 3.0 7.0 1 97 157 0 96
r 0.638797 5 1 sctp 48 -------S 0 5.0 1.0 1 66 139 65535 65535
+ 0.638797 1 5 sctp 1500 -------D 0 1.0 5.0 1 101 161 0 100
+ 0.638797 3 7 sctp 1500 -------D 0 3.0 7.0 1 102 162 0 101
- 0.6388 1 5 sctp 1500 -------D 0 1.0 5.0 1 101 161 0 100
- 0.639994 3 7 sctp 1500 -------D 0 3.0 7.0 1 100 160 0 99
r 0.639997 7 3 sctp 52 -------S 0 7.0 3.0 1 66 140 65535 65535
+ 0.639997 2 6 sctp 1500 -------D 0 2.0 6.0 1 103 163 0 102
- 0.639997 2 6 sctp 1500 -------D 0 2.0 6.0 1 103 163 0 102
+ 0.639997 3 7 sctp 1500 -------D 0 3.0 7.0 1 104 164 0 103
r 0.639997 6 2 sctp 48 -------S 0 6.0 2.0 1 70 141 65535 65535
+ 0.639997 1 5 sctp 1500 -------D 0 1.0 5.0 1 105 165 0 104
+ 0.639997 2 6 sctp 1500 -------D 0 2.0 6.0 1 106 166 0 105
- 0.64 1 5 sctp 1500 -------D 0 1.0 5.0 1 105 165 0 104
- 0.641194 3 7 sctp 1500 -------D 0 3.0 7.0 1 102 162 0 101
r 0.641197 5 1 sctp 48 -------S 0 5.0 1.0 1 72 142 65535 65535
+ 0.641197 3 7 sctp 1500 -------D 0 3.0 7.0 1 107 167 0 106
+ 0.641197 1 5 sctp 1500 -------D 0 1.0 5.0 1 108 168 0 107
- 0.641197 2 6 sctp 1500 -------D 0 2.0 6.0 1 106 166 0 105
- 0.6412 1 5 sctp 1500 -------D 0 1.0 5.0 1 108 168 0 107
- 0.642394 3 7 sctp 1500 -------D 0 3.0 7.0 1 104 164 0 103
r 0.642397 7 3 sctp 52 -------S 0 7.0 3.0 1 72 143 65535 65535
+ 0.642397 2 6 sctp 1500 -------D 0 2.0 6.0 1 109 169 0 108
+ 0.642397 3 7 sctp 1500 -------D 0 3.0 7.0 1 110 170 0 109
r 0.642397 6 2 sctp 48 -------S 0 6.0 2.0 1 76 144 65535 65535
+ 0.642397 1 5 sctp 1500 -------D 0 1.0 5.0 1 111 171 0 110
+ 0.642397 2 6 sctp 1500 -------D 0 2.0 6.0 1 112 172 0 111
- 0.642397 2 6 sctp 1500 -------D 0 2.0 6.0 1 109 169 0 108
- 0.6424 1 5 sctp 1500 -------D 0 1.0 5.0 1 111 171 0 110
- 0.643594 3 7 sctp 1500 -------D 0 3.0 7.0 1 107 167 0 106
r 0.643597 5 1 sctp 48 -------S 0 5.0 1.0 1 78 145 65535 65535
+ 0.643597 3 7 sctp 1500 -------D 0 3.0 7.0 1 113 173 0 112
+ 0.643597 1 5 sctp 1500 -------D 0 1.0 5.0 1 114 174 0 113
- 0.643597 2 6 sctp 1500 -------D 0 2.0 6.0 1 112 172 0 111
- 0.6436 1 5 sctp 1500 -------D 0 1.0 5.0 1 114 174 0 113
- 0.644794 3 7 sctp 1500 -------D 0 3.0 7.0 1 110 170 0 109
r 0.644797 7 3 sctp 52 -------S 0 7.0 3.0 1 78 146 65535 65535
+ 0.644797 2 6 sctp 1500 -------D 0 2.0 6.0 1 115 175 0 114
+ 0.644797 3 7 sctp 1500 -------D 0 3.0 7.0 1 116 176 0 115
r 0.644797 6 2 sctp 48 -------S 0 6.0 2.0 1 82 147 65535 65535
+ 0.644797 1 5 sctp 1500 -------D 0 1.0 5.0 1 117 177 0 116
+ 0.644797 2 6 sctp 1500 -------D 0 2.0 6.0 1 118 178 0 117
- 0.644797 2 6 sctp 1500 -------D 0 2.0 6.0 1 115 175 0 114
- 0.6448 1 5 sctp 1500 -------D 0 1.0 5.0 1 117 177 0 116
- 0.645994 3 7 sctp 1500 -------D 0 3.0 7.0 1 113 173 0 112
r 0.645997 5 1 sctp 48 -------S 0 5.0 1.0 1 84 148 65535 65535
+ 0.645997 3 7 sctp 1500 -------D 0 3.0 7.0 1 119 179 0 118
+ 0.645997 1 5 sctp 1500 -------D 0 1.0 5.0 1 120 180 0 119
- 0.645997 2 6 sctp 1500 -------D 0 2.0 6.0 1 118 178 0 117
- 0.646 1 5 sctp 1500 -------D 0 1.0 5.0 1 120 180 0 119
- 0.647194 3 7 sctp 1500 -------D 0 3.0 7.0 1 116 176 0 115
r 0.647197 7 3 sctp 52 -------S 0 7.0 3.0 1 84 149 65535 65535
+ 0.647197 2 6 sctp 1500 -------D 0 2.0 6.0 1 121 181 0 120
+ 0.647197 3 7 sctp 1500 -------D 0 3.0 7.0 1 122 182 0 121
- 0.647197 2 6 sctp 1500 -------D 0 2.0 6.0 1 121 181 0 120
r 0.647203 6 2 sctp 56 -------S 0 6.0 2.0 1 85 150 65535 65535
+ 0.647203 1 5 sctp 1500 -------D 0 1.0 5.0 1 123 183 0 122
- 0.647203 1 5 sctp 1500 -------D 0 1.0 5.0 1 123 183 0 122
+ 0.647203 2 6 sctp 1500 -------D 0 2.0 6.0 1 124 184 0 123
- 0.648394 3 7 sctp 1500 -------D 0 3.0 7.0 1 119 179 0 118
- 0.648397 2 6 sctp 1500 -------D 0 2.0 6.0 1 124 184 0 123
r 0.6484 6 2 sctp 52 -------S 0 6.0 2.0 1 88 151 65535 65535
+ 0.6484 1 5 sctp 1500 -------D 0 1.0 5.0 1 125 185 0 124
+ 0.6484 1 5 sctp 1500 -------D 0 1.0 5.0 1 126 186 0 125
+ 0.6484 2 6 sctp 1500 -------D 0 2.0 6.0 1 127 187 0 126
+ 0.6484 2 6 sctp 1500 -------D 0 2.0 6.0 1 128 188 0 127
- 0.648403 1 5 sctp 1500 -------D 0 1.0 5.0 1 125 185 0 124