+ 0.5 0 1 sctp 56 -------I 0 0.0 1.0 1 -1 2 65535 65535
- 0.5 0 1 sctp 56 -------I 0 0.0 1.0 1 -1 2 65535 65535
r 0.800896 0 1 sctp 56 -------I 0 0.0 1.0 1 -1 2 65535 65535
+ 0.800896 1 0 sctp 56 -------I 0 1.0 0.0 1 -1 3 65535 65535
- 0.800896 1 0 sctp 56 -------I 0 1.0 0.0 1 -1 3 65535 65535
r 1.101792 1 0 sctp 56 -------I 0 1.0 0.0 1 -1 3 65535 65535
+ 1.101792 0 1 sctp 36 -------I 0 0.0 1.0 1 -1 4 65535 65535
- 1.101792 0 1 sctp 36 -------I 0 0.0 1.0 1 -1 4 65535 65535
r 1.402368 0 1 sctp 36 -------I 0 0.0 1.0 1 -1 4 65535 65535
+ 1.402368 1 0 sctp 36 -------I 0 1.0 0.0 1 -1 5 65535 65535
- 1.402368 1 0 sctp 36 -------I 0 1.0 0.0 1 -1 5 65535 65535
r 1.702944 1 0 sctp 36 -------I 0 1.0 0.0 1 -1 5 65535 65535
+ 1.702944 0 1 sctp 56 -------H 0 0.0 1.0 1 -1 6 65535 65535
- 1.702944 0 1 sctp 56 -------H 0 0.0 1.0 1 -1 6 65535 65535
r 2.00384 0 1 sctp 56 -------H 0 0.0 1.0 1 -1 6 65535 65535
+ 2.00384 1 0 sctp 56 -------B 0 1.0 0.0 1 -1 7 65535 65535
- 2.00384 1 0 sctp 56 -------B 0 1.0 0.0 1 -1 7 65535 65535
r 2.304736 1 0 sctp 56 -------B 0 1.0 0.0 1 -1 7 65535 65535
+ 2.304736 0 1 sctp 1480 -------D 0 0.0 1.0 2 1 8 0 0
+ 2.304736 0 1 sctp 1480 -------D 0 0.0 1.0 2 2 8 1 0
- 2.304736 0 1 sctp 1480 -------D 0 0.0 1.0 2 1 8 0 0
- 2.304736 0 1 sctp 1480 -------D 0 0.0 1.0 2 2 8 1 0
+ 2.304736 0 1 sctp 1480 -------D 0 0.0 1.0 2 3 9 2 0
+ 2.304736 0 1 sctp 1480 -------D 0 0.0 1.0 2 4 9 3 0
+ 2.304736 0 1 sctp 1480 -------D 0 0.0 1.0 2 5 10 4 0
+ 2.304736 0 1 sctp 1480 -------D 0 0.0 1.0 2 6 10 5 0
- 2.328416 0 1 sctp 1480 -------D 0 0.0 1.0 2 3 9 2 0
- 2.328416 0 1 sctp 1480 -------D 0 0.0 1.0 2 4 9 3 0
- 2.352096 0 1 sctp 1480 -------D 0 0.0 1.0 2 5 10 4 0
- 2.352096 0 1 sctp 1480 -------D 0 0.0 1.0 2 6 10 5 0
r 2.628416 0 1 sctp 1480 -------D 0 0.0 1.0 2 1 8 0 0
r 2.628416 0 1 sctp 1480 -------D 0 0.0 1.0 2 2 8 1 0
+ 2.628416 1 0 sctp 48 -------S 0 1.0 0.0 1 2 11 65535 65535
- 2.628416 1 0 sctp 48 -------S 0 1.0 0.0 1 2 11 65535 65535
r 2.652096 0 1 sctp 1480 -------D 0 0.0 1.0 2 3 9 2 0
r 2.652096 0 1 sctp 1480 -------D 0 0.0 1.0 2 4 9 3 0
+ 2.652096 1 0 sctp 48 -------S 0 1.0 0.0 1 4 12 65535 65535
- 2.652096 1 0 sctp 48 -------S 0 1.0 0.0 1 4 12 65535 65535
r 2.675776 0 1 sctp 1480 -------D 0 0.0 1.0 2 5 10 4 0
r 2.675776 0 1 sctp 1480 -------D 0 0.0 1.0 2 6 10 5 0
+ 2.675776 1 0 sctp 48 -------S 0 1.0 0.0 1 6 13 65535 65535
- 2.675776 1 0 sctp 48 -------S 0 1.0 0.0 1 6 13 65535 65535
r 2.929184 1 0 sctp 48 -------S 0 1.0 0.0 1 2 11 65535 65535
+ 2.929184 0 1 sctp 1480 -------D 0 0.0 1.0 2 7 14 6 0
+ 2.929184 0 1 sctp 1480 -------D 0 0.0 1.0 2 8 14 7 0
- 2.929184 0 1 sctp 1480 -------D 0 0.0 1.0 2 7 14 6 0
- 2.929184 0 1 sctp 1480 -------D 0 0.0 1.0 2 8 14 7 0
r 2.952864 1 0 sctp 48 -------S 0 1.0 0.0 1 4 12 65535 65535
+ 2.952864 0 1 sctp 1480 -------D 0 0.0 1.0 2 9 15 8 0
+ 2.952864 0 1 sctp 1480 -------D 0 0.0 1.0 2 10 15 9 0
- 2.952864 0 1 sctp 1480 -------D 0 0.0 1.0 2 9 15 8 0
- 2.952864 0 1 sctp 1480 -------D 0 0.0 1.0 2 10 15 9 0
r 2.976544 1 0 sctp 48 -------S 0 1.0 0.0 1 6 13 65535 65535
+ 2.976544 0 1 sctp 1480 -------D 0 0.0 1.0 2 11 16 0 1
+ 2.976544 0 1 sctp 1480 -------D 0 0.0 1.0 2 12 16 1 1
- 2.976544 0 1 sctp 1480 -------D 0 0.0 1.0 2 11 16 0 1
- 2.976544 0 1 sctp 1480 -------D 0 0.0 1.0 2 12 16 1 1
r 3.252864 0 1 sctp 1480 -------D 0 0.0 1.0 2 7 14 6 0
r 3.252864 0 1 sctp 1480 -------D 0 0.0 1.0 2 8 14 7 0
+ 3.252864 1 0 sctp 48 -------S 0 1.0 0.0 1 8 17 65535 65535
- 3.252864 1 0 sctp 48 -------S 0 1.0 0.0 1 8 17 65535 65535
r 3.276544 0 1 sctp 1480 -------D 0 0.0 1.0 2 9 15 8 0
r 3.276544 0 1 sctp 1480 -------D 0 0.0 1.0 2 10 15 9 0
+ 3.276544 1 0 sctp 48 -------S 0 1.0 0.0 1 10 18 65535 65535
- 3.276544 1 0 sctp 48 -------S 0 1.0 0.0 1 10 18 65535 65535
r 3.300224 0 1 sctp 1480 -------D 0 0.0 1.0 2 11 16 0 1
r 3.300224 0 1 sctp 1480 -------D 0 0.0 1.0 2 12 16 1 1
+ 3.300224 1 0 sctp 48 -------S 0 1.0 0.0 1 12 19 65535 65535
- 3.300224 1 0 sctp 48 -------S 0 1.0 0.0 1 12 19 65535 65535
r 3.553632 1 0 sctp 48 -------S 0 1.0 0.0 1 8 17 65535 65535
+ 3.553632 0 1 sctp 1480 -------D 0 0.0 1.0 2 13 20 2 1
+ 3.553632 0 1 sctp 1480 -------D 0 0.0 1.0 2 14 20 3 1
- 3.553632 0 1 sctp 1480 -------D 0 0.0 1.0 2 13 20 2 1
- 3.553632 0 1 sctp 1480 -------D 0 0.0 1.0 2 14 20 3 1
r 3.577312 1 0 sctp 48 -------S 0 1.0 0.0 1 10 18 65535 65535
+ 3.577312 0 1 sctp 1480 -------D 0 0.0 1.0 2 15 21 4 1
+ 3.577312 0 1 sctp 1480 -------D 0 0.0 1.0 2 16 21 5 1
- 3.577312 0 1 sctp 1480 -------D 0 0.0 1.0 2 15 21 4 1
- 3.577312 0 1 sctp 1480 -------D 0 0.0 1.0 2 16 21 5 1
r 3.600992 1 0 sctp 48 -------S 0 1.0 0.0 1 12 19 65535 65535
+ 3.600992 0 1 sctp 1480 -------D 0 0.0 1.0 2 17 22 6 1
+ 3.600992 0 1 sctp 1480 -------D 0 0.0 1.0 2 18 22 7 1
- 3.600992 0 1 sctp 1480 -------D 0 0.0 1.0 2 17 22 6 1
- 3.600992 0 1 sctp 1480 -------D 0 0.0 1.0 2 18 22 7 1
r 3.877312 0 1 sctp 1480 -------D 0 0.0 1.0 2 13 20 2 1
r 3.877312 0 1 sctp 1480 -------D 0 0.0 1.0 2 14 20 3 1
+ 3.877312 1 0 sctp 48 -------S 0 1.0 0.0 1 14 23 65535 65535
- 3.877312 1 0 sctp 48 -------S 0 1.0 0.0 1 14 23 65535 65535
r 3.900992 0 1 sctp 1480 -------D 0 0.0 1.0 2 15 21 4 1
r 3.900992 0 1 sctp 1480 -------D 0 0.0 1.0 2 16 21 5 1
+ 3.900992 1 0 sctp 48 -------S 0 1.0 0.0 1 16 24 65535 65535
- 3.900992 1 0 sctp 48 -------S 0 1.0 0.0 1 16 24 65535 65535
r 3.924672 0 1 sctp 1480 -------D 0 0.0 1.0 2 17 22 6 1
r 3.924672 0 1 sctp 1480 -------D 0 0.0 1.0 2 18 22 7 1
+ 3.924672 1 0 sctp 48 -------S 0 1.0 0.0 1 18 25 65535 65535
- 3.924672 1 0 sctp 48 -------S 0 1.0 0.0 1 18 25 65535 65535
r 4.17808 1 0 sctp 48 -------S 0 1.0 0.0 1 14 23 65535 65535
d 4.17808 0 1 sctp 1480 -------D 0 0.0 1.0 2 19 26 8 1
d 4.17808 0 1 sctp 1480 -------D 0 0.0 1.0 2 20 26 9 1
r 4.20176 1 0 sctp 48 -------S 0 1.0 0.0 1 16 24 65535 65535
+ 4.20176 0 1 sctp 1480 -------D 0 0.0 1.0 2 21 27 0 2
+ 4.20176 0 1 sctp 1480 -------D 0 0.0 1.0 2 22 27 1 2
- 4.20176 0 1 sctp 1480 -------D 0 0.0 1.0 2 21 27 0 2
- 4.20176 0 1 sctp 1480 -------D 0 0.0 1.0 2 22 27 1 2
r 4.22544 1 0 sctp 48 -------S 0 1.0 0.0 1 18 25 65535 65535
+ 4.22544 0 1 sctp 1480 -------D 0 0.0 1.0 2 23 28 2 2
+ 4.22544 0 1 sctp 1480 -------D 0 0.0 1.0 2 24 28 3 2
- 4.22544 0 1 sctp 1480 -------D 0 0.0 1.0 2 23 28 2 2
- 4.22544 0 1 sctp 1480 -------D 0 0.0 1.0 2 24 28 3 2
r 4.52544 0 1 sctp 1480 -------D 0 0.0 1.0 2 21 27 0 2
r 4.52544 0 1 sctp 1480 -------D 0 0.0 1.0 2 22 27 1 2
+ 4.52544 1 0 sctp 52 -------S 0 1.0 0.0 1 18 29 65535 65535
- 4.52544 1 0 sctp 52 -------S 0 1.0 0.0 1 18 29 65535 65535
r 4.54912 0 1 sctp 1480 -------D 0 0.0 1.0 2 23 28 2 2
r 4.54912 0 1 sctp 1480 -------D 0 0.0 1.0 2 24 28 3 2
+ 4.54912 1 0 sctp 52 -------S 0 1.0 0.0 1 18 30 65535 65535
- 4.54912 1 0 sctp 52 -------S 0 1.0 0.0 1 18 30 65535 65535
r 4.826272 1 0 sctp 52 -------S 0 1.0 0.0 1 18 29 65535 65535
r 4.849952 1 0 sctp 52 -------S 0 1.0 0.0 1 18 30 65535 65535
d 5.38743 0 1 sctp 1480 -------D 0 0.0 1.0 2 19 31 8 1
d 5.38743 0 1 sctp 1480 -------D 0 0.0 1.0 2 20 31 9 1
+ 7.711411 0 1 sctp 1480 -------D 0 0.0 1.0 2 19 32 8 1
+ 7.711411 0 1 sctp 1480 -------D 0 0.0 1.0 2 20 32 9 1
- 7.711411 0 1 sctp 1480 -------D 0 0.0 1.0 2 19 32 8 1
- 7.711411 0 1 sctp 1480 -------D 0 0.0 1.0 2 20 32 9 1
r 8.035091 0 1 sctp 1480 -------D 0 0.0 1.0 2 19 32 8 1
r 8.035091 0 1 sctp 1480 -------D 0 0.0 1.0 2 20 32 9 1
+ 8.035091 1 0 sctp 48 -------S 0 1.0 0.0 1 24 33 65535 65535
- 8.035091 1 0 sctp 48 -------S 0 1.0 0.0 1 24 33 65535 65535
r 8.335859 1 0 sctp 48 -------S 0 1.0 0.0 1 24 33 65535 65535
+ 8.335859 0 1 sctp 1480 -------D 0 0.0 1.0 2 25 34 4 2
+ 8.335859 0 1 sctp 1480 -------D 0 0.0 1.0 2 26 34 5 2
- 8.335859 0 1 sctp 1480 -------D 0 0.0 1.0 2 25 34 4 2
- 8.335859 0 1 sctp 1480 -------D 0 0.0 1.0 2 26 34 5 2
+ 8.335859 0 1 sctp 1480 -------D 0 0.0 1.0 2 27 35 6 2
+ 8.335859 0 1 sctp 1480 -------D 0 0.0 1.0 2 28 35 7 2
- 8.359539 0 1 sctp 1480 -------D 0 0.0 1.0 2 27 35 6 2
- 8.359539 0 1 sctp 1480 -------D 0 0.0 1.0 2 28 35 7 2
r 8.659539 0 1 sctp 1480 -------D 0 0.0 1.0 2 25 34 4 2
r 8.659539 0 1 sctp 1480 -------D 0 0.0 1.0 2 26 34 5 2
+ 8.659539 1 0 sctp 48 -------S 0 1.0 0.0 1 26 36 65535 65535
- 8.659539 1 0 sctp 48 -------S 0 1.0 0.0 1 26 36 65535 65535
r 8.683219 0 1 sctp 1480 -------D 0 0.0 1.0 2 27 35 6 2
r 8.683219 0 1 sctp 1480 -------D 0 0.0 1.0 2 28 35 7 2
+ 8.683219 1 0 sctp 48 -------S 0 1.0 0.0 1 28 37 65535 65535
- 8.683219 1 0 sctp 48 -------S 0 1.0 0.0 1 28 37 65535 65535
r 8.960307 1 0 sctp 48 -------S 0 1.0 0.0 1 26 36 65535 65535
+ 8.960307 0 1 sctp 1480 -------D 0 0.0 1.0 2 29 38 8 2
+ 8.960307 0 1 sctp 1480 -------D 0 0.0 1.0 2 30 38 9 2
- 8.960307 0 1 sctp 1480 -------D 0 0.0 1.0 2 29 38 8 2
- 8.960307 0 1 sctp 1480 -------D 0 0.0 1.0 2 30 38 9 2
+ 8.960307 0 1 sctp 1480 -------D 0 0.0 1.0 2 31 39 0 3
+ 8.960307 0 1 sctp 1480 -------D 0 0.0 1.0 2 32 39 1 3
r 8.983987 1 0 sctp 48 -------S 0 1.0 0.0 1 28 37 65535 65535
+ 8.983987 0 1 sctp 1480 -------D 0 0.0 1.0 2 33 40 2 3
+ 8.983987 0 1 sctp 1480 -------D 0 0.0 1.0 2 34 40 3 3
- 8.983987 0 1 sctp 1480 -------D 0 0.0 1.0 2 31 39 0 3
- 8.983987 0 1 sctp 1480 -------D 0 0.0 1.0 2 32 39 1 3
- 9.007667 0 1 sctp 1480 -------D 0 0.0 1.0 2 33 40 2 3
- 9.007667 0 1 sctp 1480 -------D 0 0.0 1.0 2 34 40 3 3
r 9.283987 0 1 sctp 1480 -------D 0 0.0 1.0 2 29 38 8 2
r 9.283987 0 1 sctp 1480 -------D 0 0.0 1.0 2 30 38 9 2
+ 9.283987 1 0 sctp 48 -------S 0 1.0 0.0 1 30 41 65535 65535
- 9.283987 1 0 sctp 48 -------S 0 1.0 0.0 1 30 41 65535 65535
r 9.307667 0 1 sctp 1480 -------D 0 0.0 1.0 2 31 39 0 3
r 9.307667 0 1 sctp 1480 -------D 0 0.0 1.0 2 32 39 1 3
+ 9.307667 1 0 sctp 48 -------S 0 1.0 0.0 1 32 42 65535 65535
- 9.307667 1 0 sctp 48 -------S 0 1.0 0.0 1 32 42 65535 65535
r 9.331347 0 1 sctp 1480 -------D 0 0.0 1.0 2 33 40 2 3
r 9.331347 0 1 sctp 1480 -------D 0 0.0 1.0 2 34 40 3 3
+ 9.331347 1 0 sctp 48 -------S 0 1.0 0.0 1 34 43 65535 65535
- 9.331347 1 0 sctp 48 -------S 0 1.0 0.0 1 34 43 65535 65535
r 9.584755 1 0 sctp 48 -------S 0 1.0 0.0 1 30 41 65535 65535
+ 9.584755 0 1 sctp 1480 -------D 0 0.0 1.0 2 35 44 4 3
+ 9.584755 0 1 sctp 1480 -------D 0 0.0 1.0 2 36 44 5 3
- 9.584755 0 1 sctp 1480 -------D 0 0.0 1.0 2 35 44 4 3
- 9.584755 0 1 sctp 1480 -------D 0 0.0 1.0 2 36 44 5 3
r 9.608435 1 0 sctp 48 -------S 0 1.0 0.0 1 32 42 65535 65535
+ 9.608435 0 1 sctp 1480 -------D 0 0.0 1.0 2 37 45 6 3
+ 9.608435 0 1 sctp 1480 -------D 0 0.0 1.0 2 38 45 7 3
- 9.608435 0 1 sctp 1480 -------D 0 0.0 1.0 2 37 45 6 3
- 9.608435 0 1 sctp 1480 -------D 0 0.0 1.0 2 38 45 7 3
r 9.632115 1 0 sctp 48 -------S 0 1.0 0.0 1 34 43 65535 65535
+ 9.632115 0 1 sctp 1480 -------D 0 0.0 1.0 2 39 46 8 3
+ 9.632115 0 1 sctp 1480 -------D 0 0.0 1.0 2 40 46 9 3
- 9.632115 0 1 sctp 1480 -------D 0 0.0 1.0 2 39 46 8 3
- 9.632115 0 1 sctp 1480 -------D 0 0.0 1.0 2 40 46 9 3
r 9.908435 0 1 sctp 1480 -------D 0 0.0 1.0 2 35 44 4 3
r 9.908435 0 1 sctp 1480 -------D 0 0.0 1.0 2 36 44 5 3
+ 9.908435 1 0 sctp 48 -------S 0 1.0 0.0 1 36 47 65535 65535
- 9.908435 1 0 sctp 48 -------S 0 1.0 0.0 1 36 47 65535 65535
r 9.932115 0 1 sctp 1480 -------D 0 0.0 1.0 2 37 45 6 3
r 9.932115 0 1 sctp 1480 -------D 0 0.0 1.0 2 38 45 7 3
+ 9.932115 1 0 sctp 48 -------S 0 1.0 0.0 1 38 48 65535 65535
- 9.932115 1 0 sctp 48 -------S 0 1.0 0.0 1 38 48 65535 65535
r 9.955795 0 1 sctp 1480 -------D 0 0.0 1.0 2 39 46 8 3
r 9.955795 0 1 sctp 1480 -------D 0 0.0 1.0 2 40 46 9 3
+ 9.955795 1 0 sctp 48 -------S 0 1.0 0.0 1 40 49 65535 65535
- 9.955795 1 0 sctp 48 -------S 0 1.0 0.0 1 40 49 65535 65535
