+ 0.5 0 1 sctp 56 -------I 0 0.0 1.0 1 -1 2 65535 65535
- 0.5 0 1 sctp 56 -------I 0 0.0 1.0 1 -1 2 65535 65535
r 0.800896 0 1 sctp 56 -------I 0 0.0 1.0 1 -1 2 65535 65535
+ 0.800896 1 0 sctp 56 -------I 0 1.0 0.0 1 -1 3 65535 65535
- 0.800896 1 0 sctp 56 -------I 0 1.0 0.0 1 -1 3 65535 65535
r 1.101792 1 0 sctp 56 -------I 0 1.0 0.0 1 -1 3 65535 65535
+ 1.101792 0 1 sctp 36 -------I 0 0.0 1.0 1 -1 4 65535 65535
- 1.101792 0 1 sctp 36 -------I 0 0.0 1.0 1 -1 4 65535 65535
r 1.402368 0 1 sctp 36 -------I 0 0.0 1.0 1 -1 4 65535 65535
+ 1.402368 1 0 sctp 36 -------I 0 1.0 0.0 1 -1 5 65535 65535
- 1.402368 1 0 sctp 36 -------I 0 1.0 0.0 1 -1 5 65535 65535
r 1.702944 1 0 sctp 36 -------I 0 1.0 0.0 1 -1 5 65535 65535
+ 1.702944 0 1 sctp 56 -------H 0 0.0 1.0 1 -1 6 65535 65535
- 1.702944 0 1 sctp 56 -------H 0 0.0 1.0 1 -1 6 65535 65535
r 2.00384 0 1 sctp 56 -------H 0 0.0 1.0 1 -1 6 65535 65535
+ 2.00384 1 0 sctp 56 -------B 0 1.0 0.0 1 -1 7 65535 65535
- 2.00384 1 0 sctp 56 -------B 0 1.0 0.0 1 -1 7 65535 65535
r 2.304736 1 0 sctp 56 -------B 0 1.0 0.0 1 -1 7 65535 65535
+ 2.304736 0 1 sctp 1480 -------D 0 0.0 1.0 2 1 8 0 0
+ 2.304736 0 1 sctp 1480 -------D 0 0.0 1.0 2 2 8 0 1
- 2.304736 0 1 sctp 1480 -------D 0 0.0 1.0 2 1 8 0 0
- 2.304736 0 1 sctp 1480 -------D 0 0.0 1.0 2 2 8 0 1
+ 2.304736 0 1 sctp 1480 -------D 0 0.0 1.0 2 3 9 0 2
+ 2.304736 0 1 sctp 1480 -------D 0 0.0 1.0 2 4 9 0 3
+ 2.304736 0 1 sctp 756 -------D 0 0.0 1.0 1 5 10 0 4
- 2.328416 0 1 sctp 1480 -------D 0 0.0 1.0 2 3 9 0 2
- 2.328416 0 1 sctp 1480 -------D 0 0.0 1.0 2 4 9 0 3
- 2.352096 0 1 sctp 756 -------D 0 0.0 1.0 1 5 10 0 4
r 2.628416 0 1 sctp 1480 -------D 0 0.0 1.0 2 1 8 0 0
r 2.628416 0 1 sctp 1480 -------D 0 0.0 1.0 2 2 8 0 1
+ 2.628416 1 0 sctp 48 -------S 0 1.0 0.0 1 2 11 65535 65535
- 2.628416 1 0 sctp 48 -------S 0 1.0 0.0 1 2 11 65535 65535
r 2.652096 0 1 sctp 1480 -------D 0 0.0 1.0 2 3 9 0 2
r 2.652096 0 1 sctp 1480 -------D 0 0.0 1.0 2 4 9 0 3
+ 2.652096 1 0 sctp 48 -------S 0 1.0 0.0 1 4 12 65535 65535
- 2.652096 1 0 sctp 48 -------S 0 1.0 0.0 1 4 12 65535 65535
r 2.664192 0 1 sctp 756 -------D 0 0.0 1.0 1 5 10 0 4
+ 2.664192 1 0 sctp 48 -------S 0 1.0 0.0 1 5 13 65535 65535
- 2.664192 1 0 sctp 48 -------S 0 1.0 0.0 1 5 13 65535 65535
r 2.929184 1 0 sctp 48 -------S 0 1.0 0.0 1 2 11 65535 65535
+ 2.929184 0 1 sctp 1480 -------D 0 0.0 1.0 2 6 14 0 5
+ 2.929184 0 1 sctp 1480 -------D 0 0.0 1.0 2 7 14 0 6
- 2.929184 0 1 sctp 1480 -------D 0 0.0 1.0 2 6 14 0 5
- 2.929184 0 1 sctp 1480 -------D 0 0.0 1.0 2 7 14 0 6
r 2.952864 1 0 sctp 48 -------S 0 1.0 0.0 1 4 12 65535 65535
+ 2.952864 0 1 sctp 1480 -------D 0 0.0 1.0 2 8 15 0 7
+ 2.952864 0 1 sctp 1480 -------D 0 0.0 1.0 2 9 15 0 8
- 2.952864 0 1 sctp 1480 -------D 0 0.0 1.0 2 8 15 0 7
- 2.952864 0 1 sctp 1480 -------D 0 0.0 1.0 2 9 15 0 8
r 2.96496 1 0 sctp 48 -------S 0 1.0 0.0 1 5 13 65535 65535
+ 2.96496 0 1 sctp 756 -------D 0 0.0 1.0 1 10 16 0 9
- 2.976544 0 1 sctp 756 -------D 0 0.0 1.0 1 10 16 0 9
r 3.252864 0 1 sctp 1480 -------D 0 0.0 1.0 2 6 14 0 5
r 3.252864 0 1 sctp 1480 -------D 0 0.0 1.0 2 7 14 0 6
+ 3.252864 1 0 sctp 48 -------S 0 1.0 0.0 1 7 17 65535 65535
- 3.252864 1 0 sctp 48 -------S 0 1.0 0.0 1 7 17 65535 65535
r 3.276544 0 1 sctp 1480 -------D 0 0.0 1.0 2 8 15 0 7
r 3.276544 0 1 sctp 1480 -------D 0 0.0 1.0 2 9 15 0 8
+ 3.276544 1 0 sctp 48 -------S 0 1.0 0.0 1 9 18 65535 65535
- 3.276544 1 0 sctp 48 -------S 0 1.0 0.0 1 9 18 65535 65535
r 3.28864 0 1 sctp 756 -------D 0 0.0 1.0 1 10 16 0 9
+ 3.28864 1 0 sctp 48 -------S 0 1.0 0.0 1 10 19 65535 65535
- 3.28864 1 0 sctp 48 -------S 0 1.0 0.0 1 10 19 65535 65535
r 3.553632 1 0 sctp 48 -------S 0 1.0 0.0 1 7 17 65535 65535
+ 3.553632 0 1 sctp 1480 -------D 0 0.0 1.0 2 11 20 0 10
+ 3.553632 0 1 sctp 1480 -------D 0 0.0 1.0 2 12 20 0 11
- 3.553632 0 1 sctp 1480 -------D 0 0.0 1.0 2 11 20 0 10
- 3.553632 0 1 sctp 1480 -------D 0 0.0 1.0 2 12 20 0 11
r 3.577312 1 0 sctp 48 -------S 0 1.0 0.0 1 9 18 65535 65535
+ 3.577312 0 1 sctp 1480 -------D 0 0.0 1.0 2 13 21 0 12
+ 3.577312 0 1 sctp 1480 -------D 0 0.0 1.0 2 14 21 0 13
- 3.577312 0 1 sctp 1480 -------D 0 0.0 1.0 2 13 21 0 12
- 3.577312 0 1 sctp 1480 -------D 0 0.0 1.0 2 14 21 0 13
r 3.589408 1 0 sctp 48 -------S 0 1.0 0.0 1 10 19 65535 65535
+ 3.589408 0 1 sctp 756 -------D 0 0.0 1.0 1 15 22 0 14
- 3.600992 0 1 sctp 756 -------D 0 0.0 1.0 1 15 22 0 14
r 3.877312 0 1 sctp 1480 -------D 0 0.0 1.0 2 11 20 0 10
r 3.877312 0 1 sctp 1480 -------D 0 0.0 1.0 2 12 20 0 11
+ 3.877312 1 0 sctp 48 -------S 0 1.0 0.0 1 12 23 65535 65535
- 3.877312 1 0 sctp 48 -------S 0 1.0 0.0 1 12 23 65535 65535
r 3.900992 0 1 sctp 1480 -------D 0 0.0 1.0 2 13 21 0 12
r 3.900992 0 1 sctp 1480 -------D 0 0.0 1.0 2 14 21 0 13
+ 3.900992 1 0 sctp 48 -------S 0 1.0 0.0 1 14 24 65535 65535
- 3.900992 1 0 sctp 48 -------S 0 1.0 0.0 1 14 24 65535 65535
r 3.913088 0 1 sctp 756 -------D 0 0.0 1.0 1 15 22 0 14
+ 3.913088 1 0 sctp 48 -------S 0 1.0 0.0 1 15 25 65535 65535
- 3.913088 1 0 sctp 48 -------S 0 1.0 0.0 1 15 25 65535 65535
r 4.17808 1 0 sctp 48 -------S 0 1.0 0.0 1 12 23 65535 65535
+ 4.17808 0 1 sctp 1480 -------D 0 0.0 1.0 2 16 26 0 15
+ 4.17808 0 1 sctp 1480 -------D 0 0.0 1.0 2 17 26 0 16
- 4.17808 0 1 sctp 1480 -------D 0 0.0 1.0 2 16 26 0 15
- 4.17808 0 1 sctp 1480 -------D 0 0.0 1.0 2 17 26 0 16
r 4.20176 1 0 sctp 48 -------S 0 1.0 0.0 1 14 24 65535 65535
+ 4.20176 0 1 sctp 1480 -------D 0 0.0 1.0 2 18 27 0 17
+ 4.20176 0 1 sctp 1480 -------D 0 0.0 1.0 2 19 27 0 18
- 4.20176 0 1 sctp 1480 -------D 0 0.0 1.0 2 18 27 0 17
- 4.20176 0 1 sctp 1480 -------D 0 0.0 1.0 2 19 27 0 18
r 4.213856 1 0 sctp 48 -------S 0 1.0 0.0 1 15 25 65535 65535
+ 4.213856 0 1 sctp 756 -------D 0 0.0 1.0 1 20 28 0 19
- 4.22544 0 1 sctp 756 -------D 0 0.0 1.0 1 20 28 0 19
r 4.50176 0 1 sctp 1480 -------D 0 0.0 1.0 2 16 26 0 15
r 4.50176 0 1 sctp 1480 -------D 0 0.0 1.0 2 17 26 0 16
+ 4.50176 1 0 sctp 48 -------S 0 1.0 0.0 1 17 29 65535 65535
- 4.50176 1 0 sctp 48 -------S 0 1.0 0.0 1 17 29 65535 65535
r 4.52544 0 1 sctp 1480 -------D 0 0.0 1.0 2 18 27 0 17
r 4.52544 0 1 sctp 1480 -------D 0 0.0 1.0 2 19 27 0 18
+ 4.52544 1 0 sctp 48 -------S 0 1.0 0.0 1 19 30 65535 65535
- 4.52544 1 0 sctp 48 -------S 0 1.0 0.0 1 19 30 65535 65535
r 4.537536 0 1 sctp 756 -------D 0 0.0 1.0 1 20 28 0 19
+ 4.537536 1 0 sctp 48 -------S 0 1.0 0.0 1 20 31 65535 65535
- 4.537536 1 0 sctp 48 -------S 0 1.0 0.0 1 20 31 65535 65535
r 4.802528 1 0 sctp 48 -------S 0 1.0 0.0 1 17 29 65535 65535
+ 4.802528 0 1 sctp 1480 -------D 0 0.0 1.0 2 21 32 0 20
+ 4.802528 0 1 sctp 1480 -------D 0 0.0 1.0 2 22 32 0 21
- 4.802528 0 1 sctp 1480 -------D 0 0.0 1.0 2 21 32 0 20
- 4.802528 0 1 sctp 1480 -------D 0 0.0 1.0 2 22 32 0 21
r 4.826208 1 0 sctp 48 -------S 0 1.0 0.0 1 19 30 65535 65535
+ 4.826208 0 1 sctp 1480 -------D 0 0.0 1.0 2 23 33 0 22
+ 4.826208 0 1 sctp 1480 -------D 0 0.0 1.0 2 24 33 0 23
- 4.826208 0 1 sctp 1480 -------D 0 0.0 1.0 2 23 33 0 22
- 4.826208 0 1 sctp 1480 -------D 0 0.0 1.0 2 24 33 0 23
r 4.838304 1 0 sctp 48 -------S 0 1.0 0.0 1 20 31 65535 65535
+ 4.838304 0 1 sctp 756 -------D 0 0.0 1.0 1 25 34 0 24
- 4.849888 0 1 sctp 756 -------D 0 0.0 1.0 1 25 34 0 24
r 5.126208 0 1 sctp 1480 -------D 0 0.0 1.0 2 21 32 0 20
r 5.126208 0 1 sctp 1480 -------D 0 0.0 1.0 2 22 32 0 21
+ 5.126208 1 0 sctp 48 -------S 0 1.0 0.0 1 22 35 65535 65535
- 5.126208 1 0 sctp 48 -------S 0 1.0 0.0 1 22 35 65535 65535
r 5.149888 0 1 sctp 1480 -------D 0 0.0 1.0 2 23 33 0 22
r 5.149888 0 1 sctp 1480 -------D 0 0.0 1.0 2 24 33 0 23
+ 5.149888 1 0 sctp 48 -------S 0 1.0 0.0 1 24 36 65535 65535
- 5.149888 1 0 sctp 48 -------S 0 1.0 0.0 1 24 36 65535 65535
r 5.161984 0 1 sctp 756 -------D 0 0.0 1.0 1 25 34 0 24
+ 5.161984 1 0 sctp 48 -------S 0 1.0 0.0 1 25 37 65535 65535
- 5.161984 1 0 sctp 48 -------S 0 1.0 0.0 1 25 37 65535 65535
r 5.426976 1 0 sctp 48 -------S 0 1.0 0.0 1 22 35 65535 65535
+ 5.426976 0 1 sctp 1480 -------D 0 0.0 1.0 2 26 38 0 25
+ 5.426976 0 1 sctp 1480 -------D 0 0.0 1.0 2 27 38 0 26
- 5.426976 0 1 sctp 1480 -------D 0 0.0 1.0 2 26 38 0 25
- 5.426976 0 1 sctp 1480 -------D 0 0.0 1.0 2 27 38 0 26
r 5.450656 1 0 sctp 48 -------S 0 1.0 0.0 1 24 36 65535 65535
+ 5.450656 0 1 sctp 1480 -------D 0 0.0 1.0 2 28 39 0 27
+ 5.450656 0 1 sctp 1480 -------D 0 0.0 1.0 2 29 39 0 28
- 5.450656 0 1 sctp 1480 -------D 0 0.0 1.0 2 28 39 0 27
- 5.450656 0 1 sctp 1480 -------D 0 0.0 1.0 2 29 39 0 28
r 5.462752 1 0 sctp 48 -------S 0 1.0 0.0 1 25 37 65535 65535
+ 5.462752 0 1 sctp 756 -------D 0 0.0 1.0 1 30 40 0 29
- 5.474336 0 1 sctp 756 -------D 0 0.0 1.0 1 30 40 0 29
r 5.750656 0 1 sctp 1480 -------D 0 0.0 1.0 2 26 38 0 25
r 5.750656 0 1 sctp 1480 -------D 0 0.0 1.0 2 27 38 0 26
+ 5.750656 1 0 sctp 48 -------S 0 1.0 0.0 1 27 41 65535 65535
- 5.750656 1 0 sctp 48 -------S 0 1.0 0.0 1 27 41 65535 65535
r 5.774336 0 1 sctp 1480 -------D 0 0.0 1.0 2 28 39 0 27
r 5.774336 0 1 sctp 1480 -------D 0 0.0 1.0 2 29 39 0 28
+ 5.774336 1 0 sctp 48 -------S 0 1.0 0.0 1 29 42 65535 65535
- 5.774336 1 0 sctp 48 -------S 0 1.0 0.0 1 29 42 65535 65535
r 5.786432 0 1 sctp 756 -------D 0 0.0 1.0 1 30 40 0 29
+ 5.786432 1 0 sctp 48 -------S 0 1.0 0.0 1 30 43 65535 65535
- 5.786432 1 0 sctp 48 -------S 0 1.0 0.0 1 30 43 65535 65535
r 6.051424 1 0 sctp 48 -------S 0 1.0 0.0 1 27 41 65535 65535
+ 6.051424 0 1 sctp 1480 -------D 0 0.0 1.0 2 31 44 0 30
+ 6.051424 0 1 sctp 1480 -------D 0 0.0 1.0 2 32 44 0 31
- 6.051424 0 1 sctp 1480 -------D 0 0.0 1.0 2 31 44 0 30
- 6.051424 0 1 sctp 1480 -------D 0 0.0 1.0 2 32 44 0 31
r 6.075104 1 0 sctp 48 -------S 0 1.0 0.0 1 29 42 65535 65535
+ 6.075104 0 1 sctp 1480 -------D 0 0.0 1.0 2 33 45 0 32
+ 6.075104 0 1 sctp 1480 -------D 0 0.0 1.0 2 34 45 0 33
- 6.075104 0 1 sctp 1480 -------D 0 0.0 1.0 2 33 45 0 32
- 6.075104 0 1 sctp 1480 -------D 0 0.0 1.0 2 34 45 0 33
r 6.0872 1 0 sctp 48 -------S 0 1.0 0.0 1 30 43 65535 65535
+ 6.0872 0 1 sctp 756 -------D 0 0.0 1.0 1 35 46 0 34
- 6.098784 0 1 sctp 756 -------D 0 0.0 1.0 1 35 46 0 34
r 6.375104 0 1 sctp 1480 -------D 0 0.0 1.0 2 31 44 0 30
r 6.375104 0 1 sctp 1480 -------D 0 0.0 1.0 2 32 44 0 31
+ 6.375104 1 0 sctp 48 -------S 0 1.0 0.0 1 32 47 65535 65535
- 6.375104 1 0 sctp 48 -------S 0 1.0 0.0 1 32 47 65535 65535
r 6.398784 0 1 sctp 1480 -------D 0 0.0 1.0 2 33 45 0 32
r 6.398784 0 1 sctp 1480 -------D 0 0.0 1.0 2 34 45 0 33
+ 6.398784 1 0 sctp 48 -------S 0 1.0 0.0 1 34 48 65535 65535
- 6.398784 1 0 sctp 48 -------S 0 1.0 0.0 1 34 48 65535 65535
r 6.41088 0 1 sctp 756 -------D 0 0.0 1.0 1 35 46 0 34
+ 6.41088 1 0 sctp 48 -------S 0 1.0 0.0 1 35 49 65535 65535
- 6.41088 1 0 sctp 48 -------S 0 1.0 0.0 1 35 49 65535 65535
r 6.675872 1 0 sctp 48 -------S 0 1.0 0.0 1 32 47 65535 65535
+ 6.675872 0 1 sctp 1480 -------D 0 0.0 1.0 2 36 50 0 35
+ 6.675872 0 1 sctp 1480 -------D 0 0.0 1.0 2 37 50 0 36
- 6.675872 0 1 sctp 1480 -------D 0 0.0 1.0 2 36 50 0 35
- 6.675872 0 1 sctp 1480 -------D 0 0.0 1.0 2 37 50 0 36
r 6.699552 1 0 sctp 48 -------S 0 1.0 0.0 1 34 48 65535 65535
+ 6.699552 0 1 sctp 1480 -------D 0 0.0 1.0 2 38 51 0 37
+ 6.699552 0 1 sctp 1480 -------D 0 0.0 1.0 2 39 51 0 38
- 6.699552 0 1 sctp 1480 -------D 0 0.0 1.0 2 38 51 0 37
- 6.699552 0 1 sctp 1480 -------D 0 0.0 1.0 2 39 51 0 38
r 6.711648 1 0 sctp 48 -------S 0 1.0 0.0 1 35 49 65535 65535
+ 6.711648 0 1 sctp 756 -------D 0 0.0 1.0 1 40 52 0 39
- 6.723232 0 1 sctp 756 -------D 0 0.0 1.0 1 40 52 0 39
r 6.999552 0 1 sctp 1480 -------D 0 0.0 1.0 2 36 50 0 35
r 6.999552 0 1 sctp 1480 -------D 0 0.0 1.0 2 37 50 0 36
+ 6.999552 1 0 sctp 48 -------S 0 1.0 0.0 1 37 53 65535 65535
- 6.999552 1 0 sctp 48 -------S 0 1.0 0.0 1 37 53 65535 65535
r 7.023232 0 1 sctp 1480 -------D 0 0.0 1.0 2 38 51 0 37
r 7.023232 0 1 sctp 1480 -------D 0 0.0 1.0 2 39 51 0 38
+ 7.023232 1 0 sctp 48 -------S 0 1.0 0.0 1 39 54 65535 65535
- 7.023232 1 0 sctp 48 -------S 0 1.0 0.0 1 39 54 65535 65535
r 7.035328 0 1 sctp 756 -------D 0 0.0 1.0 1 40 52 0 39
+ 7.035328 1 0 sctp 48 -------S 0 1.0 0.0 1 40 55 65535 65535
- 7.035328 1 0 sctp 48 -------S 0 1.0 0.0 1 40 55 65535 65535
r 7.30032 1 0 sctp 48 -------S 0 1.0 0.0 1 37 53 65535 65535
+ 7.30032 0 1 sctp 1480 -------D 0 0.0 1.0 2 41 56 0 40
+ 7.30032 0 1 sctp 1480 -------D 0 0.0 1.0 2 42 56 0 41
- 7.30032 0 1 sctp 1480 -------D 0 0.0 1.0 2 41 56 0 40
- 7.30032 0 1 sctp 1480 -------D 0 0.0 1.0 2 42 56 0 41
r 7.324 1 0 sctp 48 -------S 0 1.0 0.0 1 39 54 65535 65535
+ 7.324 0 1 sctp 1480 -------D 0 0.0 1.0 2 43 57 0 42
+ 7.324 0 1 sctp 1480 -------D 0 0.0 1.0 2 44 57 0 43
- 7.324 0 1 sctp 1480 -------D 0 0.0 1.0 2 43 57 0 42
- 7.324 0 1 sctp 1480 -------D 0 0.0 1.0 2 44 57 0 43
r 7.336096 1 0 sctp 48 -------S 0 1.0 0.0 1 40 55 65535 65535
+ 7.336096 0 1 sctp 756 -------D 0 0.0 1.0 1 45 58 0 44
- 7.34768 0 1 sctp 756 -------D 0 0.0 1.0 1 45 58 0 44
r 7.624 0 1 sctp 1480 -------D 0 0.0 1.0 2 41 56 0 40
r 7.624 0 1 sctp 1480 -------D 0 0.0 1.0 2 42 56 0 41
+ 7.624 1 0 sctp 48 -------S 0 1.0 0.0 1 42 59 65535 65535
- 7.624 1 0 sctp 48 -------S 0 1.0 0.0 1 42 59 65535 65535
r 7.64768 0 1 sctp 1480 -------D 0 0.0 1.0 2 43 57 0 42
r 7.64768 0 1 sctp 1480 -------D 0 0.0 1.0 2 44 57 0 43
+ 7.64768 1 0 sctp 48 -------S 0 1.0 0.0 1 44 60 65535 65535
- 7.64768 1 0 sctp 48 -------S 0 1.0 0.0 1 44 60 65535 65535
r 7.659776 0 1 sctp 756 -------D 0 0.0 1.0 1 45 58 0 44
+ 7.659776 1 0 sctp 48 -------S 0 1.0 0.0 1 45 61 65535 65535
- 7.659776 1 0 sctp 48 -------S 0 1.0 0.0 1 45 61 65535 65535
r 7.924768 1 0 sctp 48 -------S 0 1.0 0.0 1 42 59 65535 65535
+ 7.924768 0 1 sctp 1480 -------D 0 0.0 1.0 2 46 62 0 45
+ 7.924768 0 1 sctp 1480 -------D 0 0.0 1.0 2 47 62 0 46
- 7.924768 0 1 sctp 1480 -------D 0 0.0 1.0 2 46 62 0 45
- 7.924768 0 1 sctp 1480 -------D 0 0.0 1.0 2 47 62 0 46
r 7.948448 1 0 sctp 48 -------S 0 1.0 0.0 1 44 60 65535 65535
+ 7.948448 0 1 sctp 1480 -------D 0 0.0 1.0 2 48 63 0 47
+ 7.948448 0 1 sctp 1480 -------D 0 0.0 1.0 2 49 63 0 48
- 7.948448 0 1 sctp 1480 -------D 0 0.0 1.0 2 48 63 0 47
- 7.948448 0 1 sctp 1480 -------D 0 0.0 1.0 2 49 63 0 48
r 7.960544 1 0 sctp 48 -------S 0 1.0 0.0 1 45 61 65535 65535
+ 7.960544 0 1 sctp 756 -------D 0 0.0 1.0 1 50 64 0 49
- 7.972128 0 1 sctp 756 -------D 0 0.0 1.0 1 50 64 0 49
r 8.248448 0 1 sctp 1480 -------D 0 0.0 1.0 2 46 62 0 45
r 8.248448 0 1 sctp 1480 -------D 0 0.0 1.0 2 47 62 0 46
+ 8.248448 1 0 sctp 48 -------S 0 1.0 0.0 1 47 65 65535 65535
- 8.248448 1 0 sctp 48 -------S 0 1.0 0.0 1 47 65 65535 65535
r 8.272128 0 1 sctp 1480 -------D 0 0.0 1.0 2 48 63 0 47
r 8.272128 0 1 sctp 1480 -------D 0 0.0 1.0 2 49 63 0 48
+ 8.272128 1 0 sctp 48 -------S 0 1.0 0.0 1 49 66 65535 65535
- 8.272128 1 0 sctp 48 -------S 0 1.0 0.0 1 49 66 65535 65535
r 8.284224 0 1 sctp 756 -------D 0 0.0 1.0 1 50 64 0 49
+ 8.284224 1 0 sctp 48 -------S 0 1.0 0.0 1 50 67 65535 65535
- 8.284224 1 0 sctp 48 -------S 0 1.0 0.0 1 50 67 65535 65535
r 8.549216 1 0 sctp 48 -------S 0 1.0 0.0 1 47 65 65535 65535
+ 8.549216 0 1 sctp 1480 -------D 0 0.0 1.0 2 51 68 0 50
+ 8.549216 0 1 sctp 1480 -------D 0 0.0 1.0 2 52 68 0 51
- 8.549216 0 1 sctp 1480 -------D 0 0.0 1.0 2 51 68 0 50
- 8.549216 0 1 sctp 1480 -------D 0 0.0 1.0 2 52 68 0 51
r 8.572896 1 0 sctp 48 -------S 0 1.0 0.0 1 49 66 65535 65535
+ 8.572896 0 1 sctp 1480 -------D 0 0.0 1.0 2 53 69 0 52
+ 8.572896 0 1 sctp 1480 -------D 0 0.0 1.0 2 54 69 0 53
- 8.572896 0 1 sctp 1480 -------D 0 0.0 1.0 2 53 69 0 52
- 8.572896 0 1 sctp 1480 -------D 0 0.0 1.0 2 54 69 0 53
r 8.584992 1 0 sctp 48 -------S 0 1.0 0.0 1 50 67 65535 65535
+ 8.584992 0 1 sctp 756 -------D 0 0.0 1.0 1 55 70 0 54
- 8.596576 0 1 sctp 756 -------D 0 0.0 1.0 1 55 70 0 54
r 8.872896 0 1 sctp 1480 -------D 0 0.0 1.0 2 51 68 0 50
r 8.872896 0 1 sctp 1480 -------D 0 0.0 1.0 2 52 68 0 51
+ 8.872896 1 0 sctp 48 -------S 0 1.0 0.0 1 52 71 65535 65535
- 8.872896 1 0 sctp 48 -------S 0 1.0 0.0 1 52 71 65535 65535
r 8.896576 0 1 sctp 1480 -------D 0 0.0 1.0 2 53 69 0 52
r 8.896576 0 1 sctp 1480 -------D 0 0.0 1.0 2 54 69 0 53
+ 8.896576 1 0 sctp 48 -------S 0 1.0 0.0 1 54 72 65535 65535
- 8.896576 1 0 sctp 48 -------S 0 1.0 0.0 1 54 72 65535 65535
r 8.908672 0 1 sctp 756 -------D 0 0.0 1.0 1 55 70 0 54
+ 8.908672 1 0 sctp 48 -------S 0 1.0 0.0 1 55 73 65535 65535
- 8.908672 1 0 sctp 48 -------S 0 1.0 0.0 1 55 73 65535 65535
r 9.173664 1 0 sctp 48 -------S 0 1.0 0.0 1 52 71 65535 65535
+ 9.173664 0 1 sctp 1480 -------D 0 0.0 1.0 2 56 74 0 55
+ 9.173664 0 1 sctp 1480 -------D 0 0.0 1.0 2 57 74 0 56
- 9.173664 0 1 sctp 1480 -------D 0 0.0 1.0 2 56 74 0 55
- 9.173664 0 1 sctp 1480 -------D 0 0.0 1.0 2 57 74 0 56
r 9.197344 1 0 sctp 48 -------S 0 1.0 0.0 1 54 72 65535 65535
+ 9.197344 0 1 sctp 1480 -------D 0 0.0 1.0 2 58 75 0 57
+ 9.197344 0 1 sctp 1480 -------D 0 0.0 1.0 2 59 75 0 58
- 9.197344 0 1 sctp 1480 -------D 0 0.0 1.0 2 58 75 0 57
- 9.197344 0 1 sctp 1480 -------D 0 0.0 1.0 2 59 75 0 58
r 9.20944 1 0 sctp 48 -------S 0 1.0 0.0 1 55 73 65535 65535
+ 9.20944 0 1 sctp 756 -------D 0 0.0 1.0 1 60 76 0 59
- 9.221024 0 1 sctp 756 -------D 0 0.0 1.0 1 60 76 0 59
r 9.497344 0 1 sctp 1480 -------D 0 0.0 1.0 2 56 74 0 55
r 9.497344 0 1 sctp 1480 -------D 0 0.0 1.0 2 57 74 0 56
+ 9.497344 1 0 sctp 48 -------S 0 1.0 0.0 1 57 77 65535 65535
- 9.497344 1 0 sctp 48 -------S 0 1.0 0.0 1 57 77 65535 65535
r 9.521024 0 1 sctp 1480 -------D 0 0.0 1.0 2 58 75 0 57
r 9.521024 0 1 sctp 1480 -------D 0 0.0 1.0 2 59 75 0 58
+ 9.521024 1 0 sctp 48 -------S 0 1.0 0.0 1 59 78 65535 65535
- 9.521024 1 0 sctp 48 -------S 0 1.0 0.0 1 59 78 65535 65535
r 9.53312 0 1 sctp 756 -------D 0 0.0 1.0 1 60 76 0 59
+ 9.53312 1 0 sctp 48 -------S 0 1.0 0.0 1 60 79 65535 65535
- 9.53312 1 0 sctp 48 -------S 0 1.0 0.0 1 60 79 65535 65535
r 9.798112 1 0 sctp 48 -------S 0 1.0 0.0 1 57 77 65535 65535
+ 9.798112 0 1 sctp 1480 -------D 0 0.0 1.0 2 61 80 0 60
+ 9.798112 0 1 sctp 1480 -------D 0 0.0 1.0 2 62 80 0 61
- 9.798112 0 1 sctp 1480 -------D 0 0.0 1.0 2 61 80 0 60
- 9.798112 0 1 sctp 1480 -------D 0 0.0 1.0 2 62 80 0 61
r 9.821792 1 0 sctp 48 -------S 0 1.0 0.0 1 59 78 65535 65535
+ 9.821792 0 1 sctp 1480 -------D 0 0.0 1.0 2 63 81 0 62
+ 9.821792 0 1 sctp 1480 -------D 0 0.0 1.0 2 64 81 0 63
- 9.821792 0 1 sctp 1480 -------D 0 0.0 1.0 2 63 81 0 62
- 9.821792 0 1 sctp 1480 -------D 0 0.0 1.0 2 64 81 0 63
r 9.833888 1 0 sctp 48 -------S 0 1.0 0.0 1 60 79 65535 65535
+ 9.833888 0 1 sctp 756 -------D 0 0.0 1.0 1 65 82 0 64
- 9.845472 0 1 sctp 756 -------D 0 0.0 1.0 1 65 82 0 64
