+ 0.5 1 4 sctp 56 -------I 0 1.0 4.0 1 -1 4 65535 65535
- 0.5 1 4 sctp 56 -------I 0 1.0 4.0 1 -1 4 65535 65535
r 0.700896 1 4 sctp 56 -------I 0 1.0 4.0 1 -1 4 65535 65535
+ 0.700896 4 1 sctp 56 -------I 0 4.0 1.0 1 -1 5 65535 65535
- 0.700896 4 1 sctp 56 -------I 0 4.0 1.0 1 -1 5 65535 65535
r 0.901792 4 1 sctp 56 -------I 0 4.0 1.0 1 -1 5 65535 65535
+ 0.901792 1 4 sctp 36 -------I 0 1.0 4.0 1 -1 6 65535 65535
- 0.901792 1 4 sctp 36 -------I 0 1.0 4.0 1 -1 6 65535 65535
r 1.102368 1 4 sctp 36 -------I 0 1.0 4.0 1 -1 6 65535 65535
+ 1.102368 4 1 sctp 36 -------I 0 4.0 1.0 1 -1 7 65535 65535
- 1.102368 4 1 sctp 36 -------I 0 4.0 1.0 1 -1 7 65535 65535
r 1.302944 4 1 sctp 36 -------I 0 4.0 1.0 1 -1 7 65535 65535
+ 1.302944 1 4 sctp 56 -------H 0 1.0 4.0 1 -1 8 65535 65535
- 1.302944 1 4 sctp 56 -------H 0 1.0 4.0 1 -1 8 65535 65535
+ 1.302944 2 5 sctp 56 -------H 0 2.0 5.0 1 -1 9 65535 65535
- 1.302944 2 5 sctp 56 -------H 0 2.0 5.0 1 -1 9 65535 65535
r 1.50384 1 4 sctp 56 -------H 0 1.0 4.0 1 -1 8 65535 65535
+ 1.50384 4 1 sctp 56 -------B 0 4.0 1.0 1 -1 10 65535 65535
- 1.50384 4 1 sctp 56 -------B 0 4.0 1.0 1 -1 10 65535 65535
r 1.50384 2 5 sctp 56 -------H 0 2.0 5.0 1 -1 9 65535 65535
+ 1.50384 5 2 sctp 56 -------B 0 5.0 2.0 1 -1 11 65535 65535
- 1.50384 5 2 sctp 56 -------B 0 5.0 2.0 1 -1 11 65535 65535
r 1.704736 4 1 sctp 56 -------B 0 4.0 1.0 1 -1 10 65535 65535
r 1.704736 5 2 sctp 56 -------B 0 5.0 2.0 1 -1 11 65535 65535
+ 1.704736 1 4 sctp 1500 -------D 0 1.0 4.0 1 1 12 0 0
- 1.704736 1 4 sctp 1500 -------D 0 1.0 4.0 1 1 12 0 0
d 1.704736 1 4 sctp 1500 -------D 0 1.0 4.0 1 2 13 0 1
+ 1.704736 1 4 sctp 1500 -------D 0 1.0 4.0 1 3 14 0 2
+ 1.704736 2 5 sctp 1500 -------D 0 2.0 5.0 1 4 15 0 3
- 1.704736 2 5 sctp 1500 -------D 0 2.0 5.0 1 4 15 0 3
+ 1.704736 2 5 sctp 1500 -------D 0 2.0 5.0 1 5 16 0 4
+ 1.704736 2 5 sctp 1500 -------D 0 2.0 5.0 1 6 17 0 5
- 1.728736 1 4 sctp 1500 -------D 0 1.0 4.0 1 3 14 0 2
- 1.728736 2 5 sctp 1500 -------D 0 2.0 5.0 1 5 16 0 4
- 1.752736 2 5 sctp 1500 -------D 0 2.0 5.0 1 6 17 0 5
r 1.928736 1 4 sctp 1500 -------D 0 1.0 4.0 1 1 12 0 0
r 1.928736 2 5 sctp 1500 -------D 0 2.0 5.0 1 4 15 0 3
+ 1.928736 5 2 sctp 52 -------S 0 5.0 2.0 1 1 18 65535 65535
- 1.928736 5 2 sctp 52 -------S 0 5.0 2.0 1 1 18 65535 65535
r 1.952736 1 4 sctp 1500 -------D 0 1.0 4.0 1 3 14 0 2
r 1.952736 2 5 sctp 1500 -------D 0 2.0 5.0 1 5 16 0 4
+ 1.952736 5 2 sctp 52 -------S 0 5.0 2.0 1 1 19 65535 65535
- 1.952736 5 2 sctp 52 -------S 0 5.0 2.0 1 1 19 65535 65535
r 1.976736 2 5 sctp 1500 -------D 0 2.0 5.0 1 6 17 0 5
r 2.129568 5 2 sctp 52 -------S 0 5.0 2.0 1 1 18 65535 65535
+ 2.129568 1 4 sctp 1500 -------D 0 1.0 4.0 1 7 20 0 6
- 2.129568 1 4 sctp 1500 -------D 0 1.0 4.0 1 7 20 0 6
+ 2.129568 1 4 sctp 1500 -------D 0 1.0 4.0 1 8 21 0 7
+ 2.129568 2 5 sctp 1500 -------D 0 2.0 5.0 1 9 22 0 8
- 2.129568 2 5 sctp 1500 -------D 0 2.0 5.0 1 9 22 0 8
+ 2.129568 2 5 sctp 1500 -------D 0 2.0 5.0 1 10 23 0 9
r 2.153568 5 2 sctp 52 -------S 0 5.0 2.0 1 1 19 65535 65535
+ 2.153568 1 4 sctp 1500 -------D 0 1.0 4.0 1 11 24 0 10
+ 2.153568 2 5 sctp 1500 -------D 0 2.0 5.0 1 12 25 0 11
+ 2.153568 2 5 sctp 1500 -------D 0 2.0 5.0 1 13 26 0 12
- 2.153568 1 4 sctp 1500 -------D 0 1.0 4.0 1 8 21 0 7
- 2.153568 2 5 sctp 1500 -------D 0 2.0 5.0 1 10 23 0 9
+ 2.176736 5 2 sctp 52 -------S 0 5.0 2.0 1 1 27 65535 65535
- 2.176736 5 2 sctp 52 -------S 0 5.0 2.0 1 1 27 65535 65535
- 2.177568 1 4 sctp 1500 -------D 0 1.0 4.0 1 11 24 0 10
- 2.177568 2 5 sctp 1500 -------D 0 2.0 5.0 1 12 25 0 11
- 2.201568 2 5 sctp 1500 -------D 0 2.0 5.0 1 13 26 0 12
r 2.353568 1 4 sctp 1500 -------D 0 1.0 4.0 1 7 20 0 6
r 2.353568 2 5 sctp 1500 -------D 0 2.0 5.0 1 9 22 0 8
+ 2.353568 5 2 sctp 56 -------S 0 5.0 2.0 1 1 28 65535 65535
- 2.353568 5 2 sctp 56 -------S 0 5.0 2.0 1 1 28 65535 65535
r 2.377568 1 4 sctp 1500 -------D 0 1.0 4.0 1 8 21 0 7
r 2.377568 2 5 sctp 1500 -------D 0 2.0 5.0 1 10 23 0 9
+ 2.377568 5 2 sctp 52 -------S 0 5.0 2.0 1 1 29 65535 65535
- 2.377568 5 2 sctp 52 -------S 0 5.0 2.0 1 1 29 65535 65535
r 2.377568 5 2 sctp 52 -------S 0 5.0 2.0 1 1 27 65535 65535
+ 2.377568 2 5 sctp 1500 -------D 0 2.0 5.0 1 14 30 0 13
- 2.377568 2 5 sctp 1500 -------D 0 2.0 5.0 1 14 30 0 13
+ 2.377568 2 5 sctp 1500 -------D 0 2.0 5.0 1 15 31 0 14
r 2.401568 1 4 sctp 1500 -------D 0 1.0 4.0 1 11 24 0 10
r 2.401568 2 5 sctp 1500 -------D 0 2.0 5.0 1 12 25 0 11
+ 2.401568 5 2 sctp 52 -------S 0 5.0 2.0 1 1 32 65535 65535
- 2.401568 5 2 sctp 52 -------S 0 5.0 2.0 1 1 32 65535 65535
- 2.401568 2 5 sctp 1500 -------D 0 2.0 5.0 1 15 31 0 14
r 2.425568 2 5 sctp 1500 -------D 0 2.0 5.0 1 13 26 0 12
r 2.554464 5 2 sctp 56 -------S 0 5.0 2.0 1 1 28 65535 65535
+ 2.554464 1 4 sctp 1500 -------D 0 1.0 4.0 1 16 33 0 15
- 2.554464 1 4 sctp 1500 -------D 0 1.0 4.0 1 16 33 0 15
+ 2.554464 2 5 sctp 1500 -------D 0 2.0 5.0 1 17 34 0 16
- 2.554464 2 5 sctp 1500 -------D 0 2.0 5.0 1 17 34 0 16
+ 2.554464 2 5 sctp 1500 -------D 0 2.0 5.0 1 18 35 0 17
r 2.5784 5 2 sctp 52 -------S 0 5.0 2.0 1 1 29 65535 65535
d 2.5784 2 5 sctp 1500 -------D 0 2.0 5.0 1 2 36 0 1
+ 2.5784 2 5 sctp 1500 -------D 0 2.0 5.0 1 19 37 0 18
- 2.578464 2 5 sctp 1500 -------D 0 2.0 5.0 1 18 35 0 17
r 2.601568 2 5 sctp 1500 -------D 0 2.0 5.0 1 14 30 0 13
+ 2.601568 5 2 sctp 52 -------S 0 5.0 2.0 1 1 38 65535 65535
- 2.601568 5 2 sctp 52 -------S 0 5.0 2.0 1 1 38 65535 65535
r 2.6024 5 2 sctp 52 -------S 0 5.0 2.0 1 1 32 65535 65535
+ 2.6024 1 4 sctp 1500 -------D 0 1.0 4.0 1 20 39 0 19
- 2.6024 1 4 sctp 1500 -------D 0 1.0 4.0 1 20 39 0 19
+ 2.6024 1 4 sctp 1500 -------D 0 1.0 4.0 1 21 40 0 20
+ 2.6024 2 5 sctp 1500 -------D 0 2.0 5.0 1 22 41 0 21
+ 2.6024 2 5 sctp 1500 -------D 0 2.0 5.0 1 23 42 0 22
- 2.602464 2 5 sctp 1500 -------D 0 2.0 5.0 1 19 37 0 18
r 2.625568 2 5 sctp 1500 -------D 0 2.0 5.0 1 15 31 0 14
- 2.6264 1 4 sctp 1500 -------D 0 1.0 4.0 1 21 40 0 20
- 2.626464 2 5 sctp 1500 -------D 0 2.0 5.0 1 22 41 0 21
- 2.650464 2 5 sctp 1500 -------D 0 2.0 5.0 1 23 42 0 22
r 2.778464 1 4 sctp 1500 -------D 0 1.0 4.0 1 16 33 0 15
+ 2.778464 4 1 sctp 52 -------S 0 4.0 1.0 1 1 43 65535 65535
- 2.778464 4 1 sctp 52 -------S 0 4.0 1.0 1 1 43 65535 65535
r 2.778464 2 5 sctp 1500 -------D 0 2.0 5.0 1 17 34 0 16
r 2.8024 5 2 sctp 52 -------S 0 5.0 2.0 1 1 38 65535 65535
+ 2.8024 2 5 sctp 1500 -------D 0 2.0 5.0 1 24 44 0 23
- 2.8024 2 5 sctp 1500 -------D 0 2.0 5.0 1 24 44 0 23
+ 2.8024 2 5 sctp 1500 -------D 0 2.0 5.0 1 25 45 0 24
+ 2.8024 2 5 sctp 1500 -------D 0 2.0 5.0 1 26 46 0 25
r 2.802464 2 5 sctp 1500 -------D 0 2.0 5.0 1 18 35 0 17
+ 2.802464 5 2 sctp 52 -------S 0 5.0 2.0 1 1 47 65535 65535
- 2.802464 5 2 sctp 52 -------S 0 5.0 2.0 1 1 47 65535 65535
r 2.8264 1 4 sctp 1500 -------D 0 1.0 4.0 1 20 39 0 19
- 2.8264 2 5 sctp 1500 -------D 0 2.0 5.0 1 25 45 0 24
r 2.826464 2 5 sctp 1500 -------D 0 2.0 5.0 1 19 37 0 18
+ 2.826464 5 2 sctp 52 -------S 0 5.0 2.0 1 1 48 65535 65535
- 2.826464 5 2 sctp 52 -------S 0 5.0 2.0 1 1 48 65535 65535
r 2.8504 1 4 sctp 1500 -------D 0 1.0 4.0 1 21 40 0 20
- 2.8504 2 5 sctp 1500 -------D 0 2.0 5.0 1 26 46 0 25
r 2.850464 2 5 sctp 1500 -------D 0 2.0 5.0 1 22 41 0 21
+ 2.850464 5 2 sctp 52 -------S 0 5.0 2.0 1 1 49 65535 65535
- 2.850464 5 2 sctp 52 -------S 0 5.0 2.0 1 1 49 65535 65535
r 2.874464 2 5 sctp 1500 -------D 0 2.0 5.0 1 23 42 0 22
r 2.979296 4 1 sctp 52 -------S 0 4.0 1.0 1 1 43 65535 65535
+ 2.979296 1 4 sctp 1500 -------D 0 1.0 4.0 1 27 50 0 26
- 2.979296 1 4 sctp 1500 -------D 0 1.0 4.0 1 27 50 0 26
+ 2.979296 2 5 sctp 1500 -------D 0 2.0 5.0 1 28 51 0 27
- 2.979296 2 5 sctp 1500 -------D 0 2.0 5.0 1 28 51 0 27
+ 2.979296 2 5 sctp 1500 -------D 0 2.0 5.0 1 29 52 0 28
r 3.003296 5 2 sctp 52 -------S 0 5.0 2.0 1 1 47 65535 65535
+ 3.003296 2 5 sctp 1500 -------D 0 2.0 5.0 1 30 53 0 29
+ 3.003296 2 5 sctp 1500 -------D 0 2.0 5.0 1 31 54 0 30
- 3.003296 2 5 sctp 1500 -------D 0 2.0 5.0 1 29 52 0 28
r 3.0264 2 5 sctp 1500 -------D 0 2.0 5.0 1 24 44 0 23
+ 3.0264 5 2 sctp 52 -------S 0 5.0 2.0 1 1 55 65535 65535
- 3.0264 5 2 sctp 52 -------S 0 5.0 2.0 1 1 55 65535 65535
r 3.027296 5 2 sctp 52 -------S 0 5.0 2.0 1 1 48 65535 65535
+ 3.027296 1 4 sctp 1500 -------D 0 1.0 4.0 1 32 56 0 31
- 3.027296 1 4 sctp 1500 -------D 0 1.0 4.0 1 32 56 0 31
+ 3.027296 2 5 sctp 1500 -------D 0 2.0 5.0 1 33 57 0 32
- 3.027296 2 5 sctp 1500 -------D 0 2.0 5.0 1 30 53 0 29
r 3.0504 2 5 sctp 1500 -------D 0 2.0 5.0 1 25 45 0 24
r 3.051296 5 2 sctp 52 -------S 0 5.0 2.0 1 1 49 65535 65535
+ 3.051296 1 4 sctp 1500 -------D 0 1.0 4.0 1 34 58 0 33
+ 3.051296 1 4 sctp 1500 -------D 0 1.0 4.0 1 35 59 0 34
+ 3.051296 2 5 sctp 1500 -------D 0 2.0 5.0 1 36 60 0 35
- 3.051296 1 4 sctp 1500 -------D 0 1.0 4.0 1 34 58 0 33
- 3.051296 2 5 sctp 1500 -------D 0 2.0 5.0 1 31 54 0 30
r 3.0744 2 5 sctp 1500 -------D 0 2.0 5.0 1 26 46 0 25
+ 3.0744 5 2 sctp 52 -------S 0 5.0 2.0 1 1 61 65535 65535
- 3.0744 5 2 sctp 52 -------S 0 5.0 2.0 1 1 61 65535 65535
- 3.075296 1 4 sctp 1500 -------D 0 1.0 4.0 1 35 59 0 34
- 3.075296 2 5 sctp 1500 -------D 0 2.0 5.0 1 33 57 0 32
- 3.099296 2 5 sctp 1500 -------D 0 2.0 5.0 1 36 60 0 35
r 3.203296 1 4 sctp 1500 -------D 0 1.0 4.0 1 27 50 0 26
r 3.203296 2 5 sctp 1500 -------D 0 2.0 5.0 1 28 51 0 27
+ 3.203296 5 2 sctp 52 -------S 0 5.0 2.0 1 1 62 65535 65535
- 3.203296 5 2 sctp 52 -------S 0 5.0 2.0 1 1 62 65535 65535
r 3.227232 5 2 sctp 52 -------S 0 5.0 2.0 1 1 55 65535 65535
+ 3.227232 2 5 sctp 1500 -------D 0 2.0 5.0 1 37 63 0 36
- 3.227232 2 5 sctp 1500 -------D 0 2.0 5.0 1 37 63 0 36
+ 3.227232 2 5 sctp 1500 -------D 0 2.0 5.0 1 38 64 0 37
r 3.227296 2 5 sctp 1500 -------D 0 2.0 5.0 1 29 52 0 28
- 3.251232 2 5 sctp 1500 -------D 0 2.0 5.0 1 38 64 0 37
r 3.251296 1 4 sctp 1500 -------D 0 1.0 4.0 1 32 56 0 31
+ 3.251296 4 1 sctp 56 -------S 0 4.0 1.0 1 1 65 65535 65535
- 3.251296 4 1 sctp 56 -------S 0 4.0 1.0 1 1 65 65535 65535
r 3.251296 2 5 sctp 1500 -------D 0 2.0 5.0 1 30 53 0 29
r 3.275232 5 2 sctp 52 -------S 0 5.0 2.0 1 1 61 65535 65535
+ 3.275232 2 5 sctp 1500 -------D 0 2.0 5.0 1 39 66 0 38
+ 3.275232 2 5 sctp 1500 -------D 0 2.0 5.0 1 40 67 0 39
- 3.275232 2 5 sctp 1500 -------D 0 2.0 5.0 1 39 66 0 38
r 3.275296 1 4 sctp 1500 -------D 0 1.0 4.0 1 34 58 0 33
+ 3.275296 4 1 sctp 60 -------S 0 4.0 1.0 1 1 68 65535 65535
- 3.275296 4 1 sctp 60 -------S 0 4.0 1.0 1 1 68 65535 65535
r 3.275296 2 5 sctp 1500 -------D 0 2.0 5.0 1 31 54 0 30
- 3.299232 2 5 sctp 1500 -------D 0 2.0 5.0 1 40 67 0 39
r 3.299296 1 4 sctp 1500 -------D 0 1.0 4.0 1 35 59 0 34
+ 3.299296 4 1 sctp 56 -------S 0 4.0 1.0 1 1 69 65535 65535
- 3.299296 4 1 sctp 56 -------S 0 4.0 1.0 1 1 69 65535 65535
r 3.299296 2 5 sctp 1500 -------D 0 2.0 5.0 1 33 57 0 32
r 3.323296 2 5 sctp 1500 -------D 0 2.0 5.0 1 36 60 0 35
+ 3.323296 5 2 sctp 52 -------S 0 5.0 2.0 1 1 70 65535 65535
- 3.323296 5 2 sctp 52 -------S 0 5.0 2.0 1 1 70 65535 65535
r 3.404128 5 2 sctp 52 -------S 0 5.0 2.0 1 1 62 65535 65535
+ 3.404128 1 4 sctp 1500 -------D 0 1.0 4.0 1 41 71 0 40
- 3.404128 1 4 sctp 1500 -------D 0 1.0 4.0 1 41 71 0 40
+ 3.404128 2 5 sctp 1500 -------D 0 2.0 5.0 1 42 72 0 41
- 3.404128 2 5 sctp 1500 -------D 0 2.0 5.0 1 42 72 0 41
r 3.451232 2 5 sctp 1500 -------D 0 2.0 5.0 1 37 63 0 36
r 3.452192 4 1 sctp 56 -------S 0 4.0 1.0 1 1 65 65535 65535
+ 3.452192 1 4 sctp 1500 -------D 0 1.0 4.0 1 43 73 0 42
- 3.452192 1 4 sctp 1500 -------D 0 1.0 4.0 1 43 73 0 42
+ 3.452192 2 5 sctp 1500 -------D 0 2.0 5.0 1 44 74 0 43
- 3.452192 2 5 sctp 1500 -------D 0 2.0 5.0 1 44 74 0 43
r 3.475232 2 5 sctp 1500 -------D 0 2.0 5.0 1 38 64 0 37
+ 3.475232 5 2 sctp 52 -------S 0 5.0 2.0 1 1 75 65535 65535
- 3.475232 5 2 sctp 52 -------S 0 5.0 2.0 1 1 75 65535 65535
r 3.476256 4 1 sctp 60 -------S 0 4.0 1.0 1 1 68 65535 65535
+ 3.476256 1 4 sctp 1500 -------D 0 1.0 4.0 1 45 76 0 44
- 3.476256 1 4 sctp 1500 -------D 0 1.0 4.0 1 45 76 0 44
r 3.499232 2 5 sctp 1500 -------D 0 2.0 5.0 1 39 66 0 38
r 3.500192 4 1 sctp 56 -------S 0 4.0 1.0 1 1 69 65535 65535
r 3.523232 2 5 sctp 1500 -------D 0 2.0 5.0 1 40 67 0 39
+ 3.523232 5 2 sctp 52 -------S 0 5.0 2.0 1 1 77 65535 65535
- 3.523232 5 2 sctp 52 -------S 0 5.0 2.0 1 1 77 65535 65535
r 3.524128 5 2 sctp 52 -------S 0 5.0 2.0 1 1 70 65535 65535
+ 3.5784 2 5 sctp 1500 -------D 0 2.0 5.0 1 2 78 0 1
- 3.5784 2 5 sctp 1500 -------D 0 2.0 5.0 1 2 78 0 1
r 3.628128 1 4 sctp 1500 -------D 0 1.0 4.0 1 41 71 0 40
r 3.628128 2 5 sctp 1500 -------D 0 2.0 5.0 1 42 72 0 41
+ 3.628128 5 2 sctp 52 -------S 0 5.0 2.0 1 1 79 65535 65535
- 3.628128 5 2 sctp 52 -------S 0 5.0 2.0 1 1 79 65535 65535
r 3.676064 5 2 sctp 52 -------S 0 5.0 2.0 1 1 75 65535 65535
+ 3.676064 2 5 sctp 1500 -------D 0 2.0 5.0 1 39 80 0 38
- 3.676064 2 5 sctp 1500 -------D 0 2.0 5.0 1 39 80 0 38
r 3.676192 1 4 sctp 1500 -------D 0 1.0 4.0 1 43 73 0 42
r 3.676192 2 5 sctp 1500 -------D 0 2.0 5.0 1 44 74 0 43
+ 3.676192 5 2 sctp 52 -------S 0 5.0 2.0 1 1 81 65535 65535
- 3.676192 5 2 sctp 52 -------S 0 5.0 2.0 1 1 81 65535 65535
r 3.700256 1 4 sctp 1500 -------D 0 1.0 4.0 1 45 76 0 44
r 3.724064 5 2 sctp 52 -------S 0 5.0 2.0 1 1 77 65535 65535
+ 3.724064 2 5 sctp 1500 -------D 0 2.0 5.0 1 42 82 0 41
- 3.724064 2 5 sctp 1500 -------D 0 2.0 5.0 1 42 82 0 41
+ 3.724064 2 5 sctp 1500 -------D 0 2.0 5.0 1 44 83 0 43
- 3.748064 2 5 sctp 1500 -------D 0 2.0 5.0 1 44 83 0 43
r 3.8024 2 5 sctp 1500 -------D 0 2.0 5.0 1 2 78 0 1
+ 3.8024 5 2 sctp 48 -------S 0 5.0 2.0 1 45 84 65535 65535
- 3.8024 5 2 sctp 48 -------S 0 5.0 2.0 1 45 84 65535 65535
r 3.82896 5 2 sctp 52 -------S 0 5.0 2.0 1 1 79 65535 65535
r 3.877024 5 2 sctp 52 -------S 0 5.0 2.0 1 1 81 65535 65535
r 3.900064 2 5 sctp 1500 -------D 0 2.0 5.0 1 39 80 0 38
+ 3.900064 5 2 sctp 52 -------S 0 5.0 2.0 1 45 85 65535 65535
- 3.900064 5 2 sctp 52 -------S 0 5.0 2.0 1 45 85 65535 65535
r 3.948064 2 5 sctp 1500 -------D 0 2.0 5.0 1 42 82 0 41
+ 3.948064 5 2 sctp 52 -------S 0 5.0 2.0 1 45 86 65535 65535
- 3.948064 5 2 sctp 52 -------S 0 5.0 2.0 1 45 86 65535 65535
r 3.972064 2 5 sctp 1500 -------D 0 2.0 5.0 1 44 83 0 43
+ 3.972064 5 2 sctp 52 -------S 0 5.0 2.0 1 45 87 65535 65535
- 3.972064 5 2 sctp 52 -------S 0 5.0 2.0 1 45 87 65535 65535
r 4.003168 5 2 sctp 48 -------S 0 5.0 2.0 1 45 84 65535 65535
+ 4.003168 2 5 sctp 1500 -------D 0 2.0 5.0 1 46 88 0 45
- 4.003168 2 5 sctp 1500 -------D 0 2.0 5.0 1 46 88 0 45
+ 4.003168 2 5 sctp 1500 -------D 0 2.0 5.0 1 47 89 0 46
+ 4.003168 2 5 sctp 1500 -------D 0 2.0 5.0 1 48 90 0 47
+ 4.003168 1 4 sctp 1500 -------D 0 1.0 4.0 1 49 91 0 48
- 4.003168 1 4 sctp 1500 -------D 0 1.0 4.0 1 49 91 0 48
+ 4.003168 1 4 sctp 1500 -------D 0 1.0 4.0 1 50 92 0 49
+ 4.003168 1 4 sctp 1500 -------D 0 1.0 4.0 1 51 93 0 50
+ 4.003168 1 4 sctp 1500 -------D 0 1.0 4.0 1 52 94 0 51
- 4.027168 2 5 sctp 1500 -------D 0 2.0 5.0 1 47 89 0 46
- 4.027168 1 4 sctp 1500 -------D 0 1.0 4.0 1 50 92 0 49
- 4.051168 2 5 sctp 1500 -------D 0 2.0 5.0 1 48 90 0 47
- 4.051168 1 4 sctp 1500 -------D 0 1.0 4.0 1 51 93 0 50
- 4.075168 1 4 sctp 1500 -------D 0 1.0 4.0 1 52 94 0 51
r 4.100896 5 2 sctp 52 -------S 0 5.0 2.0 1 45 85 65535 65535
+ 4.100896 1 4 sctp 1500 -------D 0 1.0 4.0 1 53 95 0 52
- 4.100896 1 4 sctp 1500 -------D 0 1.0 4.0 1 53 95 0 52
r 4.148896 5 2 sctp 52 -------S 0 5.0 2.0 1 45 86 65535 65535
+ 4.172064 5 2 sctp 48 -------S 0 5.0 2.0 1 45 96 65535 65535
- 4.172064 5 2 sctp 48 -------S 0 5.0 2.0 1 45 96 65535 65535
r 4.172896 5 2 sctp 52 -------S 0 5.0 2.0 1 45 87 65535 65535
r 4.227168 2 5 sctp 1500 -------D 0 2.0 5.0 1 46 88 0 45
r 4.227168 1 4 sctp 1500 -------D 0 1.0 4.0 1 49 91 0 48
+ 4.227168 4 1 sctp 52 -------S 0 4.0 1.0 1 46 97 65535 65535
- 4.227168 4 1 sctp 52 -------S 0 4.0 1.0 1 46 97 65535 65535
r 4.251168 2 5 sctp 1500 -------D 0 2.0 5.0 1 47 89 0 46
r 4.251168 1 4 sctp 1500 -------D 0 1.0 4.0 1 50 92 0 49
+ 4.251168 4 1 sctp 52 -------S 0 4.0 1.0 1 47 98 65535 65535
- 4.251168 4 1 sctp 52 -------S 0 4.0 1.0 1 47 98 65535 65535
r 4.275168 2 5 sctp 1500 -------D 0 2.0 5.0 1 48 90 0 47
r 4.275168 1 4 sctp 1500 -------D 0 1.0 4.0 1 51 93 0 50
+ 4.275168 4 1 sctp 48 -------S 0 4.0 1.0 1 51 99 65535 65535
- 4.275168 4 1 sctp 48 -------S 0 4.0 1.0 1 51 99 65535 65535
r 4.299168 1 4 sctp 1500 -------D 0 1.0 4.0 1 52 94 0 51
r 4.324896 1 4 sctp 1500 -------D 0 1.0 4.0 1 53 95 0 52
+ 4.324896 4 1 sctp 48 -------S 0 4.0 1.0 1 53 100 65535 65535
- 4.324896 4 1 sctp 48 -------S 0 4.0 1.0 1 53 100 65535 65535
r 4.372832 5 2 sctp 48 -------S 0 5.0 2.0 1 45 96 65535 65535
r 4.428 4 1 sctp 52 -------S 0 4.0 1.0 1 46 97 65535 65535
+ 4.428 2 5 sctp 1500 -------D 0 2.0 5.0 1 54 101 0 53
- 4.428 2 5 sctp 1500 -------D 0 2.0 5.0 1 54 101 0 53
+ 4.428 2 5 sctp 1500 -------D 0 2.0 5.0 1 55 102 0 54
+ 4.428 1 4 sctp 1500 -------D 0 1.0 4.0 1 56 103 0 55
- 4.428 1 4 sctp 1500 -------D 0 1.0 4.0 1 56 103 0 55
r 4.452 4 1 sctp 52 -------S 0 4.0 1.0 1 47 98 65535 65535
+ 4.452 2 5 sctp 1500 -------D 0 2.0 5.0 1 57 104 0 56
+ 4.452 2 5 sctp 1500 -------D 0 2.0 5.0 1 58 105 0 57
+ 4.452 1 4 sctp 1500 -------D 0 1.0 4.0 1 59 106 0 58
- 4.452 2 5 sctp 1500 -------D 0 2.0 5.0 1 55 102 0 54
- 4.452 1 4 sctp 1500 -------D 0 1.0 4.0 1 59 106 0 58
r 4.475936 4 1 sctp 48 -------S 0 4.0 1.0 1 51 99 65535 65535
+ 4.475936 2 5 sctp 1500 -------D 0 2.0 5.0 1 60 107 0 59
+ 4.475936 2 5 sctp 1500 -------D 0 2.0 5.0 1 61 108 0 60
+ 4.475936 1 4 sctp 1500 -------D 0 1.0 4.0 1 62 109 0 61
- 4.476 2 5 sctp 1500 -------D 0 2.0 5.0 1 57 104 0 56
- 4.476 1 4 sctp 1500 -------D 0 1.0 4.0 1 62 109 0 61
- 4.5 2 5 sctp 1500 -------D 0 2.0 5.0 1 58 105 0 57
- 4.524 2 5 sctp 1500 -------D 0 2.0 5.0 1 60 107 0 59
r 4.525664 4 1 sctp 48 -------S 0 4.0 1.0 1 53 100 65535 65535
+ 4.525664 1 4 sctp 1500 -------D 0 1.0 4.0 1 63 110 0 62
- 4.525664 1 4 sctp 1500 -------D 0 1.0 4.0 1 63 110 0 62
+ 4.525664 1 4 sctp 1500 -------D 0 1.0 4.0 1 64 111 0 63
+ 4.525664 1 4 sctp 1500 -------D 0 1.0 4.0 1 65 112 0 64
- 4.548 2 5 sctp 1500 -------D 0 2.0 5.0 1 61 108 0 60
- 4.549664 1 4 sctp 1500 -------D 0 1.0 4.0 1 64 111 0 63
- 4.573664 1 4 sctp 1500 -------D 0 1.0 4.0 1 65 112 0 64
r 4.652 2 5 sctp 1500 -------D 0 2.0 5.0 1 54 101 0 53
r 4.652 1 4 sctp 1500 -------D 0 1.0 4.0 1 56 103 0 55
+ 4.652 4 1 sctp 52 -------S 0 4.0 1.0 1 54 113 65535 65535
- 4.652 4 1 sctp 52 -------S 0 4.0 1.0 1 54 113 65535 65535
r 4.676 2 5 sctp 1500 -------D 0 2.0 5.0 1 55 102 0 54
r 4.676 1 4 sctp 1500 -------D 0 1.0 4.0 1 59 106 0 58
+ 4.676 4 1 sctp 52 -------S 0 4.0 1.0 1 56 114 65535 65535
- 4.676 4 1 sctp 52 -------S 0 4.0 1.0 1 56 114 65535 65535
r 4.7 2 5 sctp 1500 -------D 0 2.0 5.0 1 57 104 0 56
r 4.7 1 4 sctp 1500 -------D 0 1.0 4.0 1 62 109 0 61
+ 4.7 4 1 sctp 56 -------S 0 4.0 1.0 1 57 115 65535 65535
- 4.7 4 1 sctp 56 -------S 0 4.0 1.0 1 57 115 65535 65535
r 4.724 2 5 sctp 1500 -------D 0 2.0 5.0 1 58 105 0 57
r 4.748 2 5 sctp 1500 -------D 0 2.0 5.0 1 60 107 0 59
+ 4.748 5 2 sctp 52 -------S 0 5.0 2.0 1 60 116 65535 65535
- 4.748 5 2 sctp 52 -------S 0 5.0 2.0 1 60 116 65535 65535
r 4.749664 1 4 sctp 1500 -------D 0 1.0 4.0 1 63 110 0 62
r 4.772 2 5 sctp 1500 -------D 0 2.0 5.0 1 61 108 0 60
+ 4.772 5 2 sctp 48 -------S 0 5.0 2.0 1 63 117 65535 65535
- 4.772 5 2 sctp 48 -------S 0 5.0 2.0 1 63 117 65535 65535
r 4.773664 1 4 sctp 1500 -------D 0 1.0 4.0 1 64 111 0 63
r 4.797664 1 4 sctp 1500 -------D 0 1.0 4.0 1 65 112 0 64
+ 4.797664 4 1 sctp 48 -------S 0 4.0 1.0 1 65 118 65535 65535
- 4.797664 4 1 sctp 48 -------S 0 4.0 1.0 1 65 118 65535 65535
r 4.852832 4 1 sctp 52 -------S 0 4.0 1.0 1 54 113 65535 65535
+ 4.852832 2 5 sctp 1500 -------D 0 2.0 5.0 1 66 119 0 65
- 4.852832 2 5 sctp 1500 -------D 0 2.0 5.0 1 66 119 0 65
+ 4.852832 1 4 sctp 1500 -------D 0 1.0 4.0 1 67 120 0 66
- 4.852832 1 4 sctp 1500 -------D 0 1.0 4.0 1 67 120 0 66
r 4.876832 4 1 sctp 52 -------S 0 4.0 1.0 1 56 114 65535 65535
+ 4.876832 2 5 sctp 1500 -------D 0 2.0 5.0 1 68 121 0 67
+ 4.876832 1 4 sctp 1500 -------D 0 1.0 4.0 1 69 122 0 68
- 4.876832 2 5 sctp 1500 -------D 0 2.0 5.0 1 68 121 0 67
- 4.876832 1 4 sctp 1500 -------D 0 1.0 4.0 1 69 122 0 68
r 4.900896 4 1 sctp 56 -------S 0 4.0 1.0 1 57 115 65535 65535
+ 4.900896 2 5 sctp 1500 -------D 0 2.0 5.0 1 70 123 0 69
- 4.900896 2 5 sctp 1500 -------D 0 2.0 5.0 1 70 123 0 69
+ 4.900896 1 4 sctp 1500 -------D 0 1.0 4.0 1 71 124 0 70
- 4.900896 1 4 sctp 1500 -------D 0 1.0 4.0 1 71 124 0 70
r 4.948832 5 2 sctp 52 -------S 0 5.0 2.0 1 60 116 65535 65535
+ 4.948832 2 5 sctp 1500 -------D 0 2.0 5.0 1 72 125 0 71
- 4.948832 2 5 sctp 1500 -------D 0 2.0 5.0 1 72 125 0 71
+ 4.948832 2 5 sctp 1500 -------D 0 2.0 5.0 1 73 126 0 72
r 4.972768 5 2 sctp 48 -------S 0 5.0 2.0 1 63 117 65535 65535
+ 4.972768 1 4 sctp 1500 -------D 0 1.0 4.0 1 74 127 0 73
- 4.972768 1 4 sctp 1500 -------D 0 1.0 4.0 1 74 127 0 73
+ 4.972768 2 5 sctp 1500 -------D 0 2.0 5.0 1 75 128 0 74
+ 4.972768 2 5 sctp 1500 -------D 0 2.0 5.0 1 76 129 0 75
- 4.972832 2 5 sctp 1500 -------D 0 2.0 5.0 1 73 126 0 72
- 4.996832 2 5 sctp 1500 -------D 0 2.0 5.0 1 75 128 0 74
r 4.998432 4 1 sctp 48 -------S 0 4.0 1.0 1 65 118 65535 65535
+ 4.998432 1 4 sctp 1500 -------D 0 1.0 4.0 1 77 130 0 76
- 4.998432 1 4 sctp 1500 -------D 0 1.0 4.0 1 77 130 0 76
+ 4.998432 1 4 sctp 1500 -------D 0 1.0 4.0 1 78 131 0 77
+ 4.998432 1 4 sctp 1500 -------D 0 1.0 4.0 1 79 132 0 78
- 5.020832 2 5 sctp 1500 -------D 0 2.0 5.0 1 76 129 0 75
- 5.022432 1 4 sctp 1500 -------D 0 1.0 4.0 1 78 131 0 77
- 5.046432 1 4 sctp 1500 -------D 0 1.0 4.0 1 79 132 0 78
r 5.076832 2 5 sctp 1500 -------D 0 2.0 5.0 1 66 119 0 65
r 5.076832 1 4 sctp 1500 -------D 0 1.0 4.0 1 67 120 0 66
+ 5.076832 4 1 sctp 48 -------S 0 4.0 1.0 1 67 133 65535 65535
- 5.076832 4 1 sctp 48 -------S 0 4.0 1.0 1 67 133 65535 65535
r 5.100832 2 5 sctp 1500 -------D 0 2.0 5.0 1 68 121 0 67
r 5.100832 1 4 sctp 1500 -------D 0 1.0 4.0 1 69 122 0 68
+ 5.100832 4 1 sctp 48 -------S 0 4.0 1.0 1 69 134 65535 65535
- 5.100832 4 1 sctp 48 -------S 0 4.0 1.0 1 69 134 65535 65535
r 5.124896 2 5 sctp 1500 -------D 0 2.0 5.0 1 70 123 0 69
r 5.124896 1 4 sctp 1500 -------D 0 1.0 4.0 1 71 124 0 70
+ 5.124896 4 1 sctp 48 -------S 0 4.0 1.0 1 71 135 65535 65535
- 5.124896 4 1 sctp 48 -------S 0 4.0 1.0 1 71 135 65535 65535
r 5.172832 2 5 sctp 1500 -------D 0 2.0 5.0 1 72 125 0 71
r 5.196768 1 4 sctp 1500 -------D 0 1.0 4.0 1 74 127 0 73
+ 5.196768 4 1 sctp 52 -------S 0 4.0 1.0 1 72 136 65535 65535
- 5.196768 4 1 sctp 52 -------S 0 4.0 1.0 1 72 136 65535 65535
r 5.196832 2 5 sctp 1500 -------D 0 2.0 5.0 1 73 126 0 72
r 5.220832 2 5 sctp 1500 -------D 0 2.0 5.0 1 75 128 0 74
+ 5.220832 5 2 sctp 48 -------S 0 5.0 2.0 1 75 137 65535 65535
- 5.220832 5 2 sctp 48 -------S 0 5.0 2.0 1 75 137 65535 65535
r 5.222432 1 4 sctp 1500 -------D 0 1.0 4.0 1 77 130 0 76
r 5.244832 2 5 sctp 1500 -------D 0 2.0 5.0 1 76 129 0 75
+ 5.244832 5 2 sctp 48 -------S 0 5.0 2.0 1 77 138 65535 65535
- 5.244832 5 2 sctp 48 -------S 0 5.0 2.0 1 77 138 65535 65535
r 5.246432 1 4 sctp 1500 -------D 0 1.0 4.0 1 78 131 0 77
r 5.270432 1 4 sctp 1500 -------D 0 1.0 4.0 1 79 132 0 78
+ 5.270432 4 1 sctp 48 -------S 0 4.0 1.0 1 79 139 65535 65535
- 5.270432 4 1 sctp 48 -------S 0 4.0 1.0 1 79 139 65535 65535
r 5.2776 4 1 sctp 48 -------S 0 4.0 1.0 1 67 133 65535 65535
+ 5.2776 2 5 sctp 1500 -------D 0 2.0 5.0 1 80 140 0 79
- 5.2776 2 5 sctp 1500 -------D 0 2.0 5.0 1 80 140 0 79
+ 5.2776 1 4 sctp 1500 -------D 0 1.0 4.0 1 81 141 0 80
- 5.2776 1 4 sctp 1500 -------D 0 1.0 4.0 1 81 141 0 80
r 5.3016 4 1 sctp 48 -------S 0 4.0 1.0 1 69 134 65535 65535
+ 5.3016 2 5 sctp 1500 -------D 0 2.0 5.0 1 82 142 0 81
+ 5.3016 1 4 sctp 1500 -------D 0 1.0 4.0 1 83 143 0 82
- 5.3016 2 5 sctp 1500 -------D 0 2.0 5.0 1 82 142 0 81
- 5.3016 1 4 sctp 1500 -------D 0 1.0 4.0 1 83 143 0 82
r 5.325664 4 1 sctp 48 -------S 0 4.0 1.0 1 71 135 65535 65535
+ 5.325664 2 5 sctp 1500 -------D 0 2.0 5.0 1 84 144 0 83
- 5.325664 2 5 sctp 1500 -------D 0 2.0 5.0 1 84 144 0 83
+ 5.325664 1 4 sctp 1500 -------D 0 1.0 4.0 1 85 145 0 84
- 5.325664 1 4 sctp 1500 -------D 0 1.0 4.0 1 85 145 0 84
r 5.3976 4 1 sctp 52 -------S 0 4.0 1.0 1 72 136 65535 65535
+ 5.3976 2 5 sctp 1500 -------D 0 2.0 5.0 1 86 146 0 85
- 5.3976 2 5 sctp 1500 -------D 0 2.0 5.0 1 86 146 0 85
+ 5.3976 1 4 sctp 1500 -------D 0 1.0 4.0 1 87 147 0 86
- 5.3976 1 4 sctp 1500 -------D 0 1.0 4.0 1 87 147 0 86
r 5.4216 5 2 sctp 48 -------S 0 5.0 2.0 1 75 137 65535 65535
+ 5.4216 2 5 sctp 1500 -------D 0 2.0 5.0 1 88 148 0 87
+ 5.4216 2 5 sctp 1500 -------D 0 2.0 5.0 1 89 149 0 88
- 5.4216 2 5 sctp 1500 -------D 0 2.0 5.0 1 88 148 0 87
r 5.4456 5 2 sctp 48 -------S 0 5.0 2.0 1 77 138 65535 65535
+ 5.4456 1 4 sctp 1500 -------D 0 1.0 4.0 1 90 150 0 89
- 5.4456 1 4 sctp 1500 -------D 0 1.0 4.0 1 90 150 0 89
+ 5.4456 2 5 sctp 1500 -------D 0 2.0 5.0 1 91 151 0 90
+ 5.4456 2 5 sctp 1500 -------D 0 2.0 5.0 1 92 152 0 91
- 5.4456 2 5 sctp 1500 -------D 0 2.0 5.0 1 89 149 0 88
- 5.4696 2 5 sctp 1500 -------D 0 2.0 5.0 1 91 151 0 90
r 5.4712 4 1 sctp 48 -------S 0 4.0 1.0 1 79 139 65535 65535
+ 5.4712 1 4 sctp 1500 -------D 0 1.0 4.0 1 93 153 0 92
- 5.4712 1 4 sctp 1500 -------D 0 1.0 4.0 1 93 153 0 92
+ 5.4712 1 4 sctp 1500 -------D 0 1.0 4.0 1 94 154 0 93
+ 5.4712 1 4 sctp 1500 -------D 0 1.0 4.0 1 95 155 0 94
- 5.4936 2 5 sctp 1500 -------D 0 2.0 5.0 1 92 152 0 91
- 5.4952 1 4 sctp 1500 -------D 0 1.0 4.0 1 94 154 0 93
r 5.5016 2 5 sctp 1500 -------D 0 2.0 5.0 1 80 140 0 79
r 5.5016 1 4 sctp 1500 -------D 0 1.0 4.0 1 81 141 0 80
+ 5.5016 4 1 sctp 48 -------S 0 4.0 1.0 1 81 156 65535 65535
- 5.5016 4 1 sctp 48 -------S 0 4.0 1.0 1 81 156 65535 65535
- 5.5192 1 4 sctp 1500 -------D 0 1.0 4.0 1 95 155 0 94
r 5.5256 2 5 sctp 1500 -------D 0 2.0 5.0 1 82 142 0 81
r 5.5256 1 4 sctp 1500 -------D 0 1.0 4.0 1 83 143 0 82
+ 5.5256 4 1 sctp 48 -------S 0 4.0 1.0 1 83 157 65535 65535
- 5.5256 4 1 sctp 48 -------S 0 4.0 1.0 1 83 157 65535 65535
r 5.549664 2 5 sctp 1500 -------D 0 2.0 5.0 1 84 144 0 83
r 5.549664 1 4 sctp 1500 -------D 0 1.0 4.0 1 85 145 0 84
+ 5.549664 4 1 sctp 48 -------S 0 4.0 1.0 1 85 158 65535 65535
- 5.549664 4 1 sctp 48 -------S 0 4.0 1.0 1 85 158 65535 65535
r 5.6216 2 5 sctp 1500 -------D 0 2.0 5.0 1 86 146 0 85
r 5.6216 1 4 sctp 1500 -------D 0 1.0 4.0 1 87 147 0 86
+ 5.6216 4 1 sctp 48 -------S 0 4.0 1.0 1 87 159 65535 65535
- 5.6216 4 1 sctp 48 -------S 0 4.0 1.0 1 87 159 65535 65535
r 5.6456 2 5 sctp 1500 -------D 0 2.0 5.0 1 88 148 0 87
r 5.6696 1 4 sctp 1500 -------D 0 1.0 4.0 1 90 150 0 89
+ 5.6696 4 1 sctp 52 -------S 0 4.0 1.0 1 88 160 65535 65535
- 5.6696 4 1 sctp 52 -------S 0 4.0 1.0 1 88 160 65535 65535
r 5.6696 2 5 sctp 1500 -------D 0 2.0 5.0 1 89 149 0 88
r 5.6936 2 5 sctp 1500 -------D 0 2.0 5.0 1 91 151 0 90
+ 5.6936 5 2 sctp 48 -------S 0 5.0 2.0 1 91 161 65535 65535
- 5.6936 5 2 sctp 48 -------S 0 5.0 2.0 1 91 161 65535 65535
r 5.6952 1 4 sctp 1500 -------D 0 1.0 4.0 1 93 153 0 92
r 5.702368 4 1 sctp 48 -------S 0 4.0 1.0 1 81 156 65535 65535
+ 5.702368 2 5 sctp 1500 -------D 0 2.0 5.0 1 96 162 0 95
- 5.702368 2 5 sctp 1500 -------D 0 2.0 5.0 1 96 162 0 95
+ 5.702368 1 4 sctp 1500 -------D 0 1.0 4.0 1 97 163 0 96
- 5.702368 1 4 sctp 1500 -------D 0 1.0 4.0 1 97 163 0 96
r 5.7176 2 5 sctp 1500 -------D 0 2.0 5.0 1 92 152 0 91
+ 5.7176 5 2 sctp 48 -------S 0 5.0 2.0 1 93 164 65535 65535
- 5.7176 5 2 sctp 48 -------S 0 5.0 2.0 1 93 164 65535 65535
r 5.7192 1 4 sctp 1500 -------D 0 1.0 4.0 1 94 154 0 93
r 5.726368 4 1 sctp 48 -------S 0 4.0 1.0 1 83 157 65535 65535
+ 5.726368 2 5 sctp 1500 -------D 0 2.0 5.0 1 98 165 0 97
+ 5.726368 1 4 sctp 1500 -------D 0 1.0 4.0 1 99 166 0 98
- 5.726368 2 5 sctp 1500 -------D 0 2.0 5.0 1 98 165 0 97
- 5.726368 1 4 sctp 1500 -------D 0 1.0 4.0 1 99 166 0 98
r 5.7432 1 4 sctp 1500 -------D 0 1.0 4.0 1 95 155 0 94
+ 5.7432 4 1 sctp 48 -------S 0 4.0 1.0 1 95 167 65535 65535
- 5.7432 4 1 sctp 48 -------S 0 4.0 1.0 1 95 167 65535 65535
r 5.750432 4 1 sctp 48 -------S 0 4.0 1.0 1 85 158 65535 65535
+ 5.750432 2 5 sctp 1500 -------D 0 2.0 5.0 1 100 168 0 99
- 5.750432 2 5 sctp 1500 -------D 0 2.0 5.0 1 100 168 0 99
+ 5.750432 1 4 sctp 1500 -------D 0 1.0 4.0 1 101 169 0 100
- 5.750432 1 4 sctp 1500 -------D 0 1.0 4.0 1 101 169 0 100
r 5.822368 4 1 sctp 48 -------S 0 4.0 1.0 1 87 159 65535 65535
+ 5.822368 2 5 sctp 1500 -------D 0 2.0 5.0 1 102 170 0 101
- 5.822368 2 5 sctp 1500 -------D 0 2.0 5.0 1 102 170 0 101
+ 5.822368 1 4 sctp 1500 -------D 0 1.0 4.0 1 103 171 0 102
- 5.822368 1 4 sctp 1500 -------D 0 1.0 4.0 1 103 171 0 102
r 5.870432 4 1 sctp 52 -------S 0 4.0 1.0 1 88 160 65535 65535
+ 5.870432 2 5 sctp 1500 -------D 0 2.0 5.0 1 104 172 0 103
- 5.870432 2 5 sctp 1500 -------D 0 2.0 5.0 1 104 172 0 103
+ 5.870432 1 4 sctp 1500 -------D 0 1.0 4.0 1 105 173 0 104
- 5.870432 1 4 sctp 1500 -------D 0 1.0 4.0 1 105 173 0 104
r 5.894368 5 2 sctp 48 -------S 0 5.0 2.0 1 91 161 65535 65535
+ 5.894368 2 5 sctp 1500 -------D 0 2.0 5.0 1 106 174 0 105
+ 5.894368 2 5 sctp 1500 -------D 0 2.0 5.0 1 107 175 0 106
- 5.894432 2 5 sctp 1500 -------D 0 2.0 5.0 1 106 174 0 105
r 5.918368 5 2 sctp 48 -------S 0 5.0 2.0 1 93 164 65535 65535
+ 5.918368 1 4 sctp 1500 -------D 0 1.0 4.0 1 108 176 0 107
- 5.918368 1 4 sctp 1500 -------D 0 1.0 4.0 1 108 176 0 107
+ 5.918368 2 5 sctp 1500 -------D 0 2.0 5.0 1 109 177 0 108
+ 5.918368 2 5 sctp 1500 -------D 0 2.0 5.0 1 110 178 0 109
- 5.918432 2 5 sctp 1500 -------D 0 2.0 5.0 1 107 175 0 106
r 5.926368 2 5 sctp 1500 -------D 0 2.0 5.0 1 96 162 0 95
r 5.926368 1 4 sctp 1500 -------D 0 1.0 4.0 1 97 163 0 96
+ 5.926368 4 1 sctp 48 -------S 0 4.0 1.0 1 97 179 65535 65535
- 5.926368 4 1 sctp 48 -------S 0 4.0 1.0 1 97 179 65535 65535
- 5.942432 2 5 sctp 1500 -------D 0 2.0 5.0 1 109 177 0 108
r 5.943968 4 1 sctp 48 -------S 0 4.0 1.0 1 95 167 65535 65535
+ 5.943968 1 4 sctp 1500 -------D 0 1.0 4.0 1 111 180 0 110
- 5.943968 1 4 sctp 1500 -------D 0 1.0 4.0 1 111 180 0 110
+ 5.943968 1 4 sctp 1500 -------D 0 1.0 4.0 1 112 181 0 111
+ 5.943968 1 4 sctp 1500 -------D 0 1.0 4.0 1 113 182 0 112