+ 0.5 0 1 sctp 56 -------I 0 0.0 1.0 1 -1 2 65535 65535
- 0.5 0 1 sctp 56 -------I 0 0.0 1.0 1 -1 2 65535 65535
r 0.700896 0 1 sctp 56 -------I 0 0.0 1.0 1 -1 2 65535 65535
+ 0.700896 1 0 sctp 56 -------I 0 1.0 0.0 1 -1 3 65535 65535
- 0.700896 1 0 sctp 56 -------I 0 1.0 0.0 1 -1 3 65535 65535
r 0.901792 1 0 sctp 56 -------I 0 1.0 0.0 1 -1 3 65535 65535
+ 0.901792 0 1 sctp 36 -------I 0 0.0 1.0 1 -1 4 65535 65535
- 0.901792 0 1 sctp 36 -------I 0 0.0 1.0 1 -1 4 65535 65535
r 1.102368 0 1 sctp 36 -------I 0 0.0 1.0 1 -1 4 65535 65535
+ 1.102368 1 0 sctp 36 -------I 0 1.0 0.0 1 -1 5 65535 65535
- 1.102368 1 0 sctp 36 -------I 0 1.0 0.0 1 -1 5 65535 65535
r 1.302944 1 0 sctp 36 -------I 0 1.0 0.0 1 -1 5 65535 65535
+ 1.302944 0 1 sctp 56 -------H 0 0.0 1.0 1 -1 6 65535 65535
- 1.302944 0 1 sctp 56 -------H 0 0.0 1.0 1 -1 6 65535 65535
r 1.50384 0 1 sctp 56 -------H 0 0.0 1.0 1 -1 6 65535 65535
+ 1.50384 1 0 sctp 56 -------B 0 1.0 0.0 1 -1 7 65535 65535
- 1.50384 1 0 sctp 56 -------B 0 1.0 0.0 1 -1 7 65535 65535
r 1.704736 1 0 sctp 56 -------B 0 1.0 0.0 1 -1 7 65535 65535
+ 1.704736 0 1 sctp 1500 -------D 0 0.0 1.0 1 1 8 0 0
- 1.704736 0 1 sctp 1500 -------D 0 0.0 1.0 1 1 8 0 0
+ 1.704736 0 1 sctp 1500 -------D 0 0.0 1.0 1 2 9 0 1
+ 1.704736 0 1 sctp 1500 -------D 0 0.0 1.0 1 3 10 0 2
- 1.728736 0 1 sctp 1500 -------D 0 0.0 1.0 1 2 9 0 1
- 1.752736 0 1 sctp 1500 -------D 0 0.0 1.0 1 3 10 0 2
r 1.928736 0 1 sctp 1500 -------D 0 0.0 1.0 1 1 8 0 0
+ 1.928736 1 0 sctp 48 -------S 0 1.0 0.0 1 1 11 65535 65535
- 1.928736 1 0 sctp 48 -------S 0 1.0 0.0 1 1 11 65535 65535
r 1.952736 0 1 sctp 1500 -------D 0 0.0 1.0 1 2 9 0 1
+ 1.952736 1 0 sctp 48 -------S 0 1.0 0.0 1 2 12 65535 65535
- 1.952736 1 0 sctp 48 -------S 0 1.0 0.0 1 2 12 65535 65535
r 1.976736 0 1 sctp 1500 -------D 0 0.0 1.0 1 3 10 0 2
+ 1.976736 1 0 sctp 48 -------S 0 1.0 0.0 1 3 13 65535 65535
- 1.976736 1 0 sctp 48 -------S 0 1.0 0.0 1 3 13 65535 65535
r 2.129504 1 0 sctp 48 -------S 0 1.0 0.0 1 1 11 65535 65535
+ 2.129504 0 1 sctp 1500 -------D 0 0.0 1.0 1 4 14 0 3
- 2.129504 0 1 sctp 1500 -------D 0 0.0 1.0 1 4 14 0 3
+ 2.129504 0 1 sctp 1500 -------D 0 0.0 1.0 1 5 15 0 4
r 2.153504 1 0 sctp 48 -------S 0 1.0 0.0 1 2 12 65535 65535
+ 2.153504 0 1 sctp 1500 -------D 0 0.0 1.0 1 6 16 0 5
+ 2.153504 0 1 sctp 1500 -------D 0 0.0 1.0 1 7 17 0 6
- 2.153504 0 1 sctp 1500 -------D 0 0.0 1.0 1 5 15 0 4
r 2.177504 1 0 sctp 48 -------S 0 1.0 0.0 1 3 13 65535 65535
+ 2.177504 0 1 sctp 1500 -------D 0 0.0 1.0 1 8 18 0 7
+ 2.177504 0 1 sctp 1500 -------D 0 0.0 1.0 1 9 19 0 8
- 2.177504 0 1 sctp 1500 -------D 0 0.0 1.0 1 6 16 0 5
- 2.201504 0 1 sctp 1500 -------D 0 0.0 1.0 1 7 17 0 6
- 2.225504 0 1 sctp 1500 -------D 0 0.0 1.0 1 8 18 0 7
- 2.249504 0 1 sctp 1500 -------D 0 0.0 1.0 1 9 19 0 8
r 2.353504 0 1 sctp 1500 -------D 0 0.0 1.0 1 4 14 0 3
+ 2.353504 1 0 sctp 48 -------S 0 1.0 0.0 1 4 20 65535 65535
- 2.353504 1 0 sctp 48 -------S 0 1.0 0.0 1 4 20 65535 65535
r 2.377504 0 1 sctp 1500 -------D 0 0.0 1.0 1 5 15 0 4
+ 2.377504 1 0 sctp 48 -------S 0 1.0 0.0 1 5 21 65535 65535
- 2.377504 1 0 sctp 48 -------S 0 1.0 0.0 1 5 21 65535 65535
r 2.401504 0 1 sctp 1500 -------D 0 0.0 1.0 1 6 16 0 5
+ 2.401504 1 0 sctp 48 -------S 0 1.0 0.0 1 6 22 65535 65535
- 2.401504 1 0 sctp 48 -------S 0 1.0 0.0 1 6 22 65535 65535
r 2.425504 0 1 sctp 1500 -------D 0 0.0 1.0 1 7 17 0 6
+ 2.425504 1 0 sctp 48 -------S 0 1.0 0.0 1 7 23 65535 65535
- 2.425504 1 0 sctp 48 -------S 0 1.0 0.0 1 7 23 65535 65535
r 2.449504 0 1 sctp 1500 -------D 0 0.0 1.0 1 8 18 0 7
+ 2.449504 1 0 sctp 48 -------S 0 1.0 0.0 1 8 24 65535 65535
- 2.449504 1 0 sctp 48 -------S 0 1.0 0.0 1 8 24 65535 65535
r 2.473504 0 1 sctp 1500 -------D 0 0.0 1.0 1 9 19 0 8
+ 2.473504 1 0 sctp 48 -------S 0 1.0 0.0 1 9 25 65535 65535
- 2.473504 1 0 sctp 48 -------S 0 1.0 0.0 1 9 25 65535 65535
r 2.554272 1 0 sctp 48 -------S 0 1.0 0.0 1 4 20 65535 65535
+ 2.554272 0 1 sctp 1500 -------D 0 0.0 1.0 1 10 26 0 9
- 2.554272 0 1 sctp 1500 -------D 0 0.0 1.0 1 10 26 0 9
+ 2.554272 0 1 sctp 1500 -------D 0 0.0 1.0 1 11 27 0 10
r 2.578272 1 0 sctp 48 -------S 0 1.0 0.0 1 5 21 65535 65535
+ 2.578272 0 1 sctp 1500 -------D 0 0.0 1.0 1 12 28 0 11
d 2.578272 0 1 sctp 1500 -------D 0 0.0 1.0 1 13 29 0 12
- 2.578272 0 1 sctp 1500 -------D 0 0.0 1.0 1 11 27 0 10
r 2.602272 1 0 sctp 48 -------S 0 1.0 0.0 1 6 22 65535 65535
d 2.602272 0 1 sctp 1500 -------D 0 0.0 1.0 1 14 30 0 13
d 2.602272 0 1 sctp 1500 -------D 0 0.0 1.0 1 15 31 0 14
- 2.602272 0 1 sctp 1500 -------D 0 0.0 1.0 1 12 28 0 11
r 2.626272 1 0 sctp 48 -------S 0 1.0 0.0 1 7 23 65535 65535
d 2.626272 0 1 sctp 1500 -------D 0 0.0 1.0 1 16 32 0 15
d 2.626272 0 1 sctp 1500 -------D 0 0.0 1.0 1 17 33 0 16
r 2.650272 1 0 sctp 48 -------S 0 1.0 0.0 1 8 24 65535 65535
d 2.650272 0 1 sctp 1500 -------D 0 0.0 1.0 1 18 34 0 17
d 2.650272 0 1 sctp 1500 -------D 0 0.0 1.0 1 19 35 0 18
r 2.674272 1 0 sctp 48 -------S 0 1.0 0.0 1 9 25 65535 65535
d 2.674272 0 1 sctp 1500 -------D 0 0.0 1.0 1 20 36 0 19
d 2.674272 0 1 sctp 1500 -------D 0 0.0 1.0 1 21 37 0 20
r 2.778272 0 1 sctp 1500 -------D 0 0.0 1.0 1 10 26 0 9
+ 2.778272 1 0 sctp 48 -------S 0 1.0 0.0 1 10 38 65535 65535
- 2.778272 1 0 sctp 48 -------S 0 1.0 0.0 1 10 38 65535 65535
r 2.802272 0 1 sctp 1500 -------D 0 0.0 1.0 1 11 27 0 10
+ 2.802272 1 0 sctp 48 -------S 0 1.0 0.0 1 11 39 65535 65535
- 2.802272 1 0 sctp 48 -------S 0 1.0 0.0 1 11 39 65535 65535
r 2.826272 0 1 sctp 1500 -------D 0 0.0 1.0 1 12 28 0 11
+ 2.826272 1 0 sctp 48 -------S 0 1.0 0.0 1 12 40 65535 65535
- 2.826272 1 0 sctp 48 -------S 0 1.0 0.0 1 12 40 65535 65535
r 2.97904 1 0 sctp 48 -------S 0 1.0 0.0 1 10 38 65535 65535
+ 2.97904 0 1 sctp 1500 -------D 0 0.0 1.0 1 22 41 0 21
- 2.97904 0 1 sctp 1500 -------D 0 0.0 1.0 1 22 41 0 21
+ 2.97904 0 1 sctp 1500 -------D 0 0.0 1.0 1 23 42 0 22
r 3.00304 1 0 sctp 48 -------S 0 1.0 0.0 1 11 39 65535 65535
+ 3.00304 0 1 sctp 1500 -------D 0 0.0 1.0 1 24 43 0 23
+ 3.00304 0 1 sctp 1500 -------D 0 0.0 1.0 1 25 44 0 24
- 3.00304 0 1 sctp 1500 -------D 0 0.0 1.0 1 23 42 0 22
r 3.02704 1 0 sctp 48 -------S 0 1.0 0.0 1 12 40 65535 65535
+ 3.02704 0 1 sctp 1500 -------D 0 0.0 1.0 1 26 45 0 25
+ 3.02704 0 1 sctp 1500 -------D 0 0.0 1.0 1 27 46 0 26
- 3.02704 0 1 sctp 1500 -------D 0 0.0 1.0 1 24 43 0 23
- 3.05104 0 1 sctp 1500 -------D 0 0.0 1.0 1 25 44 0 24
- 3.07504 0 1 sctp 1500 -------D 0 0.0 1.0 1 26 45 0 25
- 3.09904 0 1 sctp 1500 -------D 0 0.0 1.0 1 27 46 0 26
r 3.20304 0 1 sctp 1500 -------D 0 0.0 1.0 1 22 41 0 21
+ 3.20304 1 0 sctp 52 -------S 0 1.0 0.0 1 12 47 65535 65535
- 3.20304 1 0 sctp 52 -------S 0 1.0 0.0 1 12 47 65535 65535
r 3.22704 0 1 sctp 1500 -------D 0 0.0 1.0 1 23 42 0 22
+ 3.22704 1 0 sctp 52 -------S 0 1.0 0.0 1 12 48 65535 65535
- 3.22704 1 0 sctp 52 -------S 0 1.0 0.0 1 12 48 65535 65535
r 3.25104 0 1 sctp 1500 -------D 0 0.0 1.0 1 24 43 0 23
+ 3.25104 1 0 sctp 52 -------S 0 1.0 0.0 1 12 49 65535 65535
- 3.25104 1 0 sctp 52 -------S 0 1.0 0.0 1 12 49 65535 65535
r 3.27504 0 1 sctp 1500 -------D 0 0.0 1.0 1 25 44 0 24
+ 3.27504 1 0 sctp 52 -------S 0 1.0 0.0 1 12 50 65535 65535
- 3.27504 1 0 sctp 52 -------S 0 1.0 0.0 1 12 50 65535 65535
r 3.29904 0 1 sctp 1500 -------D 0 0.0 1.0 1 26 45 0 25
+ 3.29904 1 0 sctp 52 -------S 0 1.0 0.0 1 12 51 65535 65535
- 3.29904 1 0 sctp 52 -------S 0 1.0 0.0 1 12 51 65535 65535
r 3.32304 0 1 sctp 1500 -------D 0 0.0 1.0 1 27 46 0 26
+ 3.32304 1 0 sctp 52 -------S 0 1.0 0.0 1 12 52 65535 65535
- 3.32304 1 0 sctp 52 -------S 0 1.0 0.0 1 12 52 65535 65535
r 3.403872 1 0 sctp 52 -------S 0 1.0 0.0 1 12 47 65535 65535
+ 3.403872 0 1 sctp 1500 -------D 0 0.0 1.0 1 28 53 0 27
- 3.403872 0 1 sctp 1500 -------D 0 0.0 1.0 1 28 53 0 27
r 3.427872 1 0 sctp 52 -------S 0 1.0 0.0 1 12 48 65535 65535
+ 3.427872 0 1 sctp 1500 -------D 0 0.0 1.0 1 29 54 0 28
- 3.427872 0 1 sctp 1500 -------D 0 0.0 1.0 1 29 54 0 28
r 3.451872 1 0 sctp 52 -------S 0 1.0 0.0 1 12 49 65535 65535
d 3.451872 0 1 sctp 1500 -------D 0 0.0 1.0 1 13 55 0 12
r 3.475872 1 0 sctp 52 -------S 0 1.0 0.0 1 12 50 65535 65535
d 3.475872 0 1 sctp 1500 -------D 0 0.0 1.0 1 14 56 0 13
d 3.475872 0 1 sctp 1500 -------D 0 0.0 1.0 1 15 57 0 14
d 3.475872 0 1 sctp 1500 -------D 0 0.0 1.0 1 16 58 0 15
r 3.499872 1 0 sctp 52 -------S 0 1.0 0.0 1 12 51 65535 65535
d 3.499872 0 1 sctp 1500 -------D 0 0.0 1.0 1 17 59 0 16
r 3.523872 1 0 sctp 52 -------S 0 1.0 0.0 1 12 52 65535 65535
d 3.523872 0 1 sctp 1500 -------D 0 0.0 1.0 1 18 60 0 17
r 3.627872 0 1 sctp 1500 -------D 0 0.0 1.0 1 28 53 0 27
+ 3.627872 1 0 sctp 52 -------S 0 1.0 0.0 1 12 61 65535 65535
- 3.627872 1 0 sctp 52 -------S 0 1.0 0.0 1 12 61 65535 65535
r 3.651872 0 1 sctp 1500 -------D 0 0.0 1.0 1 29 54 0 28
+ 3.651872 1 0 sctp 52 -------S 0 1.0 0.0 1 12 62 65535 65535
- 3.651872 1 0 sctp 52 -------S 0 1.0 0.0 1 12 62 65535 65535
r 3.828704 1 0 sctp 52 -------S 0 1.0 0.0 1 12 61 65535 65535
d 3.828704 0 1 sctp 1500 -------D 0 0.0 1.0 1 19 63 0 18
r 3.852704 1 0 sctp 52 -------S 0 1.0 0.0 1 12 62 65535 65535
d 3.852704 0 1 sctp 1500 -------D 0 0.0 1.0 1 20 64 0 19
d 4.451872 0 1 sctp 1500 -------D 0 0.0 1.0 1 13 65 0 12
d 6.451872 0 1 sctp 1500 -------D 0 0.0 1.0 1 13 66 0 12
d 10.451872 0 1 sctp 1500 -------D 0 0.0 1.0 1 13 67 0 12
d 18.451872 0 1 sctp 1500 -------D 0 0.0 1.0 1 13 68 0 12
+ 32.603387 1 0 sctp 56 -------H 0 1.0 0.0 1 -1 69 65535 65535
- 32.603387 1 0 sctp 56 -------H 0 1.0 0.0 1 -1 69 65535 65535
r 32.804283 1 0 sctp 56 -------H 0 1.0 0.0 1 -1 69 65535 65535
d 32.804283 0 1 sctp 56 -------B 0 0.0 1.0 1 -1 70 65535 65535
d 34.451872 0 1 sctp 1500 -------D 0 0.0 1.0 1 13 71 0 12
+ 35.603387 1 0 sctp 56 -------H 0 1.0 0.0 1 -1 72 65535 65535
- 35.603387 1 0 sctp 56 -------H 0 1.0 0.0 1 -1 72 65535 65535
r 35.804283 1 0 sctp 56 -------H 0 1.0 0.0 1 -1 72 65535 65535
+ 35.804283 0 1 sctp 56 -------B 0 0.0 1.0 1 -1 73 65535 65535
- 35.804283 0 1 sctp 56 -------B 0 0.0 1.0 1 -1 73 65535 65535
r 36.005179 0 1 sctp 56 -------B 0 0.0 1.0 1 -1 73 65535 65535
