+ 0 1 4 sctp 56 -------I 0 1.0 4.0 1 -1 4 65535 65535
- 0 1 4 sctp 56 -------I 0 1.0 4.0 1 -1 4 65535 65535
r 0.045045 1 4 sctp 56 -------I 0 1.0 4.0 1 -1 4 65535 65535
+ 0.045045 4 1 sctp 56 -------I 0 4.0 1.0 1 -1 5 65535 65535
- 0.045045 4 1 sctp 56 -------I 0 4.0 1.0 1 -1 5 65535 65535
r 0.09009 4 1 sctp 56 -------I 0 4.0 1.0 1 -1 5 65535 65535
+ 0.09009 1 4 sctp 36 -------I 0 1.0 4.0 1 -1 6 65535 65535
- 0.09009 1 4 sctp 36 -------I 0 1.0 4.0 1 -1 6 65535 65535
r 0.135118 1 4 sctp 36 -------I 0 1.0 4.0 1 -1 6 65535 65535
+ 0.135118 4 1 sctp 36 -------I 0 4.0 1.0 1 -1 7 65535 65535
- 0.135118 4 1 sctp 36 -------I 0 4.0 1.0 1 -1 7 65535 65535
r 0.180147 4 1 sctp 36 -------I 0 4.0 1.0 1 -1 7 65535 65535
+ 0.180147 1 4 sctp 56 -------H 0 1.0 4.0 1 -1 8 65535 65535
- 0.180147 1 4 sctp 56 -------H 0 1.0 4.0 1 -1 8 65535 65535
+ 0.180147 2 5 sctp 56 -------H 0 2.0 5.0 1 -1 9 65535 65535
- 0.180147 2 5 sctp 56 -------H 0 2.0 5.0 1 -1 9 65535 65535
r 0.225192 1 4 sctp 56 -------H 0 1.0 4.0 1 -1 8 65535 65535
+ 0.225192 4 1 sctp 56 -------B 0 4.0 1.0 1 -1 10 65535 65535
- 0.225192 4 1 sctp 56 -------B 0 4.0 1.0 1 -1 10 65535 65535
r 0.225192 2 5 sctp 56 -------H 0 2.0 5.0 1 -1 9 65535 65535
+ 0.225192 5 2 sctp 56 -------B 0 5.0 2.0 1 -1 11 65535 65535
- 0.225192 5 2 sctp 56 -------B 0 5.0 2.0 1 -1 11 65535 65535
r 0.270237 4 1 sctp 56 -------B 0 4.0 1.0 1 -1 10 65535 65535
r 0.270237 5 2 sctp 56 -------B 0 5.0 2.0 1 -1 11 65535 65535
+ 0.270237 1 4 sctp 1500 -------D 0 1.0 4.0 1 1 12 0 0
- 0.270237 1 4 sctp 1500 -------D 0 1.0 4.0 1 1 12 0 0
+ 0.270237 1 4 sctp 1500 -------D 0 1.0 4.0 1 2 13 0 1
+ 0.270237 1 4 sctp 1500 -------D 0 1.0 4.0 1 3 14 0 2
+ 0.270237 2 5 sctp 1500 -------D 0 2.0 5.0 1 4 15 0 3
- 0.270237 2 5 sctp 1500 -------D 0 2.0 5.0 1 4 15 0 3
+ 0.270237 2 5 sctp 1500 -------D 0 2.0 5.0 1 5 16 0 4
+ 0.270237 2 5 sctp 1500 -------D 0 2.0 5.0 1 6 17 0 5
- 0.271437 1 4 sctp 1500 -------D 0 1.0 4.0 1 2 13 0 1
- 0.271437 2 5 sctp 1500 -------D 0 2.0 5.0 1 5 16 0 4
- 0.272637 1 4 sctp 1500 -------D 0 1.0 4.0 1 3 14 0 2
- 0.272637 2 5 sctp 1500 -------D 0 2.0 5.0 1 6 17 0 5
r 0.316437 1 4 sctp 1500 -------D 0 1.0 4.0 1 1 12 0 0
r 0.316437 2 5 sctp 1500 -------D 0 2.0 5.0 1 4 15 0 3
+ 0.316437 5 2 sctp 52 -------S 0 5.0 2.0 1 1 18 65535 65535
- 0.316437 5 2 sctp 52 -------S 0 5.0 2.0 1 1 18 65535 65535
r 0.317637 1 4 sctp 1500 -------D 0 1.0 4.0 1 2 13 0 1
r 0.317637 2 5 sctp 1500 -------D 0 2.0 5.0 1 5 16 0 4
+ 0.317637 5 2 sctp 52 -------S 0 5.0 2.0 1 2 19 65535 65535
- 0.317637 5 2 sctp 52 -------S 0 5.0 2.0 1 2 19 65535 65535
r 0.318837 1 4 sctp 1500 -------D 0 1.0 4.0 1 3 14 0 2
r 0.318837 2 5 sctp 1500 -------D 0 2.0 5.0 1 6 17 0 5
+ 0.318837 5 2 sctp 48 -------S 0 5.0 2.0 1 6 20 65535 65535
- 0.318837 5 2 sctp 48 -------S 0 5.0 2.0 1 6 20 65535 65535
r 0.361478 5 2 sctp 52 -------S 0 5.0 2.0 1 1 18 65535 65535
+ 0.361478 1 4 sctp 1500 -------D 0 1.0 4.0 1 7 21 0 6
- 0.361478 1 4 sctp 1500 -------D 0 1.0 4.0 1 7 21 0 6
+ 0.361478 1 4 sctp 1500 -------D 0 1.0 4.0 1 8 22 0 7
+ 0.361478 2 5 sctp 1500 -------D 0 2.0 5.0 1 9 23 0 8
- 0.361478 2 5 sctp 1500 -------D 0 2.0 5.0 1 9 23 0 8
+ 0.361478 2 5 sctp 1500 -------D 0 2.0 5.0 1 10 24 0 9
r 0.362678 5 2 sctp 52 -------S 0 5.0 2.0 1 2 19 65535 65535
+ 0.362678 1 4 sctp 1500 -------D 0 1.0 4.0 1 11 25 0 10
+ 0.362678 1 4 sctp 1500 -------D 0 1.0 4.0 1 12 26 0 11
+ 0.362678 2 5 sctp 1500 -------D 0 2.0 5.0 1 13 27 0 12
+ 0.362678 2 5 sctp 1500 -------D 0 2.0 5.0 1 14 28 0 13
- 0.362678 1 4 sctp 1500 -------D 0 1.0 4.0 1 8 22 0 7
- 0.362678 2 5 sctp 1500 -------D 0 2.0 5.0 1 10 24 0 9
r 0.363875 5 2 sctp 48 -------S 0 5.0 2.0 1 6 20 65535 65535
+ 0.363875 1 4 sctp 1500 -------D 0 1.0 4.0 1 15 29 0 14
+ 0.363875 1 4 sctp 1500 -------D 0 1.0 4.0 1 16 30 0 15
+ 0.363875 2 5 sctp 1500 -------D 0 2.0 5.0 1 17 31 0 16
+ 0.363875 2 5 sctp 1500 -------D 0 2.0 5.0 1 18 32 0 17
- 0.363878 1 4 sctp 1500 -------D 0 1.0 4.0 1 11 25 0 10
- 0.363878 2 5 sctp 1500 -------D 0 2.0 5.0 1 13 27 0 12
- 0.365078 1 4 sctp 1500 -------D 0 1.0 4.0 1 12 26 0 11
- 0.365078 2 5 sctp 1500 -------D 0 2.0 5.0 1 14 28 0 13
- 0.366278 1 4 sctp 1500 -------D 0 1.0 4.0 1 15 29 0 14
- 0.366278 2 5 sctp 1500 -------D 0 2.0 5.0 1 17 31 0 16
- 0.367478 1 4 sctp 1500 -------D 0 1.0 4.0 1 16 30 0 15
- 0.367478 2 5 sctp 1500 -------D 0 2.0 5.0 1 18 32 0 17
r 0.407678 1 4 sctp 1500 -------D 0 1.0 4.0 1 7 21 0 6
r 0.407678 2 5 sctp 1500 -------D 0 2.0 5.0 1 9 23 0 8
+ 0.407678 5 2 sctp 52 -------S 0 5.0 2.0 1 7 33 65535 65535
- 0.407678 5 2 sctp 52 -------S 0 5.0 2.0 1 7 33 65535 65535
r 0.408878 1 4 sctp 1500 -------D 0 1.0 4.0 1 8 22 0 7
r 0.408878 2 5 sctp 1500 -------D 0 2.0 5.0 1 10 24 0 9
+ 0.408878 5 2 sctp 48 -------S 0 5.0 2.0 1 10 34 65535 65535
- 0.408878 5 2 sctp 48 -------S 0 5.0 2.0 1 10 34 65535 65535
r 0.410078 1 4 sctp 1500 -------D 0 1.0 4.0 1 11 25 0 10
r 0.410078 2 5 sctp 1500 -------D 0 2.0 5.0 1 13 27 0 12
+ 0.410078 5 2 sctp 52 -------S 0 5.0 2.0 1 11 35 65535 65535
- 0.410078 5 2 sctp 52 -------S 0 5.0 2.0 1 11 35 65535 65535
r 0.411278 1 4 sctp 1500 -------D 0 1.0 4.0 1 12 26 0 11
r 0.411278 2 5 sctp 1500 -------D 0 2.0 5.0 1 14 28 0 13
+ 0.411278 5 2 sctp 48 -------S 0 5.0 2.0 1 14 36 65535 65535
- 0.411278 5 2 sctp 48 -------S 0 5.0 2.0 1 14 36 65535 65535
r 0.412478 1 4 sctp 1500 -------D 0 1.0 4.0 1 15 29 0 14
r 0.412478 2 5 sctp 1500 -------D 0 2.0 5.0 1 17 31 0 16
+ 0.412478 5 2 sctp 52 -------S 0 5.0 2.0 1 15 37 65535 65535
- 0.412478 5 2 sctp 52 -------S 0 5.0 2.0 1 15 37 65535 65535
r 0.413678 1 4 sctp 1500 -------D 0 1.0 4.0 1 16 30 0 15
r 0.413678 2 5 sctp 1500 -------D 0 2.0 5.0 1 18 32 0 17
+ 0.413678 5 2 sctp 48 -------S 0 5.0 2.0 1 18 38 65535 65535
- 0.413678 5 2 sctp 48 -------S 0 5.0 2.0 1 18 38 65535 65535
r 0.45272 5 2 sctp 52 -------S 0 5.0 2.0 1 7 33 65535 65535
+ 0.45272 1 4 sctp 1500 -------D 0 1.0 4.0 1 19 39 0 18
- 0.45272 1 4 sctp 1500 -------D 0 1.0 4.0 1 19 39 0 18
+ 0.45272 1 4 sctp 1500 -------D 0 1.0 4.0 1 20 40 0 19
+ 0.45272 2 5 sctp 1500 -------D 0 2.0 5.0 1 21 41 0 20
- 0.45272 2 5 sctp 1500 -------D 0 2.0 5.0 1 21 41 0 20
+ 0.45272 2 5 sctp 1500 -------D 0 2.0 5.0 1 22 42 0 21
r 0.453917 5 2 sctp 48 -------S 0 5.0 2.0 1 10 34 65535 65535
+ 0.453917 1 4 sctp 1500 -------D 0 1.0 4.0 1 23 43 0 22
+ 0.453917 1 4 sctp 1500 -------D 0 1.0 4.0 1 24 44 0 23
+ 0.453917 2 5 sctp 1500 -------D 0 2.0 5.0 1 25 45 0 24
+ 0.453917 2 5 sctp 1500 -------D 0 2.0 5.0 1 26 46 0 25
- 0.45392 1 4 sctp 1500 -------D 0 1.0 4.0 1 20 40 0 19
- 0.45392 2 5 sctp 1500 -------D 0 2.0 5.0 1 22 42 0 21
r 0.45512 5 2 sctp 52 -------S 0 5.0 2.0 1 11 35 65535 65535
+ 0.45512 1 4 sctp 1500 -------D 0 1.0 4.0 1 27 47 0 26
+ 0.45512 1 4 sctp 1500 -------D 0 1.0 4.0 1 28 48 0 27
+ 0.45512 2 5 sctp 1500 -------D 0 2.0 5.0 1 29 49 0 28
+ 0.45512 2 5 sctp 1500 -------D 0 2.0 5.0 1 30 50 0 29
- 0.45512 1 4 sctp 1500 -------D 0 1.0 4.0 1 23 43 0 22
- 0.45512 2 5 sctp 1500 -------D 0 2.0 5.0 1 25 45 0 24
r 0.456317 5 2 sctp 48 -------S 0 5.0 2.0 1 14 36 65535 65535
+ 0.456317 1 4 sctp 1500 -------D 0 1.0 4.0 1 31 51 0 30
+ 0.456317 1 4 sctp 1500 -------D 0 1.0 4.0 1 32 52 0 31
+ 0.456317 2 5 sctp 1500 -------D 0 2.0 5.0 1 33 53 0 32
+ 0.456317 2 5 sctp 1500 -------D 0 2.0 5.0 1 34 54 0 33
- 0.45632 1 4 sctp 1500 -------D 0 1.0 4.0 1 24 44 0 23
- 0.45632 2 5 sctp 1500 -------D 0 2.0 5.0 1 26 46 0 25
r 0.45752 5 2 sctp 52 -------S 0 5.0 2.0 1 15 37 65535 65535
+ 0.45752 1 4 sctp 1500 -------D 0 1.0 4.0 1 35 55 0 34
+ 0.45752 1 4 sctp 1500 -------D 0 1.0 4.0 1 36 56 0 35
+ 0.45752 2 5 sctp 1500 -------D 0 2.0 5.0 1 37 57 0 36
+ 0.45752 2 5 sctp 1500 -------D 0 2.0 5.0 1 38 58 0 37
- 0.45752 1 4 sctp 1500 -------D 0 1.0 4.0 1 27 47 0 26
- 0.45752 2 5 sctp 1500 -------D 0 2.0 5.0 1 29 49 0 28
r 0.458717 5 2 sctp 48 -------S 0 5.0 2.0 1 18 38 65535 65535
+ 0.458717 1 4 sctp 1500 -------D 0 1.0 4.0 1 39 59 0 38
+ 0.458717 2 5 sctp 1500 -------D 0 2.0 5.0 1 40 60 0 39
- 0.45872 1 4 sctp 1500 -------D 0 1.0 4.0 1 28 48 0 27
- 0.45872 2 5 sctp 1500 -------D 0 2.0 5.0 1 30 50 0 29
- 0.45992 1 4 sctp 1500 -------D 0 1.0 4.0 1 31 51 0 30
- 0.45992 2 5 sctp 1500 -------D 0 2.0 5.0 1 33 53 0 32
- 0.46112 1 4 sctp 1500 -------D 0 1.0 4.0 1 32 52 0 31
- 0.46112 2 5 sctp 1500 -------D 0 2.0 5.0 1 34 54 0 33
- 0.46232 1 4 sctp 1500 -------D 0 1.0 4.0 1 35 55 0 34
- 0.46232 2 5 sctp 1500 -------D 0 2.0 5.0 1 37 57 0 36
- 0.46352 1 4 sctp 1500 -------D 0 1.0 4.0 1 36 56 0 35
- 0.46352 2 5 sctp 1500 -------D 0 2.0 5.0 1 38 58 0 37
- 0.46472 1 4 sctp 1500 -------D 0 1.0 4.0 1 39 59 0 38
- 0.46472 2 5 sctp 1500 -------D 0 2.0 5.0 1 40 60 0 39
r 0.49892 1 4 sctp 1500 -------D 0 1.0 4.0 1 19 39 0 18
r 0.49892 2 5 sctp 1500 -------D 0 2.0 5.0 1 21 41 0 20
+ 0.49892 5 2 sctp 52 -------S 0 5.0 2.0 1 19 61 65535 65535
- 0.49892 5 2 sctp 52 -------S 0 5.0 2.0 1 19 61 65535 65535
r 0.50012 1 4 sctp 1500 -------D 0 1.0 4.0 1 20 40 0 19
r 0.50012 2 5 sctp 1500 -------D 0 2.0 5.0 1 22 42 0 21
+ 0.50012 5 2 sctp 48 -------S 0 5.0 2.0 1 22 62 65535 65535
- 0.50012 5 2 sctp 48 -------S 0 5.0 2.0 1 22 62 65535 65535
r 0.50132 1 4 sctp 1500 -------D 0 1.0 4.0 1 23 43 0 22
r 0.50132 2 5 sctp 1500 -------D 0 2.0 5.0 1 25 45 0 24
+ 0.50132 5 2 sctp 52 -------S 0 5.0 2.0 1 23 63 65535 65535
- 0.50132 5 2 sctp 52 -------S 0 5.0 2.0 1 23 63 65535 65535
r 0.50252 1 4 sctp 1500 -------D 0 1.0 4.0 1 24 44 0 23
r 0.50252 2 5 sctp 1500 -------D 0 2.0 5.0 1 26 46 0 25
+ 0.50252 5 2 sctp 48 -------S 0 5.0 2.0 1 26 64 65535 65535
- 0.50252 5 2 sctp 48 -------S 0 5.0 2.0 1 26 64 65535 65535
r 0.50372 1 4 sctp 1500 -------D 0 1.0 4.0 1 27 47 0 26
r 0.50372 2 5 sctp 1500 -------D 0 2.0 5.0 1 29 49 0 28
+ 0.50372 5 2 sctp 52 -------S 0 5.0 2.0 1 27 65 65535 65535
- 0.50372 5 2 sctp 52 -------S 0 5.0 2.0 1 27 65 65535 65535
r 0.50492 1 4 sctp 1500 -------D 0 1.0 4.0 1 28 48 0 27
r 0.50492 2 5 sctp 1500 -------D 0 2.0 5.0 1 30 50 0 29
+ 0.50492 5 2 sctp 48 -------S 0 5.0 2.0 1 30 66 65535 65535
- 0.50492 5 2 sctp 48 -------S 0 5.0 2.0 1 30 66 65535 65535
r 0.50612 1 4 sctp 1500 -------D 0 1.0 4.0 1 31 51 0 30
r 0.50612 2 5 sctp 1500 -------D 0 2.0 5.0 1 33 53 0 32
+ 0.50612 5 2 sctp 52 -------S 0 5.0 2.0 1 31 67 65535 65535
- 0.50612 5 2 sctp 52 -------S 0 5.0 2.0 1 31 67 65535 65535
r 0.50732 1 4 sctp 1500 -------D 0 1.0 4.0 1 32 52 0 31
r 0.50732 2 5 sctp 1500 -------D 0 2.0 5.0 1 34 54 0 33
+ 0.50732 5 2 sctp 48 -------S 0 5.0 2.0 1 34 68 65535 65535
- 0.50732 5 2 sctp 48 -------S 0 5.0 2.0 1 34 68 65535 65535
r 0.50852 1 4 sctp 1500 -------D 0 1.0 4.0 1 35 55 0 34
r 0.50852 2 5 sctp 1500 -------D 0 2.0 5.0 1 37 57 0 36
+ 0.50852 5 2 sctp 52 -------S 0 5.0 2.0 1 35 69 65535 65535
- 0.50852 5 2 sctp 52 -------S 0 5.0 2.0 1 35 69 65535 65535
r 0.50972 1 4 sctp 1500 -------D 0 1.0 4.0 1 36 56 0 35
r 0.50972 2 5 sctp 1500 -------D 0 2.0 5.0 1 38 58 0 37
+ 0.50972 5 2 sctp 48 -------S 0 5.0 2.0 1 38 70 65535 65535
- 0.50972 5 2 sctp 48 -------S 0 5.0 2.0 1 38 70 65535 65535
r 0.51092 1 4 sctp 1500 -------D 0 1.0 4.0 1 39 59 0 38
r 0.51092 2 5 sctp 1500 -------D 0 2.0 5.0 1 40 60 0 39
+ 0.51092 5 2 sctp 48 -------S 0 5.0 2.0 1 40 71 65535 65535
- 0.51092 5 2 sctp 48 -------S 0 5.0 2.0 1 40 71 65535 65535
r 0.543962 5 2 sctp 52 -------S 0 5.0 2.0 1 19 61 65535 65535
d 0.543962 1 4 sctp 1500 -------D 0 1.0 4.0 1 41 72 0 40
+ 0.543962 2 5 sctp 1500 -------D 0 2.0 5.0 1 42 73 0 41
- 0.543962 2 5 sctp 1500 -------D 0 2.0 5.0 1 42 73 0 41
r 0.545158 5 2 sctp 48 -------S 0 5.0 2.0 1 22 62 65535 65535
+ 0.545158 1 4 sctp 1500 -------D 0 1.0 4.0 1 43 74 0 42
- 0.545158 1 4 sctp 1500 -------D 0 1.0 4.0 1 43 74 0 42
+ 0.545158 2 5 sctp 1500 -------D 0 2.0 5.0 1 44 75 0 43
- 0.545162 2 5 sctp 1500 -------D 0 2.0 5.0 1 44 75 0 43
r 0.546362 5 2 sctp 52 -------S 0 5.0 2.0 1 23 63 65535 65535
+ 0.546362 1 4 sctp 1500 -------D 0 1.0 4.0 1 45 76 0 44
- 0.546362 1 4 sctp 1500 -------D 0 1.0 4.0 1 45 76 0 44
+ 0.546362 2 5 sctp 1500 -------D 0 2.0 5.0 1 46 77 0 45
- 0.546362 2 5 sctp 1500 -------D 0 2.0 5.0 1 46 77 0 45
r 0.547558 5 2 sctp 48 -------S 0 5.0 2.0 1 26 64 65535 65535
+ 0.547558 1 4 sctp 1500 -------D 0 1.0 4.0 1 47 78 0 46
+ 0.547558 2 5 sctp 1500 -------D 0 2.0 5.0 1 48 79 0 47
- 0.547562 1 4 sctp 1500 -------D 0 1.0 4.0 1 47 78 0 46
- 0.547562 2 5 sctp 1500 -------D 0 2.0 5.0 1 48 79 0 47
r 0.548762 5 2 sctp 52 -------S 0 5.0 2.0 1 27 65 65535 65535
+ 0.548762 1 4 sctp 1500 -------D 0 1.0 4.0 1 49 80 0 48
+ 0.548762 2 5 sctp 1500 -------D 0 2.0 5.0 1 50 81 0 49
- 0.548762 1 4 sctp 1500 -------D 0 1.0 4.0 1 49 80 0 48
- 0.548762 2 5 sctp 1500 -------D 0 2.0 5.0 1 50 81 0 49
r 0.549958 5 2 sctp 48 -------S 0 5.0 2.0 1 30 66 65535 65535
+ 0.549958 1 4 sctp 1500 -------D 0 1.0 4.0 1 51 82 0 50
+ 0.549958 2 5 sctp 1500 -------D 0 2.0 5.0 1 52 83 0 51
- 0.549962 1 4 sctp 1500 -------D 0 1.0 4.0 1 51 82 0 50
- 0.549962 2 5 sctp 1500 -------D 0 2.0 5.0 1 52 83 0 51
r 0.551162 5 2 sctp 52 -------S 0 5.0 2.0 1 31 67 65535 65535
+ 0.551162 1 4 sctp 1500 -------D 0 1.0 4.0 1 53 84 0 52
+ 0.551162 2 5 sctp 1500 -------D 0 2.0 5.0 1 54 85 0 53
- 0.551162 1 4 sctp 1500 -------D 0 1.0 4.0 1 53 84 0 52
- 0.551162 2 5 sctp 1500 -------D 0 2.0 5.0 1 54 85 0 53
r 0.552358 5 2 sctp 48 -------S 0 5.0 2.0 1 34 68 65535 65535
+ 0.552358 1 4 sctp 1500 -------D 0 1.0 4.0 1 55 86 0 54
+ 0.552358 2 5 sctp 1500 -------D 0 2.0 5.0 1 56 87 0 55
- 0.552362 1 4 sctp 1500 -------D 0 1.0 4.0 1 55 86 0 54
- 0.552362 2 5 sctp 1500 -------D 0 2.0 5.0 1 56 87 0 55
r 0.553562 5 2 sctp 52 -------S 0 5.0 2.0 1 35 69 65535 65535
+ 0.553562 1 4 sctp 1500 -------D 0 1.0 4.0 1 57 88 0 56
+ 0.553562 2 5 sctp 1500 -------D 0 2.0 5.0 1 58 89 0 57
- 0.553562 1 4 sctp 1500 -------D 0 1.0 4.0 1 57 88 0 56
- 0.553562 2 5 sctp 1500 -------D 0 2.0 5.0 1 58 89 0 57
r 0.554758 5 2 sctp 48 -------S 0 5.0 2.0 1 38 70 65535 65535
+ 0.554758 1 4 sctp 1500 -------D 0 1.0 4.0 1 59 90 0 58
+ 0.554758 1 4 sctp 1500 -------D 0 1.0 4.0 1 60 91 0 59
+ 0.554758 2 5 sctp 1500 -------D 0 2.0 5.0 1 61 92 0 60
+ 0.554758 2 5 sctp 1500 -------D 0 2.0 5.0 1 62 93 0 61
- 0.554762 1 4 sctp 1500 -------D 0 1.0 4.0 1 59 90 0 58
- 0.554762 2 5 sctp 1500 -------D 0 2.0 5.0 1 61 92 0 60
r 0.555958 5 2 sctp 48 -------S 0 5.0 2.0 1 40 71 65535 65535
+ 0.555958 1 4 sctp 1500 -------D 0 1.0 4.0 1 63 94 0 62
+ 0.555958 2 5 sctp 1500 -------D 0 2.0 5.0 1 64 95 0 63
- 0.555962 1 4 sctp 1500 -------D 0 1.0 4.0 1 60 91 0 59
- 0.555962 2 5 sctp 1500 -------D 0 2.0 5.0 1 62 93 0 61
- 0.557162 1 4 sctp 1500 -------D 0 1.0 4.0 1 63 94 0 62
- 0.557162 2 5 sctp 1500 -------D 0 2.0 5.0 1 64 95 0 63
r 0.590162 2 5 sctp 1500 -------D 0 2.0 5.0 1 42 73 0 41
r 0.591358 1 4 sctp 1500 -------D 0 1.0 4.0 1 43 74 0 42
+ 0.591358 4 1 sctp 52 -------S 0 4.0 1.0 1 40 96 65535 65535
- 0.591358 4 1 sctp 52 -------S 0 4.0 1.0 1 40 96 65535 65535
r 0.591362 2 5 sctp 1500 -------D 0 2.0 5.0 1 44 75 0 43
r 0.592562 1 4 sctp 1500 -------D 0 1.0 4.0 1 45 76 0 44
+ 0.592562 4 1 sctp 52 -------S 0 4.0 1.0 1 40 97 65535 65535
- 0.592562 4 1 sctp 52 -------S 0 4.0 1.0 1 40 97 65535 65535
r 0.592562 2 5 sctp 1500 -------D 0 2.0 5.0 1 46 77 0 45
r 0.593762 1 4 sctp 1500 -------D 0 1.0 4.0 1 47 78 0 46
+ 0.593762 4 1 sctp 52 -------S 0 4.0 1.0 1 40 98 65535 65535
- 0.593762 4 1 sctp 52 -------S 0 4.0 1.0 1 40 98 65535 65535
r 0.593762 2 5 sctp 1500 -------D 0 2.0 5.0 1 48 79 0 47
r 0.594962 1 4 sctp 1500 -------D 0 1.0 4.0 1 49 80 0 48
+ 0.594962 4 1 sctp 52 -------S 0 4.0 1.0 1 40 99 65535 65535
- 0.594962 4 1 sctp 52 -------S 0 4.0 1.0 1 40 99 65535 65535
r 0.594962 2 5 sctp 1500 -------D 0 2.0 5.0 1 50 81 0 49
r 0.596162 1 4 sctp 1500 -------D 0 1.0 4.0 1 51 82 0 50
+ 0.596162 4 1 sctp 52 -------S 0 4.0 1.0 1 40 100 65535 65535
- 0.596162 4 1 sctp 52 -------S 0 4.0 1.0 1 40 100 65535 65535
r 0.596162 2 5 sctp 1500 -------D 0 2.0 5.0 1 52 83 0 51
r 0.597362 1 4 sctp 1500 -------D 0 1.0 4.0 1 53 84 0 52
+ 0.597362 4 1 sctp 52 -------S 0 4.0 1.0 1 40 101 65535 65535
- 0.597362 4 1 sctp 52 -------S 0 4.0 1.0 1 40 101 65535 65535
r 0.597362 2 5 sctp 1500 -------D 0 2.0 5.0 1 54 85 0 53
r 0.598562 1 4 sctp 1500 -------D 0 1.0 4.0 1 55 86 0 54
+ 0.598562 4 1 sctp 52 -------S 0 4.0 1.0 1 40 102 65535 65535
- 0.598562 4 1 sctp 52 -------S 0 4.0 1.0 1 40 102 65535 65535
r 0.598562 2 5 sctp 1500 -------D 0 2.0 5.0 1 56 87 0 55
r 0.599762 1 4 sctp 1500 -------D 0 1.0 4.0 1 57 88 0 56
+ 0.599762 4 1 sctp 52 -------S 0 4.0 1.0 1 40 103 65535 65535
- 0.599762 4 1 sctp 52 -------S 0 4.0 1.0 1 40 103 65535 65535
r 0.599762 2 5 sctp 1500 -------D 0 2.0 5.0 1 58 89 0 57
r 0.600962 1 4 sctp 1500 -------D 0 1.0 4.0 1 59 90 0 58
+ 0.600962 4 1 sctp 52 -------S 0 4.0 1.0 1 40 104 65535 65535
- 0.600962 4 1 sctp 52 -------S 0 4.0 1.0 1 40 104 65535 65535
r 0.600962 2 5 sctp 1500 -------D 0 2.0 5.0 1 61 92 0 60
r 0.602162 1 4 sctp 1500 -------D 0 1.0 4.0 1 60 91 0 59
+ 0.602162 4 1 sctp 52 -------S 0 4.0 1.0 1 40 105 65535 65535
- 0.602162 4 1 sctp 52 -------S 0 4.0 1.0 1 40 105 65535 65535
r 0.602162 2 5 sctp 1500 -------D 0 2.0 5.0 1 62 93 0 61
r 0.603362 1 4 sctp 1500 -------D 0 1.0 4.0 1 63 94 0 62
+ 0.603362 4 1 sctp 52 -------S 0 4.0 1.0 1 40 106 65535 65535
- 0.603362 4 1 sctp 52 -------S 0 4.0 1.0 1 40 106 65535 65535
r 0.603362 2 5 sctp 1500 -------D 0 2.0 5.0 1 64 95 0 63
r 0.6364 4 1 sctp 52 -------S 0 4.0 1.0 1 40 96 65535 65535
+ 0.6364 1 4 sctp 1500 -------D 0 1.0 4.0 1 65 107 0 64
- 0.6364 1 4 sctp 1500 -------D 0 1.0 4.0 1 65 107 0 64
+ 0.6364 2 5 sctp 1500 -------D 0 2.0 5.0 1 66 108 0 65
- 0.6364 2 5 sctp 1500 -------D 0 2.0 5.0 1 66 108 0 65
r 0.637603 4 1 sctp 52 -------S 0 4.0 1.0 1 40 97 65535 65535
+ 0.637603 1 4 sctp 1500 -------D 0 1.0 4.0 1 67 109 0 66
- 0.637603 1 4 sctp 1500 -------D 0 1.0 4.0 1 67 109 0 66
+ 0.637603 2 5 sctp 1500 -------D 0 2.0 5.0 1 68 110 0 67
- 0.637603 2 5 sctp 1500 -------D 0 2.0 5.0 1 68 110 0 67
r 0.638803 4 1 sctp 52 -------S 0 4.0 1.0 1 40 98 65535 65535
+ 0.638803 2 5 sctp 1500 -------D 0 2.0 5.0 1 41 111 0 40
- 0.638803 2 5 sctp 1500 -------D 0 2.0 5.0 1 41 111 0 40
r 0.640003 4 1 sctp 52 -------S 0 4.0 1.0 1 40 99 65535 65535
+ 0.640003 2 5 sctp 1500 -------D 0 2.0 5.0 1 69 112 0 68
- 0.640003 2 5 sctp 1500 -------D 0 2.0 5.0 1 69 112 0 68
r 0.641203 4 1 sctp 52 -------S 0 4.0 1.0 1 40 100 65535 65535
+ 0.641203 2 5 sctp 1500 -------D 0 2.0 5.0 1 70 113 0 69
- 0.641203 2 5 sctp 1500 -------D 0 2.0 5.0 1 70 113 0 69
r 0.642403 4 1 sctp 52 -------S 0 4.0 1.0 1 40 101 65535 65535
+ 0.642403 2 5 sctp 1500 -------D 0 2.0 5.0 1 71 114 0 70
- 0.642403 2 5 sctp 1500 -------D 0 2.0 5.0 1 71 114 0 70
r 0.643603 4 1 sctp 52 -------S 0 4.0 1.0 1 40 102 65535 65535
+ 0.643603 1 4 sctp 1500 -------D 0 1.0 4.0 1 72 115 0 71
- 0.643603 1 4 sctp 1500 -------D 0 1.0 4.0 1 72 115 0 71
+ 0.643603 2 5 sctp 1500 -------D 0 2.0 5.0 1 73 116 0 72
- 0.643603 2 5 sctp 1500 -------D 0 2.0 5.0 1 73 116 0 72
r 0.644803 4 1 sctp 52 -------S 0 4.0 1.0 1 40 103 65535 65535
+ 0.644803 1 4 sctp 1500 -------D 0 1.0 4.0 1 74 117 0 73
+ 0.644803 2 5 sctp 1500 -------D 0 2.0 5.0 1 75 118 0 74
- 0.644803 1 4 sctp 1500 -------D 0 1.0 4.0 1 74 117 0 73
- 0.644803 2 5 sctp 1500 -------D 0 2.0 5.0 1 75 118 0 74
r 0.646003 4 1 sctp 52 -------S 0 4.0 1.0 1 40 104 65535 65535
+ 0.646003 1 4 sctp 1500 -------D 0 1.0 4.0 1 76 119 0 75
+ 0.646003 2 5 sctp 1500 -------D 0 2.0 5.0 1 77 120 0 76
- 0.646003 1 4 sctp 1500 -------D 0 1.0 4.0 1 76 119 0 75
- 0.646003 2 5 sctp 1500 -------D 0 2.0 5.0 1 77 120 0 76
r 0.647203 4 1 sctp 52 -------S 0 4.0 1.0 1 40 105 65535 65535
+ 0.647203 1 4 sctp 1500 -------D 0 1.0 4.0 1 78 121 0 77
+ 0.647203 2 5 sctp 1500 -------D 0 2.0 5.0 1 79 122 0 78
- 0.647203 1 4 sctp 1500 -------D 0 1.0 4.0 1 78 121 0 77
- 0.647203 2 5 sctp 1500 -------D 0 2.0 5.0 1 79 122 0 78
r 0.648403 4 1 sctp 52 -------S 0 4.0 1.0 1 40 106 65535 65535
+ 0.648403 1 4 sctp 1500 -------D 0 1.0 4.0 1 80 123 0 79
+ 0.648403 1 4 sctp 1500 -------D 0 1.0 4.0 1 81 124 0 80
+ 0.648403 2 5 sctp 1500 -------D 0 2.0 5.0 1 82 125 0 81
+ 0.648403 2 5 sctp 1500 -------D 0 2.0 5.0 1 83 126 0 82
- 0.648403 1 4 sctp 1500 -------D 0 1.0 4.0 1 80 123 0 79
- 0.648403 2 5 sctp 1500 -------D 0 2.0 5.0 1 82 125 0 81
- 0.649603 1 4 sctp 1500 -------D 0 1.0 4.0 1 81 124 0 80
- 0.649603 2 5 sctp 1500 -------D 0 2.0 5.0 1 83 126 0 82
r 0.6826 1 4 sctp 1500 -------D 0 1.0 4.0 1 65 107 0 64
+ 0.6826 4 1 sctp 52 -------S 0 4.0 1.0 1 40 127 65535 65535
- 0.6826 4 1 sctp 52 -------S 0 4.0 1.0 1 40 127 65535 65535
r 0.6826 2 5 sctp 1500 -------D 0 2.0 5.0 1 66 108 0 65
r 0.683803 1 4 sctp 1500 -------D 0 1.0 4.0 1 67 109 0 66
+ 0.683803 4 1 sctp 52 -------S 0 4.0 1.0 1 40 128 65535 65535
- 0.683803 4 1 sctp 52 -------S 0 4.0 1.0 1 40 128 65535 65535
r 0.683803 2 5 sctp 1500 -------D 0 2.0 5.0 1 68 110 0 67
r 0.685003 2 5 sctp 1500 -------D 0 2.0 5.0 1 41 111 0 40
+ 0.685003 5 2 sctp 48 -------S 0 5.0 2.0 1 68 129 65535 65535
- 0.685003 5 2 sctp 48 -------S 0 5.0 2.0 1 68 129 65535 65535
r 0.686203 2 5 sctp 1500 -------D 0 2.0 5.0 1 69 112 0 68
r 0.687403 2 5 sctp 1500 -------D 0 2.0 5.0 1 70 113 0 69
+ 0.687403 5 2 sctp 48 -------S 0 5.0 2.0 1 70 130 65535 65535
- 0.687403 5 2 sctp 48 -------S 0 5.0 2.0 1 70 130 65535 65535
r 0.688603 2 5 sctp 1500 -------D 0 2.0 5.0 1 71 114 0 70
r 0.689803 1 4 sctp 1500 -------D 0 1.0 4.0 1 72 115 0 71
+ 0.689803 4 1 sctp 48 -------S 0 4.0 1.0 1 72 131 65535 65535
- 0.689803 4 1 sctp 48 -------S 0 4.0 1.0 1 72 131 65535 65535
r 0.689803 2 5 sctp 1500 -------D 0 2.0 5.0 1 73 116 0 72
r 0.691003 1 4 sctp 1500 -------D 0 1.0 4.0 1 74 117 0 73
+ 0.691003 4 1 sctp 48 -------S 0 4.0 1.0 1 74 132 65535 65535
- 0.691003 4 1 sctp 48 -------S 0 4.0 1.0 1 74 132 65535 65535
r 0.691003 2 5 sctp 1500 -------D 0 2.0 5.0 1 75 118 0 74
r 0.692203 1 4 sctp 1500 -------D 0 1.0 4.0 1 76 119 0 75
+ 0.692203 4 1 sctp 48 -------S 0 4.0 1.0 1 76 133 65535 65535
- 0.692203 4 1 sctp 48 -------S 0 4.0 1.0 1 76 133 65535 65535
r 0.692203 2 5 sctp 1500 -------D 0 2.0 5.0 1 77 120 0 76
r 0.693403 1 4 sctp 1500 -------D 0 1.0 4.0 1 78 121 0 77
+ 0.693403 4 1 sctp 48 -------S 0 4.0 1.0 1 78 134 65535 65535
- 0.693403 4 1 sctp 48 -------S 0 4.0 1.0 1 78 134 65535 65535
r 0.693403 2 5 sctp 1500 -------D 0 2.0 5.0 1 79 122 0 78
r 0.694603 1 4 sctp 1500 -------D 0 1.0 4.0 1 80 123 0 79
+ 0.694603 4 1 sctp 48 -------S 0 4.0 1.0 1 80 135 65535 65535
- 0.694603 4 1 sctp 48 -------S 0 4.0 1.0 1 80 135 65535 65535
r 0.694603 2 5 sctp 1500 -------D 0 2.0 5.0 1 82 125 0 81
r 0.695803 1 4 sctp 1500 -------D 0 1.0 4.0 1 81 124 0 80
+ 0.695803 4 1 sctp 48 -------S 0 4.0 1.0 1 82 136 65535 65535
- 0.695803 4 1 sctp 48 -------S 0 4.0 1.0 1 82 136 65535 65535
r 0.695803 2 5 sctp 1500 -------D 0 2.0 5.0 1 83 126 0 82
r 0.727642 4 1 sctp 52 -------S 0 4.0 1.0 1 40 127 65535 65535
+ 0.727642 1 4 sctp 1500 -------D 0 1.0 4.0 1 84 137 0 83
- 0.727642 1 4 sctp 1500 -------D 0 1.0 4.0 1 84 137 0 83
r 0.728845 4 1 sctp 52 -------S 0 4.0 1.0 1 40 128 65535 65535
r 0.730042 5 2 sctp 48 -------S 0 5.0 2.0 1 68 129 65535 65535
+ 0.730042 2 5 sctp 1500 -------D 0 2.0 5.0 1 85 138 0 84
- 0.730042 2 5 sctp 1500 -------D 0 2.0 5.0 1 85 138 0 84
+ 0.730042 2 5 sctp 1500 -------D 0 2.0 5.0 1 86 139 0 85
+ 0.730042 2 5 sctp 1500 -------D 0 2.0 5.0 1 87 140 0 86
+ 0.730042 2 5 sctp 1500 -------D 0 2.0 5.0 1 88 141 0 87
+ 0.730042 1 4 sctp 1500 -------D 0 1.0 4.0 1 89 142 0 88
- 0.730042 1 4 sctp 1500 -------D 0 1.0 4.0 1 89 142 0 88
- 0.731242 2 5 sctp 1500 -------D 0 2.0 5.0 1 86 139 0 85
r 0.732442 5 2 sctp 48 -------S 0 5.0 2.0 1 70 130 65535 65535
+ 0.732442 2 5 sctp 1500 -------D 0 2.0 5.0 1 90 143 0 89
+ 0.732442 2 5 sctp 1500 -------D 0 2.0 5.0 1 91 144 0 90
- 0.732442 2 5 sctp 1500 -------D 0 2.0 5.0 1 87 140 0 86
- 0.733642 2 5 sctp 1500 -------D 0 2.0 5.0 1 88 141 0 87
r 0.734842 4 1 sctp 48 -------S 0 4.0 1.0 1 72 131 65535 65535
+ 0.734842 1 4 sctp 1500 -------D 0 1.0 4.0 1 92 145 0 91
- 0.734842 1 4 sctp 1500 -------D 0 1.0 4.0 1 92 145 0 91
+ 0.734842 2 5 sctp 1500 -------D 0 2.0 5.0 1 93 146 0 92
- 0.734842 2 5 sctp 1500 -------D 0 2.0 5.0 1 90 143 0 89
r 0.736042 4 1 sctp 48 -------S 0 4.0 1.0 1 74 132 65535 65535
+ 0.736042 1 4 sctp 1500 -------D 0 1.0 4.0 1 94 147 0 93
+ 0.736042 2 5 sctp 1500 -------D 0 2.0 5.0 1 95 148 0 94
- 0.736042 1 4 sctp 1500 -------D 0 1.0 4.0 1 94 147 0 93
- 0.736042 2 5 sctp 1500 -------D 0 2.0 5.0 1 91 144 0 90
r 0.737242 4 1 sctp 48 -------S 0 4.0 1.0 1 76 133 65535 65535
+ 0.737242 1 4 sctp 1500 -------D 0 1.0 4.0 1 96 149 0 95
+ 0.737242 2 5 sctp 1500 -------D 0 2.0 5.0 1 97 150 0 96
- 0.737242 1 4 sctp 1500 -------D 0 1.0 4.0 1 96 149 0 95
- 0.737242 2 5 sctp 1500 -------D 0 2.0 5.0 1 93 146 0 92
r 0.738442 4 1 sctp 48 -------S 0 4.0 1.0 1 78 134 65535 65535
+ 0.738442 1 4 sctp 1500 -------D 0 1.0 4.0 1 98 151 0 97
+ 0.738442 2 5 sctp 1500 -------D 0 2.0 5.0 1 99 152 0 98
- 0.738442 1 4 sctp 1500 -------D 0 1.0 4.0 1 98 151 0 97
- 0.738442 2 5 sctp 1500 -------D 0 2.0 5.0 1 95 148 0 94
r 0.739642 4 1 sctp 48 -------S 0 4.0 1.0 1 80 135 65535 65535
+ 0.739642 1 4 sctp 1500 -------D 0 1.0 4.0 1 100 153 0 99
+ 0.739642 2 5 sctp 1500 -------D 0 2.0 5.0 1 101 154 0 100
- 0.739642 1 4 sctp 1500 -------D 0 1.0 4.0 1 100 153 0 99
- 0.739642 2 5 sctp 1500 -------D 0 2.0 5.0 1 97 150 0 96
r 0.740842 4 1 sctp 48 -------S 0 4.0 1.0 1 82 136 65535 65535
+ 0.740842 1 4 sctp 1500 -------D 0 1.0 4.0 1 102 155 0 101
+ 0.740842 1 4 sctp 1500 -------D 0 1.0 4.0 1 103 156 0 102
+ 0.740842 2 5 sctp 1500 -------D 0 2.0 5.0 1 104 157 0 103
- 0.740842 1 4 sctp 1500 -------D 0 1.0 4.0 1 102 155 0 101
- 0.740842 2 5 sctp 1500 -------D 0 2.0 5.0 1 99 152 0 98
- 0.742042 1 4 sctp 1500 -------D 0 1.0 4.0 1 103 156 0 102
- 0.742042 2 5 sctp 1500 -------D 0 2.0 5.0 1 101 154 0 100
- 0.743242 2 5 sctp 1500 -------D 0 2.0 5.0 1 104 157 0 103
r 0.773842 1 4 sctp 1500 -------D 0 1.0 4.0 1 84 137 0 83
+ 0.773842 4 1 sctp 48 -------S 0 4.0 1.0 1 84 158 65535 65535
- 0.773842 4 1 sctp 48 -------S 0 4.0 1.0 1 84 158 65535 65535
r 0.776242 2 5 sctp 1500 -------D 0 2.0 5.0 1 85 138 0 84
r 0.776242 1 4 sctp 1500 -------D 0 1.0 4.0 1 89 142 0 88
+ 0.776242 4 1 sctp 52 -------S 0 4.0 1.0 1 85 159 65535 65535
- 0.776242 4 1 sctp 52 -------S 0 4.0 1.0 1 85 159 65535 65535
r 0.777442 2 5 sctp 1500 -------D 0 2.0 5.0 1 86 139 0 85
r 0.778642 2 5 sctp 1500 -------D 0 2.0 5.0 1 87 140 0 86
+ 0.778642 5 2 sctp 52 -------S 0 5.0 2.0 1 87 160 65535 65535
- 0.778642 5 2 sctp 52 -------S 0 5.0 2.0 1 87 160 65535 65535
r 0.779842 2 5 sctp 1500 -------D 0 2.0 5.0 1 88 141 0 87
r 0.781042 1 4 sctp 1500 -------D 0 1.0 4.0 1 92 145 0 91
+ 0.781042 4 1 sctp 52 -------S 0 4.0 1.0 1 89 161 65535 65535
- 0.781042 4 1 sctp 52 -------S 0 4.0 1.0 1 89 161 65535 65535
r 0.781042 2 5 sctp 1500 -------D 0 2.0 5.0 1 90 143 0 89
r 0.782242 1 4 sctp 1500 -------D 0 1.0 4.0 1 94 147 0 93
+ 0.782242 4 1 sctp 56 -------S 0 4.0 1.0 1 90 162 65535 65535
- 0.782242 4 1 sctp 56 -------S 0 4.0 1.0 1 90 162 65535 65535
r 0.782242 2 5 sctp 1500 -------D 0 2.0 5.0 1 91 144 0 90
r 0.783442 1 4 sctp 1500 -------D 0 1.0 4.0 1 96 149 0 95
+ 0.783442 4 1 sctp 56 -------S 0 4.0 1.0 1 92 163 65535 65535
- 0.783442 4 1 sctp 56 -------S 0 4.0 1.0 1 92 163 65535 65535
r 0.783442 2 5 sctp 1500 -------D 0 2.0 5.0 1 93 146 0 92
r 0.784642 1 4 sctp 1500 -------D 0 1.0 4.0 1 98 151 0 97
+ 0.784642 4 1 sctp 56 -------S 0 4.0 1.0 1 94 164 65535 65535
- 0.784642 4 1 sctp 56 -------S 0 4.0 1.0 1 94 164 65535 65535
r 0.784642 2 5 sctp 1500 -------D 0 2.0 5.0 1 95 148 0 94
r 0.785842 1 4 sctp 1500 -------D 0 1.0 4.0 1 100 153 0 99
+ 0.785842 4 1 sctp 56 -------S 0 4.0 1.0 1 96 165 65535 65535
- 0.785842 4 1 sctp 56 -------S 0 4.0 1.0 1 96 165 65535 65535
r 0.785842 2 5 sctp 1500 -------D 0 2.0 5.0 1 97 150 0 96
r 0.787042 1 4 sctp 1500 -------D 0 1.0 4.0 1 102 155 0 101
+ 0.787042 4 1 sctp 56 -------S 0 4.0 1.0 1 98 166 65535 65535
- 0.787042 4 1 sctp 56 -------S 0 4.0 1.0 1 98 166 65535 65535
r 0.787042 2 5 sctp 1500 -------D 0 2.0 5.0 1 99 152 0 98
r 0.788242 1 4 sctp 1500 -------D 0 1.0 4.0 1 103 156 0 102
+ 0.788242 4 1 sctp 52 -------S 0 4.0 1.0 1 100 167 65535 65535
- 0.788242 4 1 sctp 52 -------S 0 4.0 1.0 1 100 167 65535 65535
r 0.788242 2 5 sctp 1500 -------D 0 2.0 5.0 1 101 154 0 100
r 0.789442 2 5 sctp 1500 -------D 0 2.0 5.0 1 104 157 0 103
+ 0.789442 5 2 sctp 48 -------S 0 5.0 2.0 1 104 168 65535 65535
- 0.789442 5 2 sctp 48 -------S 0 5.0 2.0 1 104 168 65535 65535
r 0.81888 4 1 sctp 48 -------S 0 4.0 1.0 1 84 158 65535 65535
+ 0.81888 1 4 sctp 1500 -------D 0 1.0 4.0 1 105 169 0 104
- 0.81888 1 4 sctp 1500 -------D 0 1.0 4.0 1 105 169 0 104
+ 0.81888 2 5 sctp 1500 -------D 0 2.0 5.0 1 106 170 0 105
- 0.81888 2 5 sctp 1500 -------D 0 2.0 5.0 1 106 170 0 105
r 0.821283 4 1 sctp 52 -------S 0 4.0 1.0 1 85 159 65535 65535
+ 0.821283 1 4 sctp 1500 -------D 0 1.0 4.0 1 107 171 0 106
- 0.821283 1 4 sctp 1500 -------D 0 1.0 4.0 1 107 171 0 106
+ 0.821283 2 5 sctp 1500 -------D 0 2.0 5.0 1 108 172 0 107
- 0.821283 2 5 sctp 1500 -------D 0 2.0 5.0 1 108 172 0 107
r 0.823683 5 2 sctp 52 -------S 0 5.0 2.0 1 87 160 65535 65535
+ 0.823683 2 5 sctp 1500 -------D 0 2.0 5.0 1 109 173 0 108
- 0.823683 2 5 sctp 1500 -------D 0 2.0 5.0 1 109 173 0 108
+ 0.823683 2 5 sctp 1500 -------D 0 2.0 5.0 1 110 174 0 109
+ 0.823683 2 5 sctp 1500 -------D 0 2.0 5.0 1 111 175 0 110
- 0.824883 2 5 sctp 1500 -------D 0 2.0 5.0 1 110 174 0 109
r 0.826083 4 1 sctp 52 -------S 0 4.0 1.0 1 89 161 65535 65535
+ 0.826083 1 4 sctp 1500 -------D 0 1.0 4.0 1 112 176 0 111
- 0.826083 1 4 sctp 1500 -------D 0 1.0 4.0 1 112 176 0 111
+ 0.826083 2 5 sctp 1500 -------D 0 2.0 5.0 1 113 177 0 112
- 0.826083 2 5 sctp 1500 -------D 0 2.0 5.0 1 111 175 0 110
- 0.827283 2 5 sctp 1500 -------D 0 2.0 5.0 1 113 177 0 112
r 0.827286 4 1 sctp 56 -------S 0 4.0 1.0 1 90 162 65535 65535
+ 0.827286 1 4 sctp 1500 -------D 0 1.0 4.0 1 114 178 0 113
- 0.827286 1 4 sctp 1500 -------D 0 1.0 4.0 1 114 178 0 113
+ 0.827286 2 5 sctp 1500 -------D 0 2.0 5.0 1 115 179 0 114
- 0.828483 2 5 sctp 1500 -------D 0 2.0 5.0 1 115 179 0 114