+ 0.5 1 4 sctp 56 -------I 0 1.0 4.0 1 -1 4 65535 65535
- 0.5 1 4 sctp 56 -------I 0 1.0 4.0 1 -1 4 65535 65535
r 0.700896 1 4 sctp 56 -------I 0 1.0 4.0 1 -1 4 65535 65535
+ 0.700896 4 1 sctp 56 -------I 0 4.0 1.0 1 -1 5 65535 65535
- 0.700896 4 1 sctp 56 -------I 0 4.0 1.0 1 -1 5 65535 65535
r 0.901792 4 1 sctp 56 -------I 0 4.0 1.0 1 -1 5 65535 65535
+ 0.901792 1 4 sctp 36 -------I 0 1.0 4.0 1 -1 6 65535 65535
- 0.901792 1 4 sctp 36 -------I 0 1.0 4.0 1 -1 6 65535 65535
r 1.102368 1 4 sctp 36 -------I 0 1.0 4.0 1 -1 6 65535 65535
+ 1.102368 4 1 sctp 36 -------I 0 4.0 1.0 1 -1 7 65535 65535
- 1.102368 4 1 sctp 36 -------I 0 4.0 1.0 1 -1 7 65535 65535
r 1.302944 4 1 sctp 36 -------I 0 4.0 1.0 1 -1 7 65535 65535
+ 1.302944 1 4 sctp 56 -------H 0 1.0 4.0 1 -1 8 65535 65535
- 1.302944 1 4 sctp 56 -------H 0 1.0 4.0 1 -1 8 65535 65535
+ 1.302944 2 5 sctp 56 -------H 0 2.0 5.0 1 -1 9 65535 65535
- 1.302944 2 5 sctp 56 -------H 0 2.0 5.0 1 -1 9 65535 65535
r 1.50384 1 4 sctp 56 -------H 0 1.0 4.0 1 -1 8 65535 65535
+ 1.50384 4 1 sctp 56 -------B 0 4.0 1.0 1 -1 10 65535 65535
- 1.50384 4 1 sctp 56 -------B 0 4.0 1.0 1 -1 10 65535 65535
r 1.50384 2 5 sctp 56 -------H 0 2.0 5.0 1 -1 9 65535 65535
+ 1.50384 5 2 sctp 56 -------B 0 5.0 2.0 1 -1 11 65535 65535
- 1.50384 5 2 sctp 56 -------B 0 5.0 2.0 1 -1 11 65535 65535
r 1.704736 4 1 sctp 56 -------B 0 4.0 1.0 1 -1 10 65535 65535
r 1.704736 5 2 sctp 56 -------B 0 5.0 2.0 1 -1 11 65535 65535
+ 1.704736 1 4 sctp 1500 -------D 0 1.0 4.0 1 1 12 0 0
- 1.704736 1 4 sctp 1500 -------D 0 1.0 4.0 1 1 12 0 0
+ 1.704736 1 4 sctp 1500 -------D 0 1.0 4.0 1 2 13 0 1
+ 1.704736 1 4 sctp 1500 -------D 0 1.0 4.0 1 3 14 0 2
- 1.728736 1 4 sctp 1500 -------D 0 1.0 4.0 1 2 13 0 1
- 1.752736 1 4 sctp 1500 -------D 0 1.0 4.0 1 3 14 0 2
r 1.928736 1 4 sctp 1500 -------D 0 1.0 4.0 1 1 12 0 0
+ 1.928736 4 1 sctp 48 -------S 0 4.0 1.0 1 1 15 65535 65535
- 1.928736 4 1 sctp 48 -------S 0 4.0 1.0 1 1 15 65535 65535
r 1.952736 1 4 sctp 1500 -------D 0 1.0 4.0 1 2 13 0 1
r 1.976736 1 4 sctp 1500 -------D 0 1.0 4.0 1 3 14 0 2
+ 1.976736 4 1 sctp 48 -------S 0 4.0 1.0 1 3 16 65535 65535
- 1.976736 4 1 sctp 48 -------S 0 4.0 1.0 1 3 16 65535 65535
r 2.129504 4 1 sctp 48 -------S 0 4.0 1.0 1 1 15 65535 65535
+ 2.129504 1 4 sctp 1500 -------D 0 1.0 4.0 1 4 17 0 3
- 2.129504 1 4 sctp 1500 -------D 0 1.0 4.0 1 4 17 0 3
+ 2.129504 1 4 sctp 1500 -------D 0 1.0 4.0 1 5 18 0 4
- 2.153504 1 4 sctp 1500 -------D 0 1.0 4.0 1 5 18 0 4
r 2.177504 4 1 sctp 48 -------S 0 4.0 1.0 1 3 16 65535 65535
+ 2.177504 1 4 sctp 1500 -------D 0 1.0 4.0 1 6 19 0 5
+ 2.177504 1 4 sctp 1500 -------D 0 1.0 4.0 1 7 20 0 6
+ 2.177504 1 4 sctp 1500 -------D 0 1.0 4.0 1 8 21 0 7
- 2.177504 1 4 sctp 1500 -------D 0 1.0 4.0 1 6 19 0 5
- 2.201504 1 4 sctp 1500 -------D 0 1.0 4.0 1 7 20 0 6
- 2.225504 1 4 sctp 1500 -------D 0 1.0 4.0 1 8 21 0 7
r 2.353504 1 4 sctp 1500 -------D 0 1.0 4.0 1 4 17 0 3
r 2.377504 1 4 sctp 1500 -------D 0 1.0 4.0 1 5 18 0 4
+ 2.377504 4 1 sctp 48 -------S 0 4.0 1.0 1 5 22 65535 65535
- 2.377504 4 1 sctp 48 -------S 0 4.0 1.0 1 5 22 65535 65535
r 2.401504 1 4 sctp 1500 -------D 0 1.0 4.0 1 6 19 0 5
r 2.425504 1 4 sctp 1500 -------D 0 1.0 4.0 1 7 20 0 6
+ 2.425504 4 1 sctp 48 -------S 0 4.0 1.0 1 7 23 65535 65535
- 2.425504 4 1 sctp 48 -------S 0 4.0 1.0 1 7 23 65535 65535
r 2.449504 1 4 sctp 1500 -------D 0 1.0 4.0 1 8 21 0 7
r 2.578272 4 1 sctp 48 -------S 0 4.0 1.0 1 5 22 65535 65535
+ 2.578272 1 4 sctp 1500 -------D 0 1.0 4.0 1 9 24 0 8
- 2.578272 1 4 sctp 1500 -------D 0 1.0 4.0 1 9 24 0 8
+ 2.578272 1 4 sctp 1500 -------D 0 1.0 4.0 1 10 25 0 9
+ 2.578272 1 4 sctp 1500 -------D 0 1.0 4.0 1 11 26 0 10
- 2.602272 1 4 sctp 1500 -------D 0 1.0 4.0 1 10 25 0 9
r 2.626272 4 1 sctp 48 -------S 0 4.0 1.0 1 7 23 65535 65535
+ 2.626272 1 4 sctp 1500 -------D 0 1.0 4.0 1 12 27 0 11
+ 2.626272 1 4 sctp 1500 -------D 0 1.0 4.0 1 13 28 0 12
d 2.626272 1 4 sctp 1500 -------D 0 1.0 4.0 1 14 29 0 13
- 2.626272 1 4 sctp 1500 -------D 0 1.0 4.0 1 11 26 0 10
+ 2.649504 4 1 sctp 48 -------S 0 4.0 1.0 1 8 30 65535 65535
- 2.649504 4 1 sctp 48 -------S 0 4.0 1.0 1 8 30 65535 65535
- 2.650272 1 4 sctp 1500 -------D 0 1.0 4.0 1 12 27 0 11
- 2.674272 1 4 sctp 1500 -------D 0 1.0 4.0 1 13 28 0 12
r 2.802272 1 4 sctp 1500 -------D 0 1.0 4.0 1 9 24 0 8
r 2.826272 1 4 sctp 1500 -------D 0 1.0 4.0 1 10 25 0 9
+ 2.826272 4 1 sctp 48 -------S 0 4.0 1.0 1 10 31 65535 65535
- 2.826272 4 1 sctp 48 -------S 0 4.0 1.0 1 10 31 65535 65535
r 2.850272 1 4 sctp 1500 -------D 0 1.0 4.0 1 11 26 0 10
r 2.850272 4 1 sctp 48 -------S 0 4.0 1.0 1 8 30 65535 65535
+ 2.850272 1 4 sctp 1500 -------D 0 1.0 4.0 1 15 32 0 14
- 2.850272 1 4 sctp 1500 -------D 0 1.0 4.0 1 15 32 0 14
+ 2.850272 1 4 sctp 1500 -------D 0 1.0 4.0 1 16 33 0 15
r 2.874272 1 4 sctp 1500 -------D 0 1.0 4.0 1 12 27 0 11
+ 2.874272 4 1 sctp 48 -------S 0 4.0 1.0 1 12 34 65535 65535
- 2.874272 4 1 sctp 48 -------S 0 4.0 1.0 1 12 34 65535 65535
- 2.874272 1 4 sctp 1500 -------D 0 1.0 4.0 1 16 33 0 15
r 2.898272 1 4 sctp 1500 -------D 0 1.0 4.0 1 13 28 0 12
r 3.02704 4 1 sctp 48 -------S 0 4.0 1.0 1 10 31 65535 65535
+ 3.02704 1 4 sctp 1500 -------D 0 1.0 4.0 1 17 35 0 16
- 3.02704 1 4 sctp 1500 -------D 0 1.0 4.0 1 17 35 0 16
+ 3.02704 1 4 sctp 1500 -------D 0 1.0 4.0 1 18 36 0 17
+ 3.02704 1 4 sctp 1500 -------D 0 1.0 4.0 1 19 37 0 18
- 3.05104 1 4 sctp 1500 -------D 0 1.0 4.0 1 18 36 0 17
r 3.074272 1 4 sctp 1500 -------D 0 1.0 4.0 1 15 32 0 14
+ 3.074272 4 1 sctp 52 -------S 0 4.0 1.0 1 13 38 65535 65535
- 3.074272 4 1 sctp 52 -------S 0 4.0 1.0 1 13 38 65535 65535
r 3.07504 4 1 sctp 48 -------S 0 4.0 1.0 1 12 34 65535 65535
+ 3.07504 1 4 sctp 1500 -------D 0 1.0 4.0 1 20 39 0 19
+ 3.07504 1 4 sctp 1500 -------D 0 1.0 4.0 1 21 40 0 20
+ 3.07504 1 4 sctp 1500 -------D 0 1.0 4.0 1 22 41 0 21
- 3.07504 1 4 sctp 1500 -------D 0 1.0 4.0 1 19 37 0 18
r 3.098272 1 4 sctp 1500 -------D 0 1.0 4.0 1 16 33 0 15
+ 3.098272 4 1 sctp 52 -------S 0 4.0 1.0 1 13 42 65535 65535
- 3.098272 4 1 sctp 52 -------S 0 4.0 1.0 1 13 42 65535 65535
- 3.09904 1 4 sctp 1500 -------D 0 1.0 4.0 1 20 39 0 19
- 3.12304 1 4 sctp 1500 -------D 0 1.0 4.0 1 21 40 0 20
- 3.14704 1 4 sctp 1500 -------D 0 1.0 4.0 1 22 41 0 21
r 3.25104 1 4 sctp 1500 -------D 0 1.0 4.0 1 17 35 0 16
+ 3.25104 4 1 sctp 52 -------S 0 4.0 1.0 1 13 43 65535 65535
- 3.25104 4 1 sctp 52 -------S 0 4.0 1.0 1 13 43 65535 65535
r 3.27504 1 4 sctp 1500 -------D 0 1.0 4.0 1 18 36 0 17
+ 3.27504 4 1 sctp 52 -------S 0 4.0 1.0 1 13 44 65535 65535
- 3.27504 4 1 sctp 52 -------S 0 4.0 1.0 1 13 44 65535 65535
r 3.275104 4 1 sctp 52 -------S 0 4.0 1.0 1 13 38 65535 65535
+ 3.275104 1 4 sctp 1500 -------D 0 1.0 4.0 1 23 45 0 22
- 3.275104 1 4 sctp 1500 -------D 0 1.0 4.0 1 23 45 0 22
+ 3.275104 1 4 sctp 1500 -------D 0 1.0 4.0 1 24 46 0 23
+ 3.275104 1 4 sctp 1500 -------D 0 1.0 4.0 1 25 47 0 24
r 3.29904 1 4 sctp 1500 -------D 0 1.0 4.0 1 19 37 0 18
+ 3.29904 4 1 sctp 52 -------S 0 4.0 1.0 1 13 48 65535 65535
- 3.29904 4 1 sctp 52 -------S 0 4.0 1.0 1 13 48 65535 65535
r 3.299104 4 1 sctp 52 -------S 0 4.0 1.0 1 13 42 65535 65535
+ 3.299104 1 4 sctp 1500 -------D 0 1.0 4.0 1 26 49 0 25
- 3.299104 1 4 sctp 1500 -------D 0 1.0 4.0 1 24 46 0 23
r 3.32304 1 4 sctp 1500 -------D 0 1.0 4.0 1 20 39 0 19
+ 3.32304 4 1 sctp 52 -------S 0 4.0 1.0 1 13 50 65535 65535
- 3.32304 4 1 sctp 52 -------S 0 4.0 1.0 1 13 50 65535 65535
- 3.323104 1 4 sctp 1500 -------D 0 1.0 4.0 1 25 47 0 24
r 3.34704 1 4 sctp 1500 -------D 0 1.0 4.0 1 21 40 0 20
+ 3.34704 4 1 sctp 52 -------S 0 4.0 1.0 1 13 51 65535 65535
- 3.34704 4 1 sctp 52 -------S 0 4.0 1.0 1 13 51 65535 65535
- 3.347104 1 4 sctp 1500 -------D 0 1.0 4.0 1 26 49 0 25
r 3.37104 1 4 sctp 1500 -------D 0 1.0 4.0 1 22 41 0 21
+ 3.37104 4 1 sctp 52 -------S 0 4.0 1.0 1 13 52 65535 65535
- 3.37104 4 1 sctp 52 -------S 0 4.0 1.0 1 13 52 65535 65535
r 3.451872 4 1 sctp 52 -------S 0 4.0 1.0 1 13 43 65535 65535
d 3.451872 1 4 sctp 1500 -------D 0 1.0 4.0 1 14 53 0 13
r 3.475872 4 1 sctp 52 -------S 0 4.0 1.0 1 13 44 65535 65535
r 3.499104 1 4 sctp 1500 -------D 0 1.0 4.0 1 23 45 0 22
+ 3.499104 4 1 sctp 52 -------S 0 4.0 1.0 1 13 54 65535 65535
- 3.499104 4 1 sctp 52 -------S 0 4.0 1.0 1 13 54 65535 65535
r 3.499872 4 1 sctp 52 -------S 0 4.0 1.0 1 13 48 65535 65535
r 3.523104 1 4 sctp 1500 -------D 0 1.0 4.0 1 24 46 0 23
+ 3.523104 4 1 sctp 52 -------S 0 4.0 1.0 1 13 55 65535 65535
- 3.523104 4 1 sctp 52 -------S 0 4.0 1.0 1 13 55 65535 65535
r 3.523872 4 1 sctp 52 -------S 0 4.0 1.0 1 13 50 65535 65535
r 3.547104 1 4 sctp 1500 -------D 0 1.0 4.0 1 25 47 0 24
+ 3.547104 4 1 sctp 52 -------S 0 4.0 1.0 1 13 56 65535 65535
- 3.547104 4 1 sctp 52 -------S 0 4.0 1.0 1 13 56 65535 65535
r 3.547872 4 1 sctp 52 -------S 0 4.0 1.0 1 13 51 65535 65535
r 3.571104 1 4 sctp 1500 -------D 0 1.0 4.0 1 26 49 0 25
+ 3.571104 4 1 sctp 52 -------S 0 4.0 1.0 1 13 57 65535 65535
- 3.571104 4 1 sctp 52 -------S 0 4.0 1.0 1 13 57 65535 65535
r 3.571872 4 1 sctp 52 -------S 0 4.0 1.0 1 13 52 65535 65535
+ 3.571872 1 4 sctp 1500 -------D 0 1.0 4.0 1 27 58 0 26
- 3.571872 1 4 sctp 1500 -------D 0 1.0 4.0 1 27 58 0 26
r 3.699936 4 1 sctp 52 -------S 0 4.0 1.0 1 13 54 65535 65535
+ 3.699936 1 4 sctp 1500 -------D 0 1.0 4.0 1 28 59 0 27
- 3.699936 1 4 sctp 1500 -------D 0 1.0 4.0 1 28 59 0 27
r 3.723936 4 1 sctp 52 -------S 0 4.0 1.0 1 13 55 65535 65535
+ 3.723936 1 4 sctp 1500 -------D 0 1.0 4.0 1 29 60 0 28
- 3.723936 1 4 sctp 1500 -------D 0 1.0 4.0 1 29 60 0 28
r 3.747936 4 1 sctp 52 -------S 0 4.0 1.0 1 13 56 65535 65535
+ 3.747936 1 4 sctp 1500 -------D 0 1.0 4.0 1 30 61 0 29
- 3.747936 1 4 sctp 1500 -------D 0 1.0 4.0 1 30 61 0 29
r 3.771936 4 1 sctp 52 -------S 0 4.0 1.0 1 13 57 65535 65535
+ 3.771936 1 4 sctp 1500 -------D 0 1.0 4.0 1 31 62 0 30
- 3.771936 1 4 sctp 1500 -------D 0 1.0 4.0 1 31 62 0 30
r 3.795872 1 4 sctp 1500 -------D 0 1.0 4.0 1 27 58 0 26
+ 3.795872 4 1 sctp 52 -------S 0 4.0 1.0 1 13 63 65535 65535
- 3.795872 4 1 sctp 52 -------S 0 4.0 1.0 1 13 63 65535 65535
r 3.923936 1 4 sctp 1500 -------D 0 1.0 4.0 1 28 59 0 27
+ 3.923936 4 1 sctp 52 -------S 0 4.0 1.0 1 13 64 65535 65535
- 3.923936 4 1 sctp 52 -------S 0 4.0 1.0 1 13 64 65535 65535
r 3.947936 1 4 sctp 1500 -------D 0 1.0 4.0 1 29 60 0 28
+ 3.947936 4 1 sctp 52 -------S 0 4.0 1.0 1 13 65 65535 65535
- 3.947936 4 1 sctp 52 -------S 0 4.0 1.0 1 13 65 65535 65535
r 3.971936 1 4 sctp 1500 -------D 0 1.0 4.0 1 30 61 0 29
+ 3.971936 4 1 sctp 52 -------S 0 4.0 1.0 1 13 66 65535 65535
- 3.971936 4 1 sctp 52 -------S 0 4.0 1.0 1 13 66 65535 65535
r 3.995936 1 4 sctp 1500 -------D 0 1.0 4.0 1 31 62 0 30
+ 3.995936 4 1 sctp 52 -------S 0 4.0 1.0 1 13 67 65535 65535
- 3.995936 4 1 sctp 52 -------S 0 4.0 1.0 1 13 67 65535 65535
r 3.996704 4 1 sctp 52 -------S 0 4.0 1.0 1 13 63 65535 65535
+ 3.996704 1 4 sctp 1500 -------D 0 1.0 4.0 1 32 68 0 31
- 3.996704 1 4 sctp 1500 -------D 0 1.0 4.0 1 32 68 0 31
r 4.124768 4 1 sctp 52 -------S 0 4.0 1.0 1 13 64 65535 65535
+ 4.124768 1 4 sctp 1500 -------D 0 1.0 4.0 1 33 69 0 32
- 4.124768 1 4 sctp 1500 -------D 0 1.0 4.0 1 33 69 0 32
r 4.148768 4 1 sctp 52 -------S 0 4.0 1.0 1 13 65 65535 65535
d 4.148768 1 4 sctp 1500 -------D 0 1.0 4.0 1 14 70 0 13
d 4.148768 1 4 sctp 1500 -------D 0 1.0 4.0 1 34 71 0 33
r 4.172768 4 1 sctp 52 -------S 0 4.0 1.0 1 13 66 65535 65535
d 4.172768 1 4 sctp 1500 -------D 0 1.0 4.0 1 35 72 0 34
r 4.196768 4 1 sctp 52 -------S 0 4.0 1.0 1 13 67 65535 65535
d 4.196768 1 4 sctp 1500 -------D 0 1.0 4.0 1 36 73 0 35
r 4.220704 1 4 sctp 1500 -------D 0 1.0 4.0 1 32 68 0 31
+ 4.220704 4 1 sctp 52 -------S 0 4.0 1.0 1 13 74 65535 65535
- 4.220704 4 1 sctp 52 -------S 0 4.0 1.0 1 13 74 65535 65535
r 4.348768 1 4 sctp 1500 -------D 0 1.0 4.0 1 33 69 0 32
+ 4.348768 4 1 sctp 52 -------S 0 4.0 1.0 1 13 75 65535 65535
- 4.348768 4 1 sctp 52 -------S 0 4.0 1.0 1 13 75 65535 65535
r 4.421536 4 1 sctp 52 -------S 0 4.0 1.0 1 13 74 65535 65535
d 4.421536 1 4 sctp 1500 -------D 0 1.0 4.0 1 37 76 0 36
r 4.5496 4 1 sctp 52 -------S 0 4.0 1.0 1 13 75 65535 65535
d 4.5496 1 4 sctp 1500 -------D 0 1.0 4.0 1 38 77 0 37
+ 5.148768 2 5 sctp 1500 -------D 0 2.0 5.0 1 14 78 0 13
- 5.148768 2 5 sctp 1500 -------D 0 2.0 5.0 1 14 78 0 13
r 5.372768 2 5 sctp 1500 -------D 0 2.0 5.0 1 14 78 0 13
+ 5.572768 5 2 sctp 48 -------S 0 5.0 2.0 1 33 79 65535 65535
- 5.572768 5 2 sctp 48 -------S 0 5.0 2.0 1 33 79 65535 65535
r 5.773536 5 2 sctp 48 -------S 0 5.0 2.0 1 33 79 65535 65535
+ 5.773536 2 5 sctp 1500 -------D 0 2.0 5.0 1 34 80 0 33
- 5.773536 2 5 sctp 1500 -------D 0 2.0 5.0 1 34 80 0 33
+ 5.773536 2 5 sctp 1500 -------D 0 2.0 5.0 1 35 81 0 34
+ 5.773536 2 5 sctp 1500 -------D 0 2.0 5.0 1 36 82 0 35
- 5.797536 2 5 sctp 1500 -------D 0 2.0 5.0 1 35 81 0 34
- 5.821536 2 5 sctp 1500 -------D 0 2.0 5.0 1 36 82 0 35
r 5.997536 2 5 sctp 1500 -------D 0 2.0 5.0 1 34 80 0 33
r 6.021536 2 5 sctp 1500 -------D 0 2.0 5.0 1 35 81 0 34
+ 6.021536 5 2 sctp 48 -------S 0 5.0 2.0 1 35 83 65535 65535
- 6.021536 5 2 sctp 48 -------S 0 5.0 2.0 1 35 83 65535 65535
r 6.045536 2 5 sctp 1500 -------D 0 2.0 5.0 1 36 82 0 35
r 6.222304 5 2 sctp 48 -------S 0 5.0 2.0 1 35 83 65535 65535
+ 6.222304 2 5 sctp 1500 -------D 0 2.0 5.0 1 37 84 0 36
- 6.222304 2 5 sctp 1500 -------D 0 2.0 5.0 1 37 84 0 36
+ 6.222304 2 5 sctp 1500 -------D 0 2.0 5.0 1 38 85 0 37
+ 6.222304 1 4 sctp 1500 -------D 0 1.0 4.0 1 39 86 0 38
- 6.222304 1 4 sctp 1500 -------D 0 1.0 4.0 1 39 86 0 38
+ 6.245536 5 2 sctp 48 -------S 0 5.0 2.0 1 36 87 65535 65535
- 6.245536 5 2 sctp 48 -------S 0 5.0 2.0 1 36 87 65535 65535
- 6.246304 2 5 sctp 1500 -------D 0 2.0 5.0 1 38 85 0 37
r 6.446304 2 5 sctp 1500 -------D 0 2.0 5.0 1 37 84 0 36
r 6.446304 1 4 sctp 1500 -------D 0 1.0 4.0 1 39 86 0 38
+ 6.446304 4 1 sctp 52 -------S 0 4.0 1.0 1 37 88 65535 65535
- 6.446304 4 1 sctp 52 -------S 0 4.0 1.0 1 37 88 65535 65535
r 6.446304 5 2 sctp 48 -------S 0 5.0 2.0 1 36 87 65535 65535
r 6.470304 2 5 sctp 1500 -------D 0 2.0 5.0 1 38 85 0 37
r 6.647136 4 1 sctp 52 -------S 0 4.0 1.0 1 37 88 65535 65535
+ 6.647136 1 4 sctp 1500 -------D 0 1.0 4.0 1 40 89 0 39
- 6.647136 1 4 sctp 1500 -------D 0 1.0 4.0 1 40 89 0 39
+ 6.647136 1 4 sctp 1500 -------D 0 1.0 4.0 1 41 90 0 40
+ 6.670304 5 2 sctp 48 -------S 0 5.0 2.0 1 39 91 65535 65535
- 6.670304 5 2 sctp 48 -------S 0 5.0 2.0 1 39 91 65535 65535
- 6.671136 1 4 sctp 1500 -------D 0 1.0 4.0 1 41 90 0 40
r 6.871072 5 2 sctp 48 -------S 0 5.0 2.0 1 39 91 65535 65535
r 6.871136 1 4 sctp 1500 -------D 0 1.0 4.0 1 40 89 0 39
r 6.895136 1 4 sctp 1500 -------D 0 1.0 4.0 1 41 90 0 40
+ 6.895136 4 1 sctp 48 -------S 0 4.0 1.0 1 41 92 65535 65535
- 6.895136 4 1 sctp 48 -------S 0 4.0 1.0 1 41 92 65535 65535
r 7.095904 4 1 sctp 48 -------S 0 4.0 1.0 1 41 92 65535 65535
+ 7.095904 1 4 sctp 1500 -------D 0 1.0 4.0 1 42 93 0 41
- 7.095904 1 4 sctp 1500 -------D 0 1.0 4.0 1 42 93 0 41
+ 7.095904 1 4 sctp 1500 -------D 0 1.0 4.0 1 43 94 0 42
+ 7.095904 1 4 sctp 1500 -------D 0 1.0 4.0 1 44 95 0 43
- 7.119904 1 4 sctp 1500 -------D 0 1.0 4.0 1 43 94 0 42
- 7.143904 1 4 sctp 1500 -------D 0 1.0 4.0 1 44 95 0 43
r 7.319904 1 4 sctp 1500 -------D 0 1.0 4.0 1 42 93 0 41
r 7.343904 1 4 sctp 1500 -------D 0 1.0 4.0 1 43 94 0 42
+ 7.343904 4 1 sctp 48 -------S 0 4.0 1.0 1 43 96 65535 65535
- 7.343904 4 1 sctp 48 -------S 0 4.0 1.0 1 43 96 65535 65535
r 7.367904 1 4 sctp 1500 -------D 0 1.0 4.0 1 44 95 0 43
r 7.544672 4 1 sctp 48 -------S 0 4.0 1.0 1 43 96 65535 65535
+ 7.544672 1 4 sctp 1500 -------D 0 1.0 4.0 1 45 97 0 44
- 7.544672 1 4 sctp 1500 -------D 0 1.0 4.0 1 45 97 0 44
+ 7.544672 1 4 sctp 1500 -------D 0 1.0 4.0 1 46 98 0 45
+ 7.544672 1 4 sctp 1500 -------D 0 1.0 4.0 1 47 99 0 46
+ 7.567904 4 1 sctp 48 -------S 0 4.0 1.0 1 44 100 65535 65535
- 7.567904 4 1 sctp 48 -------S 0 4.0 1.0 1 44 100 65535 65535
- 7.568672 1 4 sctp 1500 -------D 0 1.0 4.0 1 46 98 0 45
- 7.592672 1 4 sctp 1500 -------D 0 1.0 4.0 1 47 99 0 46
r 7.768672 1 4 sctp 1500 -------D 0 1.0 4.0 1 45 97 0 44
r 7.768672 4 1 sctp 48 -------S 0 4.0 1.0 1 44 100 65535 65535
+ 7.768672 1 4 sctp 1500 -------D 0 1.0 4.0 1 48 101 0 47
- 7.768672 1 4 sctp 1500 -------D 0 1.0 4.0 1 48 101 0 47
+ 7.768672 1 4 sctp 1500 -------D 0 1.0 4.0 1 49 102 0 48
r 7.792672 1 4 sctp 1500 -------D 0 1.0 4.0 1 46 98 0 45
+ 7.792672 4 1 sctp 48 -------S 0 4.0 1.0 1 46 103 65535 65535
- 7.792672 4 1 sctp 48 -------S 0 4.0 1.0 1 46 103 65535 65535
- 7.792672 1 4 sctp 1500 -------D 0 1.0 4.0 1 49 102 0 48
r 7.816672 1 4 sctp 1500 -------D 0 1.0 4.0 1 47 99 0 46
r 7.992672 1 4 sctp 1500 -------D 0 1.0 4.0 1 48 101 0 47
+ 7.992672 4 1 sctp 48 -------S 0 4.0 1.0 1 48 104 65535 65535
- 7.992672 4 1 sctp 48 -------S 0 4.0 1.0 1 48 104 65535 65535
r 7.99344 4 1 sctp 48 -------S 0 4.0 1.0 1 46 103 65535 65535
+ 7.99344 1 4 sctp 1500 -------D 0 1.0 4.0 1 50 105 0 49
- 7.99344 1 4 sctp 1500 -------D 0 1.0 4.0 1 50 105 0 49
+ 7.99344 1 4 sctp 1500 -------D 0 1.0 4.0 1 51 106 0 50
r 8.016672 1 4 sctp 1500 -------D 0 1.0 4.0 1 49 102 0 48
- 8.01744 1 4 sctp 1500 -------D 0 1.0 4.0 1 51 106 0 50
r 8.19344 4 1 sctp 48 -------S 0 4.0 1.0 1 48 104 65535 65535
+ 8.19344 1 4 sctp 1500 -------D 0 1.0 4.0 1 52 107 0 51
- 8.19344 1 4 sctp 1500 -------D 0 1.0 4.0 1 52 107 0 51
+ 8.19344 1 4 sctp 1500 -------D 0 1.0 4.0 1 53 108 0 52
+ 8.216672 4 1 sctp 48 -------S 0 4.0 1.0 1 49 109 65535 65535
- 8.216672 4 1 sctp 48 -------S 0 4.0 1.0 1 49 109 65535 65535
- 8.21744 1 4 sctp 1500 -------D 0 1.0 4.0 1 53 108 0 52
r 8.21744 1 4 sctp 1500 -------D 0 1.0 4.0 1 50 105 0 49
r 8.24144 1 4 sctp 1500 -------D 0 1.0 4.0 1 51 106 0 50
+ 8.24144 4 1 sctp 48 -------S 0 4.0 1.0 1 51 110 65535 65535
- 8.24144 4 1 sctp 48 -------S 0 4.0 1.0 1 51 110 65535 65535
r 8.41744 1 4 sctp 1500 -------D 0 1.0 4.0 1 52 107 0 51
r 8.41744 4 1 sctp 48 -------S 0 4.0 1.0 1 49 109 65535 65535
+ 8.41744 1 4 sctp 1500 -------D 0 1.0 4.0 1 54 111 0 53
- 8.41744 1 4 sctp 1500 -------D 0 1.0 4.0 1 54 111 0 53
+ 8.41744 1 4 sctp 1500 -------D 0 1.0 4.0 1 55 112 0 54
r 8.44144 1 4 sctp 1500 -------D 0 1.0 4.0 1 53 108 0 52
+ 8.44144 4 1 sctp 48 -------S 0 4.0 1.0 1 53 113 65535 65535
- 8.44144 4 1 sctp 48 -------S 0 4.0 1.0 1 53 113 65535 65535
- 8.44144 1 4 sctp 1500 -------D 0 1.0 4.0 1 55 112 0 54
r 8.442208 4 1 sctp 48 -------S 0 4.0 1.0 1 51 110 65535 65535
+ 8.442208 1 4 sctp 1500 -------D 0 1.0 4.0 1 56 114 0 55
+ 8.442208 1 4 sctp 1500 -------D 0 1.0 4.0 1 57 115 0 56
- 8.46544 1 4 sctp 1500 -------D 0 1.0 4.0 1 56 114 0 55
- 8.48944 1 4 sctp 1500 -------D 0 1.0 4.0 1 57 115 0 56
r 8.64144 1 4 sctp 1500 -------D 0 1.0 4.0 1 54 111 0 53
r 8.642208 4 1 sctp 48 -------S 0 4.0 1.0 1 53 113 65535 65535
+ 8.642208 1 4 sctp 1500 -------D 0 1.0 4.0 1 58 116 0 57
- 8.642208 1 4 sctp 1500 -------D 0 1.0 4.0 1 58 116 0 57
+ 8.642208 1 4 sctp 1500 -------D 0 1.0 4.0 1 59 117 0 58
r 8.66544 1 4 sctp 1500 -------D 0 1.0 4.0 1 55 112 0 54
+ 8.66544 4 1 sctp 48 -------S 0 4.0 1.0 1 55 118 65535 65535
- 8.66544 4 1 sctp 48 -------S 0 4.0 1.0 1 55 118 65535 65535
- 8.666208 1 4 sctp 1500 -------D 0 1.0 4.0 1 59 117 0 58
r 8.68944 1 4 sctp 1500 -------D 0 1.0 4.0 1 56 114 0 55
r 8.71344 1 4 sctp 1500 -------D 0 1.0 4.0 1 57 115 0 56
+ 8.71344 4 1 sctp 48 -------S 0 4.0 1.0 1 57 119 65535 65535
- 8.71344 4 1 sctp 48 -------S 0 4.0 1.0 1 57 119 65535 65535
r 8.866208 1 4 sctp 1500 -------D 0 1.0 4.0 1 58 116 0 57
r 8.866208 4 1 sctp 48 -------S 0 4.0 1.0 1 55 118 65535 65535
+ 8.866208 1 4 sctp 1500 -------D 0 1.0 4.0 1 60 120 0 59
- 8.866208 1 4 sctp 1500 -------D 0 1.0 4.0 1 60 120 0 59
+ 8.866208 1 4 sctp 1500 -------D 0 1.0 4.0 1 61 121 0 60
+ 8.866208 1 4 sctp 1500 -------D 0 1.0 4.0 1 62 122 0 61
r 8.890208 1 4 sctp 1500 -------D 0 1.0 4.0 1 59 117 0 58
+ 8.890208 4 1 sctp 48 -------S 0 4.0 1.0 1 59 123 65535 65535
- 8.890208 4 1 sctp 48 -------S 0 4.0 1.0 1 59 123 65535 65535
- 8.890208 1 4 sctp 1500 -------D 0 1.0 4.0 1 61 121 0 60
r 8.914208 4 1 sctp 48 -------S 0 4.0 1.0 1 57 119 65535 65535
+ 8.914208 1 4 sctp 1500 -------D 0 1.0 4.0 1 63 124 0 62
+ 8.914208 1 4 sctp 1500 -------D 0 1.0 4.0 1 64 125 0 63
- 8.914208 1 4 sctp 1500 -------D 0 1.0 4.0 1 62 122 0 61
- 8.938208 1 4 sctp 1500 -------D 0 1.0 4.0 1 63 124 0 62
- 8.962208 1 4 sctp 1500 -------D 0 1.0 4.0 1 64 125 0 63
r 9.090208 1 4 sctp 1500 -------D 0 1.0 4.0 1 60 120 0 59
r 9.090976 4 1 sctp 48 -------S 0 4.0 1.0 1 59 123 65535 65535
r 9.114208 1 4 sctp 1500 -------D 0 1.0 4.0 1 61 121 0 60
+ 9.114208 4 1 sctp 48 -------S 0 4.0 1.0 1 61 126 65535 65535
- 9.114208 4 1 sctp 48 -------S 0 4.0 1.0 1 61 126 65535 65535
r 9.138208 1 4 sctp 1500 -------D 0 1.0 4.0 1 62 122 0 61
r 9.162208 1 4 sctp 1500 -------D 0 1.0 4.0 1 63 124 0 62
+ 9.162208 4 1 sctp 48 -------S 0 4.0 1.0 1 63 127 65535 65535
- 9.162208 4 1 sctp 48 -------S 0 4.0 1.0 1 63 127 65535 65535
r 9.186208 1 4 sctp 1500 -------D 0 1.0 4.0 1 64 125 0 63
r 9.314976 4 1 sctp 48 -------S 0 4.0 1.0 1 61 126 65535 65535
r 9.362976 4 1 sctp 48 -------S 0 4.0 1.0 1 63 127 65535 65535
+ 9.386208 4 1 sctp 48 -------S 0 4.0 1.0 1 64 128 65535 65535
- 9.386208 4 1 sctp 48 -------S 0 4.0 1.0 1 64 128 65535 65535
r 9.586976 4 1 sctp 48 -------S 0 4.0 1.0 1 64 128 65535 65535
