+ 0.5 0 1 sctp 60 -------I 0 0.0 1.0 1 -1 2 65535 65535
- 0.5 0 1 sctp 60 -------I 0 0.0 1.0 1 -1 2 65535 65535
r 0.70096 0 1 sctp 60 -------I 0 0.0 1.0 1 -1 2 65535 65535
+ 0.70096 1 0 sctp 56 -------I 0 1.0 0.0 1 -1 3 65535 65535
- 0.70096 1 0 sctp 56 -------I 0 1.0 0.0 1 -1 3 65535 65535
r 0.901856 1 0 sctp 56 -------I 0 1.0 0.0 1 -1 3 65535 65535
+ 0.901856 0 1 sctp 36 -------I 0 0.0 1.0 1 -1 4 65535 65535
- 0.901856 0 1 sctp 36 -------I 0 0.0 1.0 1 -1 4 65535 65535
r 1.102432 0 1 sctp 36 -------I 0 0.0 1.0 1 -1 4 65535 65535
+ 1.102432 1 0 sctp 36 -------I 0 1.0 0.0 1 -1 5 65535 65535
- 1.102432 1 0 sctp 36 -------I 0 1.0 0.0 1 -1 5 65535 65535
r 1.303008 1 0 sctp 36 -------I 0 1.0 0.0 1 -1 5 65535 65535
+ 1.303008 0 1 sctp 56 -------H 0 0.0 1.0 1 -1 6 65535 65535
- 1.303008 0 1 sctp 56 -------H 0 0.0 1.0 1 -1 6 65535 65535
r 1.503904 0 1 sctp 56 -------H 0 0.0 1.0 1 -1 6 65535 65535
+ 1.503904 1 0 sctp 56 -------B 0 1.0 0.0 1 -1 7 65535 65535
- 1.503904 1 0 sctp 56 -------B 0 1.0 0.0 1 -1 7 65535 65535
r 1.7048 1 0 sctp 56 -------B 0 1.0 0.0 1 -1 7 65535 65535
+ 1.7048 0 1 sctp 1500 -------D 0 0.0 1.0 1 1 8 0 0
- 1.7048 0 1 sctp 1500 -------D 0 0.0 1.0 1 1 8 0 0
+ 1.7048 0 1 sctp 1500 -------D 0 0.0 1.0 1 2 9 0 1
+ 1.7048 0 1 sctp 1500 -------D 0 0.0 1.0 1 3 10 0 2
- 1.7288 0 1 sctp 1500 -------D 0 0.0 1.0 1 2 9 0 1
- 1.7528 0 1 sctp 1500 -------D 0 0.0 1.0 1 3 10 0 2
r 1.9288 0 1 sctp 1500 -------D 0 0.0 1.0 1 1 8 0 0
+ 1.9288 1 0 sctp 48 -------S 0 1.0 0.0 1 1 11 65535 65535
- 1.9288 1 0 sctp 48 -------S 0 1.0 0.0 1 1 11 65535 65535
r 1.9528 0 1 sctp 1500 -------D 0 0.0 1.0 1 2 9 0 1
r 1.9768 0 1 sctp 1500 -------D 0 0.0 1.0 1 3 10 0 2
+ 1.9768 1 0 sctp 48 -------S 0 1.0 0.0 1 3 12 65535 65535
- 1.9768 1 0 sctp 48 -------S 0 1.0 0.0 1 3 12 65535 65535
r 2.129568 1 0 sctp 48 -------S 0 1.0 0.0 1 1 11 65535 65535
+ 2.129568 0 1 sctp 1500 -------D 0 0.0 1.0 1 4 13 0 3
- 2.129568 0 1 sctp 1500 -------D 0 0.0 1.0 1 4 13 0 3
+ 2.129568 0 1 sctp 1500 -------D 0 0.0 1.0 1 5 14 0 4
- 2.153568 0 1 sctp 1500 -------D 0 0.0 1.0 1 5 14 0 4
r 2.177568 1 0 sctp 48 -------S 0 1.0 0.0 1 3 12 65535 65535
+ 2.177568 0 1 sctp 1500 -------D 0 0.0 1.0 1 6 15 0 5
+ 2.177568 0 1 sctp 1500 -------D 0 0.0 1.0 1 7 16 0 6
+ 2.177568 0 1 sctp 1500 -------D 0 0.0 1.0 1 8 17 0 7
- 2.177568 0 1 sctp 1500 -------D 0 0.0 1.0 1 6 15 0 5
- 2.201568 0 1 sctp 1500 -------D 0 0.0 1.0 1 7 16 0 6
- 2.225568 0 1 sctp 1500 -------D 0 0.0 1.0 1 8 17 0 7
r 2.353568 0 1 sctp 1500 -------D 0 0.0 1.0 1 4 13 0 3
r 2.377568 0 1 sctp 1500 -------D 0 0.0 1.0 1 5 14 0 4
+ 2.377568 1 0 sctp 48 -------S 0 1.0 0.0 1 5 18 65535 65535
- 2.377568 1 0 sctp 48 -------S 0 1.0 0.0 1 5 18 65535 65535
r 2.401568 0 1 sctp 1500 -------D 0 0.0 1.0 1 6 15 0 5
r 2.425568 0 1 sctp 1500 -------D 0 0.0 1.0 1 7 16 0 6
+ 2.425568 1 0 sctp 48 -------S 0 1.0 0.0 1 7 19 65535 65535
- 2.425568 1 0 sctp 48 -------S 0 1.0 0.0 1 7 19 65535 65535
r 2.449568 0 1 sctp 1500 -------D 0 0.0 1.0 1 8 17 0 7
r 2.578336 1 0 sctp 48 -------S 0 1.0 0.0 1 5 18 65535 65535
+ 2.578336 0 1 sctp 1500 -------D 0 0.0 1.0 1 9 20 0 8
- 2.578336 0 1 sctp 1500 -------D 0 0.0 1.0 1 9 20 0 8
+ 2.578336 0 1 sctp 1500 -------D 0 0.0 1.0 1 10 21 0 9
+ 2.578336 0 1 sctp 1500 -------D 0 0.0 1.0 1 11 22 0 10
- 2.602336 0 1 sctp 1500 -------D 0 0.0 1.0 1 10 21 0 9
r 2.626336 1 0 sctp 48 -------S 0 1.0 0.0 1 7 19 65535 65535
+ 2.626336 0 1 sctp 1500 -------D 0 0.0 1.0 1 12 23 0 11
+ 2.626336 0 1 sctp 1500 -------D 0 0.0 1.0 1 13 24 0 12
+ 2.626336 0 1 sctp 1500 -------D 0 0.0 1.0 1 14 25 0 13
- 2.626336 0 1 sctp 1500 -------D 0 0.0 1.0 1 11 22 0 10
+ 2.649568 1 0 sctp 48 -------S 0 1.0 0.0 1 8 26 65535 65535
- 2.649568 1 0 sctp 48 -------S 0 1.0 0.0 1 8 26 65535 65535
- 2.650336 0 1 sctp 1500 -------D 0 0.0 1.0 1 12 23 0 11
- 2.674336 0 1 sctp 1500 -------D 0 0.0 1.0 1 13 24 0 12
- 2.698336 0 1 sctp 1500 -------D 0 0.0 1.0 1 14 25 0 13
r 2.802336 0 1 sctp 1500 -------D 0 0.0 1.0 1 9 20 0 8
r 2.826336 0 1 sctp 1500 -------D 0 0.0 1.0 1 10 21 0 9
+ 2.826336 1 0 sctp 48 -------S 0 1.0 0.0 1 10 27 65535 65535
- 2.826336 1 0 sctp 48 -------S 0 1.0 0.0 1 10 27 65535 65535
r 2.850336 0 1 sctp 1500 -------D 0 0.0 1.0 1 11 22 0 10
r 2.850336 1 0 sctp 48 -------S 0 1.0 0.0 1 8 26 65535 65535
+ 2.850336 0 1 sctp 1500 -------D 0 0.0 1.0 1 15 28 0 14
- 2.850336 0 1 sctp 1500 -------D 0 0.0 1.0 1 15 28 0 14
+ 2.850336 0 1 sctp 1500 -------D 0 0.0 1.0 1 16 29 0 15
r 2.874336 0 1 sctp 1500 -------D 0 0.0 1.0 1 12 23 0 11
+ 2.874336 1 0 sctp 48 -------S 0 1.0 0.0 1 12 30 65535 65535
- 2.874336 1 0 sctp 48 -------S 0 1.0 0.0 1 12 30 65535 65535
- 2.874336 0 1 sctp 1500 -------D 0 0.0 1.0 1 16 29 0 15
r 2.898336 0 1 sctp 1500 -------D 0 0.0 1.0 1 13 24 0 12
r 2.922336 0 1 sctp 1500 -------D 0 0.0 1.0 1 14 25 0 13
+ 2.922336 1 0 sctp 48 -------S 0 1.0 0.0 1 14 31 65535 65535
- 2.922336 1 0 sctp 48 -------S 0 1.0 0.0 1 14 31 65535 65535
r 3.027104 1 0 sctp 48 -------S 0 1.0 0.0 1 10 27 65535 65535
+ 3.027104 0 1 sctp 1500 -------D 0 0.0 1.0 1 17 32 0 16
- 3.027104 0 1 sctp 1500 -------D 0 0.0 1.0 1 17 32 0 16
+ 3.027104 0 1 sctp 1500 -------D 0 0.0 1.0 1 18 33 0 17
+ 3.027104 0 1 sctp 1500 -------D 0 0.0 1.0 1 19 34 0 18
- 3.051104 0 1 sctp 1500 -------D 0 0.0 1.0 1 18 33 0 17
r 3.074336 0 1 sctp 1500 -------D 0 0.0 1.0 1 15 28 0 14
r 3.075104 1 0 sctp 48 -------S 0 1.0 0.0 1 12 30 65535 65535
+ 3.075104 0 1 sctp 1500 -------D 0 0.0 1.0 1 20 35 0 19
+ 3.075104 0 1 sctp 1500 -------D 0 0.0 1.0 1 21 36 0 20
+ 3.075104 0 1 sctp 1500 -------D 0 0.0 1.0 1 22 37 0 21
- 3.075104 0 1 sctp 1500 -------D 0 0.0 1.0 1 19 34 0 18
r 3.098336 0 1 sctp 1500 -------D 0 0.0 1.0 1 16 29 0 15
+ 3.098336 1 0 sctp 48 -------S 0 1.0 0.0 1 16 38 65535 65535
- 3.098336 1 0 sctp 48 -------S 0 1.0 0.0 1 16 38 65535 65535
- 3.099104 0 1 sctp 1500 -------D 0 0.0 1.0 1 20 35 0 19
r 3.123104 1 0 sctp 48 -------S 0 1.0 0.0 1 14 31 65535 65535
+ 3.123104 0 1 sctp 1500 -------D 0 0.0 1.0 1 23 39 0 22
+ 3.123104 0 1 sctp 1500 -------D 0 0.0 1.0 1 24 40 0 23
+ 3.123104 0 1 sctp 1500 -------D 0 0.0 1.0 1 25 41 0 24
- 3.123104 0 1 sctp 1500 -------D 0 0.0 1.0 1 21 36 0 20
- 3.147104 0 1 sctp 1500 -------D 0 0.0 1.0 1 22 37 0 21
- 3.171104 0 1 sctp 1500 -------D 0 0.0 1.0 1 23 39 0 22
- 3.195104 0 1 sctp 1500 -------D 0 0.0 1.0 1 24 40 0 23
- 3.219104 0 1 sctp 1500 -------D 0 0.0 1.0 1 25 41 0 24
r 3.251104 0 1 sctp 1500 -------D 0 0.0 1.0 1 17 32 0 16
r 3.275104 0 1 sctp 1500 -------D 0 0.0 1.0 1 18 33 0 17
+ 3.275104 1 0 sctp 48 -------S 0 1.0 0.0 1 18 42 65535 65535
- 3.275104 1 0 sctp 48 -------S 0 1.0 0.0 1 18 42 65535 65535
r 3.299104 0 1 sctp 1500 -------D 0 0.0 1.0 1 19 34 0 18
r 3.299104 1 0 sctp 48 -------S 0 1.0 0.0 1 16 38 65535 65535
+ 3.299104 0 1 sctp 1500 -------D 0 0.0 1.0 1 26 43 0 25
- 3.299104 0 1 sctp 1500 -------D 0 0.0 1.0 1 26 43 0 25
+ 3.299104 0 1 sctp 1500 -------D 0 0.0 1.0 1 27 44 0 26
+ 3.299104 0 1 sctp 1500 -------D 0 0.0 1.0 1 28 45 0 27
r 3.323104 0 1 sctp 1500 -------D 0 0.0 1.0 1 20 35 0 19
+ 3.323104 1 0 sctp 48 -------S 0 1.0 0.0 1 20 46 65535 65535
- 3.323104 1 0 sctp 48 -------S 0 1.0 0.0 1 20 46 65535 65535
- 3.323104 0 1 sctp 1500 -------D 0 0.0 1.0 1 27 44 0 26
r 3.347104 0 1 sctp 1500 -------D 0 0.0 1.0 1 21 36 0 20
- 3.347104 0 1 sctp 1500 -------D 0 0.0 1.0 1 28 45 0 27
r 3.371104 0 1 sctp 1500 -------D 0 0.0 1.0 1 22 37 0 21
+ 3.371104 1 0 sctp 48 -------S 0 1.0 0.0 1 22 47 65535 65535
- 3.371104 1 0 sctp 48 -------S 0 1.0 0.0 1 22 47 65535 65535
r 3.395104 0 1 sctp 1500 -------D 0 0.0 1.0 1 23 39 0 22
r 3.419104 0 1 sctp 1500 -------D 0 0.0 1.0 1 24 40 0 23
+ 3.419104 1 0 sctp 48 -------S 0 1.0 0.0 1 24 48 65535 65535
- 3.419104 1 0 sctp 48 -------S 0 1.0 0.0 1 24 48 65535 65535
r 3.443104 0 1 sctp 1500 -------D 0 0.0 1.0 1 25 41 0 24
r 3.475872 1 0 sctp 48 -------S 0 1.0 0.0 1 18 42 65535 65535
d 3.475872 0 1 sctp 1500 -------D 0 0.0 1.0 1 29 49 0 28
+ 3.475872 0 1 sctp 1500 -------D 0 0.0 1.0 1 30 50 0 29
- 3.475872 0 1 sctp 1500 -------D 0 0.0 1.0 1 30 50 0 29
+ 3.475872 0 1 sctp 1500 -------D 0 0.0 1.0 1 31 51 0 30
- 3.499872 0 1 sctp 1500 -------D 0 0.0 1.0 1 31 51 0 30
r 3.523104 0 1 sctp 1500 -------D 0 0.0 1.0 1 26 43 0 25
+ 3.523104 1 0 sctp 48 -------S 0 1.0 0.0 1 26 52 65535 65535
- 3.523104 1 0 sctp 48 -------S 0 1.0 0.0 1 26 52 65535 65535
r 3.523872 1 0 sctp 48 -------S 0 1.0 0.0 1 20 46 65535 65535
+ 3.523872 0 1 sctp 1500 -------D 0 0.0 1.0 1 32 53 0 31
+ 3.523872 0 1 sctp 1500 -------D 0 0.0 1.0 1 33 54 0 32
+ 3.523872 0 1 sctp 1500 -------D 0 0.0 1.0 1 34 55 0 33
- 3.523872 0 1 sctp 1500 -------D 0 0.0 1.0 1 32 53 0 31
r 3.547104 0 1 sctp 1500 -------D 0 0.0 1.0 1 27 44 0 26
- 3.547872 0 1 sctp 1500 -------D 0 0.0 1.0 1 33 54 0 32
r 3.571104 0 1 sctp 1500 -------D 0 0.0 1.0 1 28 45 0 27
+ 3.571104 1 0 sctp 48 -------S 0 1.0 0.0 1 28 56 65535 65535
- 3.571104 1 0 sctp 48 -------S 0 1.0 0.0 1 28 56 65535 65535
r 3.571872 1 0 sctp 48 -------S 0 1.0 0.0 1 22 47 65535 65535
+ 3.571872 0 1 sctp 1500 -------D 0 0.0 1.0 1 35 57 0 34
+ 3.571872 0 1 sctp 1500 -------D 0 0.0 1.0 1 36 58 0 35
+ 3.571872 0 1 sctp 1500 -------D 0 0.0 1.0 1 37 59 0 36
- 3.571872 0 1 sctp 1500 -------D 0 0.0 1.0 1 34 55 0 33
- 3.595872 0 1 sctp 1500 -------D 0 0.0 1.0 1 35 57 0 34
r 3.619872 1 0 sctp 48 -------S 0 1.0 0.0 1 24 48 65535 65535
+ 3.619872 0 1 sctp 1500 -------D 0 0.0 1.0 1 38 60 0 37
+ 3.619872 0 1 sctp 1500 -------D 0 0.0 1.0 1 39 61 0 38
+ 3.619872 0 1 sctp 1500 -------D 0 0.0 1.0 1 40 62 0 39
- 3.619872 0 1 sctp 1500 -------D 0 0.0 1.0 1 36 58 0 35
- 3.643872 0 1 sctp 1500 -------D 0 0.0 1.0 1 37 59 0 36
- 3.667872 0 1 sctp 1500 -------D 0 0.0 1.0 1 38 60 0 37
- 3.691872 0 1 sctp 1500 -------D 0 0.0 1.0 1 39 61 0 38
r 3.699872 0 1 sctp 1500 -------D 0 0.0 1.0 1 30 50 0 29
+ 3.699872 1 0 sctp 52 -------S 0 1.0 0.0 1 28 63 65535 65535
- 3.699872 1 0 sctp 52 -------S 0 1.0 0.0 1 28 63 65535 65535
- 3.715872 0 1 sctp 1500 -------D 0 0.0 1.0 1 40 62 0 39
r 3.723872 0 1 sctp 1500 -------D 0 0.0 1.0 1 31 51 0 30
+ 3.723872 1 0 sctp 52 -------S 0 1.0 0.0 1 28 64 65535 65535
- 3.723872 1 0 sctp 52 -------S 0 1.0 0.0 1 28 64 65535 65535
r 3.723872 1 0 sctp 48 -------S 0 1.0 0.0 1 26 52 65535 65535
+ 3.723872 0 1 sctp 1500 -------D 0 0.0 1.0 1 41 65 0 40
+ 3.723872 0 1 sctp 1500 -------D 0 0.0 1.0 1 42 66 0 41
+ 3.723872 0 1 sctp 1500 -------D 0 0.0 1.0 1 43 67 0 42
- 3.739872 0 1 sctp 1500 -------D 0 0.0 1.0 1 41 65 0 40
r 3.747872 0 1 sctp 1500 -------D 0 0.0 1.0 1 32 53 0 31
+ 3.747872 1 0 sctp 52 -------S 0 1.0 0.0 1 28 68 65535 65535
- 3.747872 1 0 sctp 52 -------S 0 1.0 0.0 1 28 68 65535 65535
- 3.763872 0 1 sctp 1500 -------D 0 0.0 1.0 1 42 66 0 41
r 3.771872 0 1 sctp 1500 -------D 0 0.0 1.0 1 33 54 0 32
+ 3.771872 1 0 sctp 52 -------S 0 1.0 0.0 1 28 69 65535 65535
- 3.771872 1 0 sctp 52 -------S 0 1.0 0.0 1 28 69 65535 65535
r 3.771872 1 0 sctp 48 -------S 0 1.0 0.0 1 28 56 65535 65535
+ 3.771872 0 1 sctp 1500 -------D 0 0.0 1.0 1 44 70 0 43
+ 3.771872 0 1 sctp 1500 -------D 0 0.0 1.0 1 45 71 0 44
+ 3.771872 0 1 sctp 1500 -------D 0 0.0 1.0 1 46 72 0 45
- 3.787872 0 1 sctp 1500 -------D 0 0.0 1.0 1 43 67 0 42
r 3.795872 0 1 sctp 1500 -------D 0 0.0 1.0 1 34 55 0 33
+ 3.795872 1 0 sctp 52 -------S 0 1.0 0.0 1 28 73 65535 65535
- 3.795872 1 0 sctp 52 -------S 0 1.0 0.0 1 28 73 65535 65535
- 3.811872 0 1 sctp 1500 -------D 0 0.0 1.0 1 44 70 0 43
r 3.819872 0 1 sctp 1500 -------D 0 0.0 1.0 1 35 57 0 34
+ 3.819872 1 0 sctp 52 -------S 0 1.0 0.0 1 28 74 65535 65535
- 3.819872 1 0 sctp 52 -------S 0 1.0 0.0 1 28 74 65535 65535
- 3.835872 0 1 sctp 1500 -------D 0 0.0 1.0 1 45 71 0 44
r 3.843872 0 1 sctp 1500 -------D 0 0.0 1.0 1 36 58 0 35
+ 3.843872 1 0 sctp 52 -------S 0 1.0 0.0 1 28 75 65535 65535
- 3.843872 1 0 sctp 52 -------S 0 1.0 0.0 1 28 75 65535 65535
- 3.859872 0 1 sctp 1500 -------D 0 0.0 1.0 1 46 72 0 45
r 3.867872 0 1 sctp 1500 -------D 0 0.0 1.0 1 37 59 0 36
+ 3.867872 1 0 sctp 52 -------S 0 1.0 0.0 1 28 76 65535 65535
- 3.867872 1 0 sctp 52 -------S 0 1.0 0.0 1 28 76 65535 65535
r 3.891872 0 1 sctp 1500 -------D 0 0.0 1.0 1 38 60 0 37
+ 3.891872 1 0 sctp 52 -------S 0 1.0 0.0 1 28 77 65535 65535
- 3.891872 1 0 sctp 52 -------S 0 1.0 0.0 1 28 77 65535 65535
r 3.900704 1 0 sctp 52 -------S 0 1.0 0.0 1 28 63 65535 65535
+ 3.900704 0 1 sctp 1500 -------D 0 0.0 1.0 1 47 78 0 46
- 3.900704 0 1 sctp 1500 -------D 0 0.0 1.0 1 47 78 0 46
r 3.915872 0 1 sctp 1500 -------D 0 0.0 1.0 1 39 61 0 38
+ 3.915872 1 0 sctp 52 -------S 0 1.0 0.0 1 28 79 65535 65535
- 3.915872 1 0 sctp 52 -------S 0 1.0 0.0 1 28 79 65535 65535
r 3.924704 1 0 sctp 52 -------S 0 1.0 0.0 1 28 64 65535 65535
+ 3.924704 0 1 sctp 1500 -------D 0 0.0 1.0 1 48 80 0 47
- 3.924704 0 1 sctp 1500 -------D 0 0.0 1.0 1 48 80 0 47
r 3.939872 0 1 sctp 1500 -------D 0 0.0 1.0 1 40 62 0 39
+ 3.939872 1 0 sctp 52 -------S 0 1.0 0.0 1 28 81 65535 65535
- 3.939872 1 0 sctp 52 -------S 0 1.0 0.0 1 28 81 65535 65535
r 3.948704 1 0 sctp 52 -------S 0 1.0 0.0 1 28 68 65535 65535
+ 3.948704 0 1 sctp 40 -------R 0 0.0 1.0 1 32 82 65535 65535
- 3.948704 0 1 sctp 40 -------R 0 0.0 1.0 1 32 82 65535 65535
r 3.963872 0 1 sctp 1500 -------D 0 0.0 1.0 1 41 65 0 40
+ 3.963872 1 0 sctp 52 -------S 0 1.0 0.0 1 28 83 65535 65535
- 3.963872 1 0 sctp 52 -------S 0 1.0 0.0 1 28 83 65535 65535
r 3.972704 1 0 sctp 52 -------S 0 1.0 0.0 1 28 69 65535 65535
+ 3.972704 0 1 sctp 40 -------R 0 0.0 1.0 1 33 84 65535 65535
- 3.972704 0 1 sctp 40 -------R 0 0.0 1.0 1 33 84 65535 65535
r 3.987872 0 1 sctp 1500 -------D 0 0.0 1.0 1 42 66 0 41
+ 3.987872 1 0 sctp 52 -------S 0 1.0 0.0 1 28 85 65535 65535
- 3.987872 1 0 sctp 52 -------S 0 1.0 0.0 1 28 85 65535 65535
r 3.996704 1 0 sctp 52 -------S 0 1.0 0.0 1 28 73 65535 65535
+ 3.996704 0 1 sctp 40 -------R 0 0.0 1.0 1 34 86 65535 65535
- 3.996704 0 1 sctp 40 -------R 0 0.0 1.0 1 34 86 65535 65535
r 4.011872 0 1 sctp 1500 -------D 0 0.0 1.0 1 43 67 0 42
+ 4.011872 1 0 sctp 52 -------S 0 1.0 0.0 1 28 87 65535 65535
- 4.011872 1 0 sctp 52 -------S 0 1.0 0.0 1 28 87 65535 65535
r 4.020704 1 0 sctp 52 -------S 0 1.0 0.0 1 28 74 65535 65535
+ 4.020704 0 1 sctp 40 -------R 0 0.0 1.0 1 35 88 65535 65535
- 4.020704 0 1 sctp 40 -------R 0 0.0 1.0 1 35 88 65535 65535
r 4.035872 0 1 sctp 1500 -------D 0 0.0 1.0 1 44 70 0 43
+ 4.035872 1 0 sctp 52 -------S 0 1.0 0.0 1 28 89 65535 65535
- 4.035872 1 0 sctp 52 -------S 0 1.0 0.0 1 28 89 65535 65535
r 4.044704 1 0 sctp 52 -------S 0 1.0 0.0 1 28 75 65535 65535
+ 4.044704 0 1 sctp 40 -------R 0 0.0 1.0 1 36 90 65535 65535
- 4.044704 0 1 sctp 40 -------R 0 0.0 1.0 1 36 90 65535 65535
r 4.059872 0 1 sctp 1500 -------D 0 0.0 1.0 1 45 71 0 44
+ 4.059872 1 0 sctp 52 -------S 0 1.0 0.0 1 28 91 65535 65535
- 4.059872 1 0 sctp 52 -------S 0 1.0 0.0 1 28 91 65535 65535
r 4.068704 1 0 sctp 52 -------S 0 1.0 0.0 1 28 76 65535 65535
+ 4.068704 0 1 sctp 40 -------R 0 0.0 1.0 1 37 92 65535 65535
- 4.068704 0 1 sctp 40 -------R 0 0.0 1.0 1 37 92 65535 65535
r 4.083872 0 1 sctp 1500 -------D 0 0.0 1.0 1 46 72 0 45
+ 4.083872 1 0 sctp 52 -------S 0 1.0 0.0 1 28 93 65535 65535
- 4.083872 1 0 sctp 52 -------S 0 1.0 0.0 1 28 93 65535 65535
r 4.092704 1 0 sctp 52 -------S 0 1.0 0.0 1 28 77 65535 65535
+ 4.092704 0 1 sctp 40 -------R 0 0.0 1.0 1 38 94 65535 65535
- 4.092704 0 1 sctp 40 -------R 0 0.0 1.0 1 38 94 65535 65535
r 4.116704 1 0 sctp 52 -------S 0 1.0 0.0 1 28 79 65535 65535
+ 4.116704 0 1 sctp 40 -------R 0 0.0 1.0 1 39 95 65535 65535
- 4.116704 0 1 sctp 40 -------R 0 0.0 1.0 1 39 95 65535 65535
r 4.124704 0 1 sctp 1500 -------D 0 0.0 1.0 1 47 78 0 46
+ 4.124704 1 0 sctp 52 -------S 0 1.0 0.0 1 28 96 65535 65535
- 4.124704 1 0 sctp 52 -------S 0 1.0 0.0 1 28 96 65535 65535
r 4.140704 1 0 sctp 52 -------S 0 1.0 0.0 1 28 81 65535 65535
+ 4.140704 0 1 sctp 40 -------R 0 0.0 1.0 1 40 97 65535 65535
- 4.140704 0 1 sctp 40 -------R 0 0.0 1.0 1 40 97 65535 65535
+ 4.140704 0 1 sctp 1500 -------D 0 0.0 1.0 1 49 98 0 48
- 4.141344 0 1 sctp 1500 -------D 0 0.0 1.0 1 49 98 0 48
r 4.148704 0 1 sctp 1500 -------D 0 0.0 1.0 1 48 80 0 47
+ 4.148704 1 0 sctp 52 -------S 0 1.0 0.0 1 28 99 65535 65535
- 4.148704 1 0 sctp 52 -------S 0 1.0 0.0 1 28 99 65535 65535
r 4.149344 0 1 sctp 40 -------R 0 0.0 1.0 1 32 82 65535 65535
r 4.164704 1 0 sctp 52 -------S 0 1.0 0.0 1 28 83 65535 65535
+ 4.164704 0 1 sctp 40 -------R 0 0.0 1.0 1 41 100 65535 65535
+ 4.164704 0 1 sctp 1500 -------D 0 0.0 1.0 1 50 101 0 49
- 4.165344 0 1 sctp 40 -------R 0 0.0 1.0 1 41 100 65535 65535
- 4.165984 0 1 sctp 1500 -------D 0 0.0 1.0 1 50 101 0 49
r 4.173344 0 1 sctp 40 -------R 0 0.0 1.0 1 33 84 65535 65535
r 4.188704 1 0 sctp 52 -------S 0 1.0 0.0 1 28 85 65535 65535
+ 4.188704 0 1 sctp 40 -------R 0 0.0 1.0 1 42 102 65535 65535
+ 4.188704 0 1 sctp 1500 -------D 0 0.0 1.0 1 51 103 0 50
- 4.189984 0 1 sctp 40 -------R 0 0.0 1.0 1 42 102 65535 65535
- 4.190624 0 1 sctp 1500 -------D 0 0.0 1.0 1 51 103 0 50
r 4.197344 0 1 sctp 40 -------R 0 0.0 1.0 1 34 86 65535 65535
r 4.212704 1 0 sctp 52 -------S 0 1.0 0.0 1 28 87 65535 65535
+ 4.212704 0 1 sctp 40 -------R 0 0.0 1.0 1 43 104 65535 65535
+ 4.212704 0 1 sctp 1500 -------D 0 0.0 1.0 1 52 105 0 51
- 4.214624 0 1 sctp 40 -------R 0 0.0 1.0 1 43 104 65535 65535
- 4.215264 0 1 sctp 1500 -------D 0 0.0 1.0 1 52 105 0 51
r 4.221344 0 1 sctp 40 -------R 0 0.0 1.0 1 35 88 65535 65535
r 4.236704 1 0 sctp 52 -------S 0 1.0 0.0 1 28 89 65535 65535
+ 4.236704 0 1 sctp 40 -------R 0 0.0 1.0 1 44 106 65535 65535
+ 4.236704 0 1 sctp 1500 -------D 0 0.0 1.0 1 53 107 0 52
- 4.239264 0 1 sctp 40 -------R 0 0.0 1.0 1 44 106 65535 65535
- 4.239904 0 1 sctp 1500 -------D 0 0.0 1.0 1 53 107 0 52
r 4.245344 0 1 sctp 40 -------R 0 0.0 1.0 1 36 90 65535 65535
r 4.260704 1 0 sctp 52 -------S 0 1.0 0.0 1 28 91 65535 65535
+ 4.260704 0 1 sctp 40 -------R 0 0.0 1.0 1 45 108 65535 65535
+ 4.260704 0 1 sctp 1500 -------D 0 0.0 1.0 1 54 109 0 53
- 4.263904 0 1 sctp 40 -------R 0 0.0 1.0 1 45 108 65535 65535
- 4.264544 0 1 sctp 1500 -------D 0 0.0 1.0 1 54 109 0 53
r 4.269344 0 1 sctp 40 -------R 0 0.0 1.0 1 37 92 65535 65535
r 4.284704 1 0 sctp 52 -------S 0 1.0 0.0 1 28 93 65535 65535
+ 4.284704 0 1 sctp 40 -------R 0 0.0 1.0 1 46 110 65535 65535
+ 4.284704 0 1 sctp 1500 -------D 0 0.0 1.0 1 55 111 0 54
- 4.288544 0 1 sctp 40 -------R 0 0.0 1.0 1 46 110 65535 65535
- 4.289184 0 1 sctp 1500 -------D 0 0.0 1.0 1 55 111 0 54
r 4.293344 0 1 sctp 40 -------R 0 0.0 1.0 1 38 94 65535 65535
r 4.317344 0 1 sctp 40 -------R 0 0.0 1.0 1 39 95 65535 65535
r 4.325536 1 0 sctp 52 -------S 0 1.0 0.0 1 28 96 65535 65535
+ 4.325536 0 1 sctp 40 -------R 0 0.0 1.0 1 47 112 65535 65535
- 4.325536 0 1 sctp 40 -------R 0 0.0 1.0 1 47 112 65535 65535
+ 4.325536 0 1 sctp 1500 -------D 0 0.0 1.0 1 56 113 0 55
- 4.326176 0 1 sctp 1500 -------D 0 0.0 1.0 1 56 113 0 55
r 4.341344 0 1 sctp 40 -------R 0 0.0 1.0 1 40 97 65535 65535
r 4.349536 1 0 sctp 52 -------S 0 1.0 0.0 1 28 99 65535 65535
+ 4.349536 0 1 sctp 40 -------R 0 0.0 1.0 1 48 114 65535 65535
+ 4.349536 0 1 sctp 1500 -------D 0 0.0 1.0 1 57 115 0 56
- 4.350176 0 1 sctp 40 -------R 0 0.0 1.0 1 48 114 65535 65535
- 4.350816 0 1 sctp 1500 -------D 0 0.0 1.0 1 57 115 0 56
r 4.365344 0 1 sctp 1500 -------D 0 0.0 1.0 1 49 98 0 48
r 4.365984 0 1 sctp 40 -------R 0 0.0 1.0 1 41 100 65535 65535
r 4.389984 0 1 sctp 1500 -------D 0 0.0 1.0 1 50 101 0 49
+ 4.389984 1 0 sctp 48 -------S 0 1.0 0.0 1 50 116 65535 65535
- 4.389984 1 0 sctp 48 -------S 0 1.0 0.0 1 50 116 65535 65535
r 4.390624 0 1 sctp 40 -------R 0 0.0 1.0 1 42 102 65535 65535
r 4.414624 0 1 sctp 1500 -------D 0 0.0 1.0 1 51 103 0 50
r 4.415264 0 1 sctp 40 -------R 0 0.0 1.0 1 43 104 65535 65535
r 4.439264 0 1 sctp 1500 -------D 0 0.0 1.0 1 52 105 0 51
+ 4.439264 1 0 sctp 48 -------S 0 1.0 0.0 1 52 117 65535 65535
- 4.439264 1 0 sctp 48 -------S 0 1.0 0.0 1 52 117 65535 65535
r 4.439904 0 1 sctp 40 -------R 0 0.0 1.0 1 44 106 65535 65535
r 4.463904 0 1 sctp 1500 -------D 0 0.0 1.0 1 53 107 0 52
r 4.464544 0 1 sctp 40 -------R 0 0.0 1.0 1 45 108 65535 65535
r 4.488544 0 1 sctp 1500 -------D 0 0.0 1.0 1 54 109 0 53
+ 4.488544 1 0 sctp 48 -------S 0 1.0 0.0 1 54 118 65535 65535
- 4.488544 1 0 sctp 48 -------S 0 1.0 0.0 1 54 118 65535 65535
r 4.489184 0 1 sctp 40 -------R 0 0.0 1.0 1 46 110 65535 65535
r 4.513184 0 1 sctp 1500 -------D 0 0.0 1.0 1 55 111 0 54
r 4.526176 0 1 sctp 40 -------R 0 0.0 1.0 1 47 112 65535 65535
r 4.550176 0 1 sctp 1500 -------D 0 0.0 1.0 1 56 113 0 55
+ 4.550176 1 0 sctp 48 -------S 0 1.0 0.0 1 56 119 65535 65535
- 4.550176 1 0 sctp 48 -------S 0 1.0 0.0 1 56 119 65535 65535
r 4.550816 0 1 sctp 40 -------R 0 0.0 1.0 1 48 114 65535 65535
r 4.574816 0 1 sctp 1500 -------D 0 0.0 1.0 1 57 115 0 56
r 4.590752 1 0 sctp 48 -------S 0 1.0 0.0 1 50 116 65535 65535
+ 4.590752 0 1 sctp 1500 -------D 0 0.0 1.0 1 58 120 0 57
- 4.590752 0 1 sctp 1500 -------D 0 0.0 1.0 1 58 120 0 57
+ 4.590752 0 1 sctp 1500 -------D 0 0.0 1.0 1 59 121 0 58
+ 4.590752 0 1 sctp 1500 -------D 0 0.0 1.0 1 60 122 0 59
- 4.614752 0 1 sctp 1500 -------D 0 0.0 1.0 1 59 121 0 58
- 4.638752 0 1 sctp 1500 -------D 0 0.0 1.0 1 60 122 0 59
r 4.640032 1 0 sctp 48 -------S 0 1.0 0.0 1 52 117 65535 65535
+ 4.640032 0 1 sctp 1500 -------D 0 0.0 1.0 1 61 123 0 60
+ 4.640032 0 1 sctp 1500 -------D 0 0.0 1.0 1 62 124 0 61
- 4.662752 0 1 sctp 1500 -------D 0 0.0 1.0 1 61 123 0 60
- 4.686752 0 1 sctp 1500 -------D 0 0.0 1.0 1 62 124 0 61
r 4.689312 1 0 sctp 48 -------S 0 1.0 0.0 1 54 118 65535 65535
+ 4.689312 0 1 sctp 1500 -------D 0 0.0 1.0 1 63 125 0 62
+ 4.689312 0 1 sctp 1500 -------D 0 0.0 1.0 1 64 126 0 63
- 4.710752 0 1 sctp 1500 -------D 0 0.0 1.0 1 63 125 0 62
- 4.734752 0 1 sctp 1500 -------D 0 0.0 1.0 1 64 126 0 63
r 4.750944 1 0 sctp 48 -------S 0 1.0 0.0 1 56 119 65535 65535
+ 4.750944 0 1 sctp 1500 -------D 0 0.0 1.0 1 65 127 0 64
+ 4.750944 0 1 sctp 1500 -------D 0 0.0 1.0 1 66 128 0 65
- 4.758752 0 1 sctp 1500 -------D 0 0.0 1.0 1 65 127 0 64
+ 4.774816 1 0 sctp 48 -------S 0 1.0 0.0 1 57 129 65535 65535
- 4.774816 1 0 sctp 48 -------S 0 1.0 0.0 1 57 129 65535 65535
- 4.782752 0 1 sctp 1500 -------D 0 0.0 1.0 1 66 128 0 65
r 4.814752 0 1 sctp 1500 -------D 0 0.0 1.0 1 58 120 0 57
r 4.838752 0 1 sctp 1500 -------D 0 0.0 1.0 1 59 121 0 58
+ 4.838752 1 0 sctp 48 -------S 0 1.0 0.0 1 59 130 65535 65535
- 4.838752 1 0 sctp 48 -------S 0 1.0 0.0 1 59 130 65535 65535
r 4.862752 0 1 sctp 1500 -------D 0 0.0 1.0 1 60 122 0 59
r 4.886752 0 1 sctp 1500 -------D 0 0.0 1.0 1 61 123 0 60
+ 4.886752 1 0 sctp 48 -------S 0 1.0 0.0 1 61 131 65535 65535
- 4.886752 1 0 sctp 48 -------S 0 1.0 0.0 1 61 131 65535 65535
r 4.910752 0 1 sctp 1500 -------D 0 0.0 1.0 1 62 124 0 61
r 4.934752 0 1 sctp 1500 -------D 0 0.0 1.0 1 63 125 0 62
+ 4.934752 1 0 sctp 48 -------S 0 1.0 0.0 1 63 132 65535 65535
- 4.934752 1 0 sctp 48 -------S 0 1.0 0.0 1 63 132 65535 65535
r 4.958752 0 1 sctp 1500 -------D 0 0.0 1.0 1 64 126 0 63
r 4.975584 1 0 sctp 48 -------S 0 1.0 0.0 1 57 129 65535 65535
+ 4.975584 0 1 sctp 1500 -------D 0 0.0 1.0 1 67 133 0 66
- 4.975584 0 1 sctp 1500 -------D 0 0.0 1.0 1 67 133 0 66
r 4.982752 0 1 sctp 1500 -------D 0 0.0 1.0 1 65 127 0 64
+ 4.982752 1 0 sctp 48 -------S 0 1.0 0.0 1 65 134 65535 65535
- 4.982752 1 0 sctp 48 -------S 0 1.0 0.0 1 65 134 65535 65535
r 5.006752 0 1 sctp 1500 -------D 0 0.0 1.0 1 66 128 0 65
r 5.03952 1 0 sctp 48 -------S 0 1.0 0.0 1 59 130 65535 65535
+ 5.03952 0 1 sctp 1500 -------D 0 0.0 1.0 1 68 135 0 67
- 5.03952 0 1 sctp 1500 -------D 0 0.0 1.0 1 68 135 0 67
+ 5.03952 0 1 sctp 1500 -------D 0 0.0 1.0 1 69 136 0 68
- 5.06352 0 1 sctp 1500 -------D 0 0.0 1.0 1 69 136 0 68
r 5.08752 1 0 sctp 48 -------S 0 1.0 0.0 1 61 131 65535 65535
+ 5.08752 0 1 sctp 1500 -------D 0 0.0 1.0 1 70 137 0 69
+ 5.08752 0 1 sctp 1500 -------D 0 0.0 1.0 1 71 138 0 70
+ 5.08752 0 1 sctp 1500 -------D 0 0.0 1.0 1 72 139 0 71
- 5.08752 0 1 sctp 1500 -------D 0 0.0 1.0 1 70 137 0 69
- 5.11152 0 1 sctp 1500 -------D 0 0.0 1.0 1 71 138 0 70
r 5.13552 1 0 sctp 48 -------S 0 1.0 0.0 1 63 132 65535 65535
+ 5.13552 0 1 sctp 1500 -------D 0 0.0 1.0 1 73 140 0 72
+ 5.13552 0 1 sctp 1500 -------D 0 0.0 1.0 1 74 141 0 73
- 5.13552 0 1 sctp 1500 -------D 0 0.0 1.0 1 72 139 0 71
- 5.15952 0 1 sctp 1500 -------D 0 0.0 1.0 1 73 140 0 72
r 5.18352 1 0 sctp 48 -------S 0 1.0 0.0 1 65 134 65535 65535
+ 5.18352 0 1 sctp 1500 -------D 0 0.0 1.0 1 75 142 0 74
+ 5.18352 0 1 sctp 1500 -------D 0 0.0 1.0 1 76 143 0 75
- 5.18352 0 1 sctp 1500 -------D 0 0.0 1.0 1 74 141 0 73
r 5.199584 0 1 sctp 1500 -------D 0 0.0 1.0 1 67 133 0 66
+ 5.199584 1 0 sctp 48 -------S 0 1.0 0.0 1 67 144 65535 65535
- 5.199584 1 0 sctp 48 -------S 0 1.0 0.0 1 67 144 65535 65535
- 5.20752 0 1 sctp 1500 -------D 0 0.0 1.0 1 75 142 0 74
- 5.23152 0 1 sctp 1500 -------D 0 0.0 1.0 1 76 143 0 75
r 5.26352 0 1 sctp 1500 -------D 0 0.0 1.0 1 68 135 0 67
r 5.28752 0 1 sctp 1500 -------D 0 0.0 1.0 1 69 136 0 68
+ 5.28752 1 0 sctp 48 -------S 0 1.0 0.0 1 69 145 65535 65535
- 5.28752 1 0 sctp 48 -------S 0 1.0 0.0 1 69 145 65535 65535
r 5.31152 0 1 sctp 1500 -------D 0 0.0 1.0 1 70 137 0 69
r 5.33552 0 1 sctp 1500 -------D 0 0.0 1.0 1 71 138 0 70
+ 5.33552 1 0 sctp 48 -------S 0 1.0 0.0 1 71 146 65535 65535
- 5.33552 1 0 sctp 48 -------S 0 1.0 0.0 1 71 146 65535 65535
r 5.35952 0 1 sctp 1500 -------D 0 0.0 1.0 1 72 139 0 71
r 5.38352 0 1 sctp 1500 -------D 0 0.0 1.0 1 73 140 0 72
+ 5.38352 1 0 sctp 48 -------S 0 1.0 0.0 1 73 147 65535 65535
- 5.38352 1 0 sctp 48 -------S 0 1.0 0.0 1 73 147 65535 65535
r 5.400352 1 0 sctp 48 -------S 0 1.0 0.0 1 67 144 65535 65535
+ 5.400352 0 1 sctp 1500 -------D 0 0.0 1.0 1 77 148 0 76
- 5.400352 0 1 sctp 1500 -------D 0 0.0 1.0 1 77 148 0 76
+ 5.400352 0 1 sctp 1500 -------D 0 0.0 1.0 1 78 149 0 77
r 5.40752 0 1 sctp 1500 -------D 0 0.0 1.0 1 74 141 0 73
- 5.424352 0 1 sctp 1500 -------D 0 0.0 1.0 1 78 149 0 77
r 5.43152 0 1 sctp 1500 -------D 0 0.0 1.0 1 75 142 0 74
+ 5.43152 1 0 sctp 48 -------S 0 1.0 0.0 1 75 150 65535 65535
- 5.43152 1 0 sctp 48 -------S 0 1.0 0.0 1 75 150 65535 65535
r 5.45552 0 1 sctp 1500 -------D 0 0.0 1.0 1 76 143 0 75
r 5.488288 1 0 sctp 48 -------S 0 1.0 0.0 1 69 145 65535 65535
+ 5.488288 0 1 sctp 1500 -------D 0 0.0 1.0 1 79 151 0 78
- 5.488288 0 1 sctp 1500 -------D 0 0.0 1.0 1 79 151 0 78
+ 5.488288 0 1 sctp 1500 -------D 0 0.0 1.0 1 80 152 0 79
- 5.512288 0 1 sctp 1500 -------D 0 0.0 1.0 1 80 152 0 79
r 5.536288 1 0 sctp 48 -------S 0 1.0 0.0 1 71 146 65535 65535
+ 5.536288 0 1 sctp 1500 -------D 0 0.0 1.0 1 81 153 0 80
+ 5.536288 0 1 sctp 1500 -------D 0 0.0 1.0 1 82 154 0 81
+ 5.536288 0 1 sctp 1500 -------D 0 0.0 1.0 1 83 155 0 82
- 5.536288 0 1 sctp 1500 -------D 0 0.0 1.0 1 81 153 0 80
- 5.560288 0 1 sctp 1500 -------D 0 0.0 1.0 1 82 154 0 81
r 5.584288 1 0 sctp 48 -------S 0 1.0 0.0 1 73 147 65535 65535
+ 5.584288 0 1 sctp 1500 -------D 0 0.0 1.0 1 84 156 0 83
+ 5.584288 0 1 sctp 1500 -------D 0 0.0 1.0 1 85 157 0 84
- 5.584288 0 1 sctp 1500 -------D 0 0.0 1.0 1 83 155 0 82
- 5.608288 0 1 sctp 1500 -------D 0 0.0 1.0 1 84 156 0 83
r 5.624352 0 1 sctp 1500 -------D 0 0.0 1.0 1 77 148 0 76
+ 5.624352 1 0 sctp 48 -------S 0 1.0 0.0 1 77 158 65535 65535
- 5.624352 1 0 sctp 48 -------S 0 1.0 0.0 1 77 158 65535 65535
r 5.632288 1 0 sctp 48 -------S 0 1.0 0.0 1 75 150 65535 65535
+ 5.632288 0 1 sctp 1500 -------D 0 0.0 1.0 1 86 159 0 85
+ 5.632288 0 1 sctp 1500 -------D 0 0.0 1.0 1 87 160 0 86
- 5.632288 0 1 sctp 1500 -------D 0 0.0 1.0 1 85 157 0 84
r 5.648352 0 1 sctp 1500 -------D 0 0.0 1.0 1 78 149 0 77
- 5.656288 0 1 sctp 1500 -------D 0 0.0 1.0 1 86 159 0 85
- 5.680288 0 1 sctp 1500 -------D 0 0.0 1.0 1 87 160 0 86
r 5.712288 0 1 sctp 1500 -------D 0 0.0 1.0 1 79 151 0 78
+ 5.712288 1 0 sctp 48 -------S 0 1.0 0.0 1 79 161 65535 65535
- 5.712288 1 0 sctp 48 -------S 0 1.0 0.0 1 79 161 65535 65535
r 5.736288 0 1 sctp 1500 -------D 0 0.0 1.0 1 80 152 0 79
r 5.760288 0 1 sctp 1500 -------D 0 0.0 1.0 1 81 153 0 80
+ 5.760288 1 0 sctp 48 -------S 0 1.0 0.0 1 81 162 65535 65535
- 5.760288 1 0 sctp 48 -------S 0 1.0 0.0 1 81 162 65535 65535
r 5.784288 0 1 sctp 1500 -------D 0 0.0 1.0 1 82 154 0 81
r 5.808288 0 1 sctp 1500 -------D 0 0.0 1.0 1 83 155 0 82
+ 5.808288 1 0 sctp 48 -------S 0 1.0 0.0 1 83 163 65535 65535
- 5.808288 1 0 sctp 48 -------S 0 1.0 0.0 1 83 163 65535 65535
r 5.82512 1 0 sctp 48 -------S 0 1.0 0.0 1 77 158 65535 65535
+ 5.82512 0 1 sctp 1500 -------D 0 0.0 1.0 1 88 164 0 87
- 5.82512 0 1 sctp 1500 -------D 0 0.0 1.0 1 88 164 0 87
+ 5.82512 0 1 sctp 1500 -------D 0 0.0 1.0 1 89 165 0 88
r 5.832288 0 1 sctp 1500 -------D 0 0.0 1.0 1 84 156 0 83
- 5.84912 0 1 sctp 1500 -------D 0 0.0 1.0 1 89 165 0 88
r 5.856288 0 1 sctp 1500 -------D 0 0.0 1.0 1 85 157 0 84
+ 5.856288 1 0 sctp 48 -------S 0 1.0 0.0 1 85 166 65535 65535
- 5.856288 1 0 sctp 48 -------S 0 1.0 0.0 1 85 166 65535 65535
r 5.880288 0 1 sctp 1500 -------D 0 0.0 1.0 1 86 159 0 85
r 5.904288 0 1 sctp 1500 -------D 0 0.0 1.0 1 87 160 0 86
+ 5.904288 1 0 sctp 48 -------S 0 1.0 0.0 1 87 167 65535 65535
- 5.904288 1 0 sctp 48 -------S 0 1.0 0.0 1 87 167 65535 65535
r 5.913056 1 0 sctp 48 -------S 0 1.0 0.0 1 79 161 65535 65535
+ 5.913056 0 1 sctp 1500 -------D 0 0.0 1.0 1 90 168 0 89
- 5.913056 0 1 sctp 1500 -------D 0 0.0 1.0 1 90 168 0 89
+ 5.913056 0 1 sctp 1500 -------D 0 0.0 1.0 1 91 169 0 90
- 5.937056 0 1 sctp 1500 -------D 0 0.0 1.0 1 91 169 0 90
r 5.961056 1 0 sctp 48 -------S 0 1.0 0.0 1 81 162 65535 65535
+ 5.961056 0 1 sctp 1500 -------D 0 0.0 1.0 1 92 170 0 91
+ 5.961056 0 1 sctp 1500 -------D 0 0.0 1.0 1 93 171 0 92
- 5.961056 0 1 sctp 1500 -------D 0 0.0 1.0 1 92 170 0 91
- 5.985056 0 1 sctp 1500 -------D 0 0.0 1.0 1 93 171 0 92
