+ 0.5 1 4 sctp 56 -------I 0 1.0 3.0 1 -1 3 65535 65535
- 0.5 1 4 sctp 56 -------I 0 1.0 3.0 1 -1 3 65535 65535
r 0.700896 1 4 sctp 56 -------I 0 1.0 3.0 1 -1 3 65535 65535
+ 0.700896 4 3 sctp 56 -------I 0 1.0 3.0 1 -1 3 65535 65535
- 0.700896 4 3 sctp 56 -------I 0 1.0 3.0 1 -1 3 65535 65535
r 0.901792 4 3 sctp 56 -------I 0 1.0 3.0 1 -1 3 65535 65535
+ 0.901792 3 4 sctp 56 -------I 0 3.0 1.0 1 -1 4 65535 65535
- 0.901792 3 4 sctp 56 -------I 0 3.0 1.0 1 -1 4 65535 65535
r 1.102688 3 4 sctp 56 -------I 0 3.0 1.0 1 -1 4 65535 65535
+ 1.102688 4 1 sctp 56 -------I 0 3.0 1.0 1 -1 4 65535 65535
- 1.102688 4 1 sctp 56 -------I 0 3.0 1.0 1 -1 4 65535 65535
r 1.303584 4 1 sctp 56 -------I 0 3.0 1.0 1 -1 4 65535 65535
+ 1.303584 1 4 sctp 36 -------I 0 1.0 3.0 1 -1 5 65535 65535
- 1.303584 1 4 sctp 36 -------I 0 1.0 3.0 1 -1 5 65535 65535
r 1.50416 1 4 sctp 36 -------I 0 1.0 3.0 1 -1 5 65535 65535
+ 1.50416 4 3 sctp 36 -------I 0 1.0 3.0 1 -1 5 65535 65535
- 1.50416 4 3 sctp 36 -------I 0 1.0 3.0 1 -1 5 65535 65535
r 1.704736 4 3 sctp 36 -------I 0 1.0 3.0 1 -1 5 65535 65535
+ 1.704736 3 4 sctp 36 -------I 0 3.0 1.0 1 -1 6 65535 65535
- 1.704736 3 4 sctp 36 -------I 0 3.0 1.0 1 -1 6 65535 65535
r 1.905312 3 4 sctp 36 -------I 0 3.0 1.0 1 -1 6 65535 65535
+ 1.905312 4 1 sctp 36 -------I 0 3.0 1.0 1 -1 6 65535 65535
- 1.905312 4 1 sctp 36 -------I 0 3.0 1.0 1 -1 6 65535 65535
r 2.105888 4 1 sctp 36 -------I 0 3.0 1.0 1 -1 6 65535 65535
+ 2.105888 1 4 sctp 56 -------H 0 1.0 3.0 1 -1 7 65535 65535
- 2.105888 1 4 sctp 56 -------H 0 1.0 3.0 1 -1 7 65535 65535
r 2.306784 1 4 sctp 56 -------H 0 1.0 3.0 1 -1 7 65535 65535
+ 2.306784 4 3 sctp 56 -------H 0 1.0 3.0 1 -1 7 65535 65535
- 2.306784 4 3 sctp 56 -------H 0 1.0 3.0 1 -1 7 65535 65535
r 2.50768 4 3 sctp 56 -------H 0 1.0 3.0 1 -1 7 65535 65535
+ 2.50768 3 4 sctp 56 -------B 0 3.0 1.0 1 -1 8 65535 65535
- 2.50768 3 4 sctp 56 -------B 0 3.0 1.0 1 -1 8 65535 65535
r 2.708576 3 4 sctp 56 -------B 0 3.0 1.0 1 -1 8 65535 65535
+ 2.708576 4 1 sctp 56 -------B 0 3.0 1.0 1 -1 8 65535 65535
- 2.708576 4 1 sctp 56 -------B 0 3.0 1.0 1 -1 8 65535 65535
r 2.909472 4 1 sctp 56 -------B 0 3.0 1.0 1 -1 8 65535 65535
+ 2.909472 1 4 sctp 1500 -------D 0 1.0 3.0 1 1 9 0 0
- 2.909472 1 4 sctp 1500 -------D 0 1.0 3.0 1 1 9 0 0
+ 2.909472 1 4 sctp 1500 -------D 0 1.0 3.0 1 2 10 0 1
+ 2.909472 1 4 sctp 1500 -------D 0 1.0 3.0 1 3 11 0 2
- 2.933472 1 4 sctp 1500 -------D 0 1.0 3.0 1 2 10 0 1
- 2.957472 1 4 sctp 1500 -------D 0 1.0 3.0 1 3 11 0 2
r 3.133472 1 4 sctp 1500 -------D 0 1.0 3.0 1 1 9 0 0
+ 3.133472 4 3 sctp 1500 -------D 0 1.0 3.0 1 1 9 0 0
- 3.133472 4 3 sctp 1500 -------D 0 1.0 3.0 1 1 9 0 0
r 3.157472 1 4 sctp 1500 -------D 0 1.0 3.0 1 2 10 0 1
+ 3.157472 4 3 sctp 1500 -------D 0 1.0 3.0 1 2 10 0 1
- 3.157472 4 3 sctp 1500 -------D 0 1.0 3.0 1 2 10 0 1
r 3.181472 1 4 sctp 1500 -------D 0 1.0 3.0 1 3 11 0 2
+ 3.181472 4 3 sctp 1500 -------D 0 1.0 3.0 1 3 11 0 2
- 3.181472 4 3 sctp 1500 -------D 0 1.0 3.0 1 3 11 0 2
r 3.357472 4 3 sctp 1500 -------D 0 1.0 3.0 1 1 9 0 0
+ 3.357472 3 4 sctp 48 -------S 0 3.0 1.0 1 1 12 65535 65535
- 3.357472 3 4 sctp 48 -------S 0 3.0 1.0 1 1 12 65535 65535
r 3.381472 4 3 sctp 1500 -------D 0 1.0 3.0 1 2 10 0 1
r 3.405472 4 3 sctp 1500 -------D 0 1.0 3.0 1 3 11 0 2
+ 3.405472 3 4 sctp 48 -------S 0 3.0 1.0 1 3 13 65535 65535
- 3.405472 3 4 sctp 48 -------S 0 3.0 1.0 1 3 13 65535 65535
r 3.55824 3 4 sctp 48 -------S 0 3.0 1.0 1 1 12 65535 65535
+ 3.55824 4 1 sctp 48 -------S 0 3.0 1.0 1 1 12 65535 65535
- 3.55824 4 1 sctp 48 -------S 0 3.0 1.0 1 1 12 65535 65535
r 3.60624 3 4 sctp 48 -------S 0 3.0 1.0 1 3 13 65535 65535
+ 3.60624 4 1 sctp 48 -------S 0 3.0 1.0 1 3 13 65535 65535
- 3.60624 4 1 sctp 48 -------S 0 3.0 1.0 1 3 13 65535 65535
r 3.759008 4 1 sctp 48 -------S 0 3.0 1.0 1 1 12 65535 65535
+ 3.759008 1 4 sctp 1500 -------D 0 1.0 3.0 1 4 14 0 3
- 3.759008 1 4 sctp 1500 -------D 0 1.0 3.0 1 4 14 0 3
+ 3.759008 1 4 sctp 1500 -------D 0 1.0 3.0 1 5 15 0 4
- 3.783008 1 4 sctp 1500 -------D 0 1.0 3.0 1 5 15 0 4
r 3.807008 4 1 sctp 48 -------S 0 3.0 1.0 1 3 13 65535 65535
+ 3.807008 1 4 sctp 1500 -------D 0 1.0 3.0 1 6 16 0 5
+ 3.807008 1 4 sctp 1500 -------D 0 1.0 3.0 1 7 17 0 6
+ 3.807008 1 4 sctp 1500 -------D 0 1.0 3.0 1 8 18 0 7
- 3.807008 1 4 sctp 1500 -------D 0 1.0 3.0 1 6 16 0 5
- 3.831008 1 4 sctp 1500 -------D 0 1.0 3.0 1 7 17 0 6
- 3.855008 1 4 sctp 1500 -------D 0 1.0 3.0 1 8 18 0 7
r 3.983008 1 4 sctp 1500 -------D 0 1.0 3.0 1 4 14 0 3
+ 3.983008 4 3 sctp 1500 -------D 0 1.0 3.0 1 4 14 0 3
- 3.983008 4 3 sctp 1500 -------D 0 1.0 3.0 1 4 14 0 3
r 4.007008 1 4 sctp 1500 -------D 0 1.0 3.0 1 5 15 0 4
+ 4.007008 4 3 sctp 1500 -------D 0 1.0 3.0 1 5 15 0 4
- 4.007008 4 3 sctp 1500 -------D 0 1.0 3.0 1 5 15 0 4
r 4.031008 1 4 sctp 1500 -------D 0 1.0 3.0 1 6 16 0 5
+ 4.031008 4 3 sctp 1500 -------D 0 1.0 3.0 1 6 16 0 5
- 4.031008 4 3 sctp 1500 -------D 0 1.0 3.0 1 6 16 0 5
r 4.055008 1 4 sctp 1500 -------D 0 1.0 3.0 1 7 17 0 6
+ 4.055008 4 3 sctp 1500 -------D 0 1.0 3.0 1 7 17 0 6
- 4.055008 4 3 sctp 1500 -------D 0 1.0 3.0 1 7 17 0 6
r 4.079008 1 4 sctp 1500 -------D 0 1.0 3.0 1 8 18 0 7
+ 4.079008 4 3 sctp 1500 -------D 0 1.0 3.0 1 8 18 0 7
- 4.079008 4 3 sctp 1500 -------D 0 1.0 3.0 1 8 18 0 7
r 4.207008 4 3 sctp 1500 -------D 0 1.0 3.0 1 4 14 0 3
r 4.231008 4 3 sctp 1500 -------D 0 1.0 3.0 1 5 15 0 4
+ 4.231008 3 4 sctp 48 -------S 0 3.0 1.0 1 5 19 65535 65535
- 4.231008 3 4 sctp 48 -------S 0 3.0 1.0 1 5 19 65535 65535
r 4.255008 4 3 sctp 1500 -------D 0 1.0 3.0 1 6 16 0 5
r 4.279008 4 3 sctp 1500 -------D 0 1.0 3.0 1 7 17 0 6
+ 4.279008 3 4 sctp 48 -------S 0 3.0 1.0 1 7 20 65535 65535
- 4.279008 3 4 sctp 48 -------S 0 3.0 1.0 1 7 20 65535 65535
r 4.303008 4 3 sctp 1500 -------D 0 1.0 3.0 1 8 18 0 7
r 4.431776 3 4 sctp 48 -------S 0 3.0 1.0 1 5 19 65535 65535
+ 4.431776 4 1 sctp 48 -------S 0 3.0 1.0 1 5 19 65535 65535
- 4.431776 4 1 sctp 48 -------S 0 3.0 1.0 1 5 19 65535 65535
r 4.479776 3 4 sctp 48 -------S 0 3.0 1.0 1 7 20 65535 65535
+ 4.479776 4 1 sctp 48 -------S 0 3.0 1.0 1 7 20 65535 65535
- 4.479776 4 1 sctp 48 -------S 0 3.0 1.0 1 7 20 65535 65535
+ 4.503008 3 4 sctp 48 -------S 0 3.0 1.0 1 8 21 65535 65535
- 4.503008 3 4 sctp 48 -------S 0 3.0 1.0 1 8 21 65535 65535
r 4.632544 4 1 sctp 48 -------S 0 3.0 1.0 1 5 19 65535 65535
+ 4.632544 1 4 sctp 1500 -------D 0 1.0 3.0 1 9 22 0 8
- 4.632544 1 4 sctp 1500 -------D 0 1.0 3.0 1 9 22 0 8
+ 4.632544 1 4 sctp 1500 -------D 0 1.0 3.0 1 10 23 0 9
+ 4.632544 1 4 sctp 1500 -------D 0 1.0 3.0 1 11 24 0 10
- 4.656544 1 4 sctp 1500 -------D 0 1.0 3.0 1 10 23 0 9
r 4.680544 4 1 sctp 48 -------S 0 3.0 1.0 1 7 20 65535 65535
+ 4.680544 1 4 sctp 1500 -------D 0 1.0 3.0 1 12 25 0 11
+ 4.680544 1 4 sctp 1500 -------D 0 1.0 3.0 1 13 26 0 12
+ 4.680544 1 4 sctp 1500 -------D 0 1.0 3.0 1 14 27 0 13
- 4.680544 1 4 sctp 1500 -------D 0 1.0 3.0 1 11 24 0 10
r 4.703776 3 4 sctp 48 -------S 0 3.0 1.0 1 8 21 65535 65535
+ 4.703776 4 1 sctp 48 -------S 0 3.0 1.0 1 8 21 65535 65535
- 4.703776 4 1 sctp 48 -------S 0 3.0 1.0 1 8 21 65535 65535
- 4.704544 1 4 sctp 1500 -------D 0 1.0 3.0 1 12 25 0 11
- 4.728544 1 4 sctp 1500 -------D 0 1.0 3.0 1 13 26 0 12
- 4.752544 1 4 sctp 1500 -------D 0 1.0 3.0 1 14 27 0 13
r 4.856544 1 4 sctp 1500 -------D 0 1.0 3.0 1 9 22 0 8
+ 4.856544 4 3 sctp 1500 -------D 0 1.0 3.0 1 9 22 0 8
- 4.856544 4 3 sctp 1500 -------D 0 1.0 3.0 1 9 22 0 8
r 4.880544 1 4 sctp 1500 -------D 0 1.0 3.0 1 10 23 0 9
+ 4.880544 4 3 sctp 1500 -------D 0 1.0 3.0 1 10 23 0 9
- 4.880544 4 3 sctp 1500 -------D 0 1.0 3.0 1 10 23 0 9
r 4.904544 1 4 sctp 1500 -------D 0 1.0 3.0 1 11 24 0 10
+ 4.904544 4 3 sctp 1500 -------D 0 1.0 3.0 1 11 24 0 10
r 4.904544 4 1 sctp 48 -------S 0 3.0 1.0 1 8 21 65535 65535
+ 4.904544 1 4 sctp 1500 -------D 0 1.0 3.0 1 15 28 0 14
- 4.904544 1 4 sctp 1500 -------D 0 1.0 3.0 1 15 28 0 14
+ 4.904544 1 4 sctp 1500 -------D 0 1.0 3.0 1 16 29 0 15
- 4.904544 4 3 sctp 1500 -------D 0 1.0 3.0 1 11 24 0 10
r 4.928544 1 4 sctp 1500 -------D 0 1.0 3.0 1 12 25 0 11
+ 4.928544 4 3 sctp 1500 -------D 0 1.0 3.0 1 12 25 0 11
- 4.928544 1 4 sctp 1500 -------D 0 1.0 3.0 1 16 29 0 15
- 4.928544 4 3 sctp 1500 -------D 0 1.0 3.0 1 12 25 0 11
r 4.952544 1 4 sctp 1500 -------D 0 1.0 3.0 1 13 26 0 12
+ 4.952544 4 3 sctp 1500 -------D 0 1.0 3.0 1 13 26 0 12
- 4.952544 4 3 sctp 1500 -------D 0 1.0 3.0 1 13 26 0 12
r 4.976544 1 4 sctp 1500 -------D 0 1.0 3.0 1 14 27 0 13
+ 4.976544 4 3 sctp 1500 -------D 0 1.0 3.0 1 14 27 0 13
- 4.976544 4 3 sctp 1500 -------D 0 1.0 3.0 1 14 27 0 13
r 5.080544 4 3 sctp 1500 -------D 0 1.0 3.0 1 9 22 0 8
r 5.104544 4 3 sctp 1500 -------D 0 1.0 3.0 1 10 23 0 9
+ 5.104544 3 4 sctp 48 -------S 0 3.0 1.0 1 10 30 65535 65535
- 5.104544 3 4 sctp 48 -------S 0 3.0 1.0 1 10 30 65535 65535
r 5.128544 1 4 sctp 1500 -------D 0 1.0 3.0 1 15 28 0 14
+ 5.128544 4 3 sctp 1500 -------D 0 1.0 3.0 1 15 28 0 14
- 5.128544 4 3 sctp 1500 -------D 0 1.0 3.0 1 15 28 0 14
r 5.128544 4 3 sctp 1500 -------D 0 1.0 3.0 1 11 24 0 10
r 5.152544 1 4 sctp 1500 -------D 0 1.0 3.0 1 16 29 0 15
+ 5.152544 4 3 sctp 1500 -------D 0 1.0 3.0 1 16 29 0 15
r 5.152544 4 3 sctp 1500 -------D 0 1.0 3.0 1 12 25 0 11
+ 5.152544 3 4 sctp 48 -------S 0 3.0 1.0 1 12 31 65535 65535
- 5.152544 3 4 sctp 48 -------S 0 3.0 1.0 1 12 31 65535 65535
- 5.152544 4 3 sctp 1500 -------D 0 1.0 3.0 1 16 29 0 15
r 5.176544 4 3 sctp 1500 -------D 0 1.0 3.0 1 13 26 0 12
r 5.200544 4 3 sctp 1500 -------D 0 1.0 3.0 1 14 27 0 13
+ 5.200544 3 4 sctp 48 -------S 0 3.0 1.0 1 14 32 65535 65535
- 5.200544 3 4 sctp 48 -------S 0 3.0 1.0 1 14 32 65535 65535
r 5.305312 3 4 sctp 48 -------S 0 3.0 1.0 1 10 30 65535 65535
+ 5.305312 4 1 sctp 48 -------S 0 3.0 1.0 1 10 30 65535 65535
- 5.305312 4 1 sctp 48 -------S 0 3.0 1.0 1 10 30 65535 65535
r 5.352544 4 3 sctp 1500 -------D 0 1.0 3.0 1 15 28 0 14
r 5.353312 3 4 sctp 48 -------S 0 3.0 1.0 1 12 31 65535 65535
+ 5.353312 4 1 sctp 48 -------S 0 3.0 1.0 1 12 31 65535 65535
- 5.353312 4 1 sctp 48 -------S 0 3.0 1.0 1 12 31 65535 65535
r 5.376544 4 3 sctp 1500 -------D 0 1.0 3.0 1 16 29 0 15
+ 5.376544 3 4 sctp 48 -------S 0 3.0 1.0 1 16 33 65535 65535
- 5.376544 3 4 sctp 48 -------S 0 3.0 1.0 1 16 33 65535 65535
r 5.401312 3 4 sctp 48 -------S 0 3.0 1.0 1 14 32 65535 65535
+ 5.401312 4 1 sctp 48 -------S 0 3.0 1.0 1 14 32 65535 65535
- 5.401312 4 1 sctp 48 -------S 0 3.0 1.0 1 14 32 65535 65535
r 5.50608 4 1 sctp 48 -------S 0 3.0 1.0 1 10 30 65535 65535
+ 5.50608 1 4 sctp 1500 -------D 0 1.0 3.0 1 17 34 0 16
- 5.50608 1 4 sctp 1500 -------D 0 1.0 3.0 1 17 34 0 16
+ 5.50608 1 4 sctp 1500 -------D 0 1.0 3.0 1 18 35 0 17
+ 5.50608 1 4 sctp 1500 -------D 0 1.0 3.0 1 19 36 0 18
- 5.53008 1 4 sctp 1500 -------D 0 1.0 3.0 1 18 35 0 17
r 5.55408 4 1 sctp 48 -------S 0 3.0 1.0 1 12 31 65535 65535
+ 5.55408 1 4 sctp 1500 -------D 0 1.0 3.0 1 20 37 0 19
+ 5.55408 1 4 sctp 1500 -------D 0 1.0 3.0 1 21 38 0 20
+ 5.55408 1 4 sctp 1500 -------D 0 1.0 3.0 1 22 39 0 21
- 5.55408 1 4 sctp 1500 -------D 0 1.0 3.0 1 19 36 0 18
r 5.577312 3 4 sctp 48 -------S 0 3.0 1.0 1 16 33 65535 65535
+ 5.577312 4 1 sctp 48 -------S 0 3.0 1.0 1 16 33 65535 65535
- 5.577312 4 1 sctp 48 -------S 0 3.0 1.0 1 16 33 65535 65535
- 5.57808 1 4 sctp 1500 -------D 0 1.0 3.0 1 20 37 0 19
r 5.60208 4 1 sctp 48 -------S 0 3.0 1.0 1 14 32 65535 65535
+ 5.60208 1 4 sctp 1500 -------D 0 1.0 3.0 1 23 40 0 22
+ 5.60208 1 4 sctp 1500 -------D 0 1.0 3.0 1 24 41 0 23
+ 5.60208 1 4 sctp 1500 -------D 0 1.0 3.0 1 25 42 0 24
- 5.60208 1 4 sctp 1500 -------D 0 1.0 3.0 1 21 38 0 20
- 5.62608 1 4 sctp 1500 -------D 0 1.0 3.0 1 22 39 0 21
- 5.65008 1 4 sctp 1500 -------D 0 1.0 3.0 1 23 40 0 22
- 5.67408 1 4 sctp 1500 -------D 0 1.0 3.0 1 24 41 0 23
- 5.69808 1 4 sctp 1500 -------D 0 1.0 3.0 1 25 42 0 24
r 5.73008 1 4 sctp 1500 -------D 0 1.0 3.0 1 17 34 0 16
+ 5.73008 4 3 sctp 1500 -------D 0 1.0 3.0 1 17 34 0 16
- 5.73008 4 3 sctp 1500 -------D 0 1.0 3.0 1 17 34 0 16
r 5.75408 1 4 sctp 1500 -------D 0 1.0 3.0 1 18 35 0 17
+ 5.75408 4 3 sctp 1500 -------D 0 1.0 3.0 1 18 35 0 17
- 5.75408 4 3 sctp 1500 -------D 0 1.0 3.0 1 18 35 0 17
r 5.77808 1 4 sctp 1500 -------D 0 1.0 3.0 1 19 36 0 18
+ 5.77808 4 3 sctp 1500 -------D 0 1.0 3.0 1 19 36 0 18
r 5.77808 4 1 sctp 48 -------S 0 3.0 1.0 1 16 33 65535 65535
+ 5.77808 1 4 sctp 1500 -------D 0 1.0 3.0 1 26 43 0 25
- 5.77808 1 4 sctp 1500 -------D 0 1.0 3.0 1 26 43 0 25
+ 5.77808 1 4 sctp 1500 -------D 0 1.0 3.0 1 27 44 0 26
+ 5.77808 1 4 sctp 1500 -------D 0 1.0 3.0 1 28 45 0 27
- 5.77808 4 3 sctp 1500 -------D 0 1.0 3.0 1 19 36 0 18
r 5.80208 1 4 sctp 1500 -------D 0 1.0 3.0 1 20 37 0 19
+ 5.80208 4 3 sctp 1500 -------D 0 1.0 3.0 1 20 37 0 19
- 5.80208 1 4 sctp 1500 -------D 0 1.0 3.0 1 27 44 0 26
- 5.80208 4 3 sctp 1500 -------D 0 1.0 3.0 1 20 37 0 19
r 5.82608 1 4 sctp 1500 -------D 0 1.0 3.0 1 21 38 0 20
+ 5.82608 4 3 sctp 1500 -------D 0 1.0 3.0 1 21 38 0 20
- 5.82608 1 4 sctp 1500 -------D 0 1.0 3.0 1 28 45 0 27
- 5.82608 4 3 sctp 1500 -------D 0 1.0 3.0 1 21 38 0 20
r 5.85008 1 4 sctp 1500 -------D 0 1.0 3.0 1 22 39 0 21
+ 5.85008 4 3 sctp 1500 -------D 0 1.0 3.0 1 22 39 0 21
- 5.85008 4 3 sctp 1500 -------D 0 1.0 3.0 1 22 39 0 21
r 5.87408 1 4 sctp 1500 -------D 0 1.0 3.0 1 23 40 0 22
+ 5.87408 4 3 sctp 1500 -------D 0 1.0 3.0 1 23 40 0 22
- 5.87408 4 3 sctp 1500 -------D 0 1.0 3.0 1 23 40 0 22
r 5.89808 1 4 sctp 1500 -------D 0 1.0 3.0 1 24 41 0 23
+ 5.89808 4 3 sctp 1500 -------D 0 1.0 3.0 1 24 41 0 23
- 5.89808 4 3 sctp 1500 -------D 0 1.0 3.0 1 24 41 0 23
r 5.92208 1 4 sctp 1500 -------D 0 1.0 3.0 1 25 42 0 24
+ 5.92208 4 3 sctp 1500 -------D 0 1.0 3.0 1 25 42 0 24
- 5.92208 4 3 sctp 1500 -------D 0 1.0 3.0 1 25 42 0 24
r 5.95408 4 3 sctp 1500 -------D 0 1.0 3.0 1 17 34 0 16
r 5.97808 4 3 sctp 1500 -------D 0 1.0 3.0 1 18 35 0 17
+ 5.97808 3 4 sctp 48 -------S 0 3.0 1.0 1 18 46 65535 65535
- 5.97808 3 4 sctp 48 -------S 0 3.0 1.0 1 18 46 65535 65535
r 6.00208 1 4 sctp 1500 -------D 0 1.0 3.0 1 26 43 0 25
+ 6.00208 4 3 sctp 1500 -------D 0 1.0 3.0 1 26 43 0 25
- 6.00208 4 3 sctp 1500 -------D 0 1.0 3.0 1 26 43 0 25
r 6.00208 4 3 sctp 1500 -------D 0 1.0 3.0 1 19 36 0 18
r 6.02608 1 4 sctp 1500 -------D 0 1.0 3.0 1 27 44 0 26
+ 6.02608 4 3 sctp 1500 -------D 0 1.0 3.0 1 27 44 0 26
r 6.02608 4 3 sctp 1500 -------D 0 1.0 3.0 1 20 37 0 19
+ 6.02608 3 4 sctp 48 -------S 0 3.0 1.0 1 20 47 65535 65535
- 6.02608 3 4 sctp 48 -------S 0 3.0 1.0 1 20 47 65535 65535
- 6.02608 4 3 sctp 1500 -------D 0 1.0 3.0 1 27 44 0 26
r 6.05008 1 4 sctp 1500 -------D 0 1.0 3.0 1 28 45 0 27
+ 6.05008 4 3 sctp 1500 -------D 0 1.0 3.0 1 28 45 0 27
r 6.05008 4 3 sctp 1500 -------D 0 1.0 3.0 1 21 38 0 20
- 6.05008 4 3 sctp 1500 -------D 0 1.0 3.0 1 28 45 0 27
r 6.07408 4 3 sctp 1500 -------D 0 1.0 3.0 1 22 39 0 21
+ 6.07408 3 4 sctp 48 -------S 0 3.0 1.0 1 22 48 65535 65535
- 6.07408 3 4 sctp 48 -------S 0 3.0 1.0 1 22 48 65535 65535
r 6.09808 4 3 sctp 1500 -------D 0 1.0 3.0 1 23 40 0 22
r 6.12208 4 3 sctp 1500 -------D 0 1.0 3.0 1 24 41 0 23
+ 6.12208 3 4 sctp 48 -------S 0 3.0 1.0 1 24 49 65535 65535
- 6.12208 3 4 sctp 48 -------S 0 3.0 1.0 1 24 49 65535 65535
r 6.14608 4 3 sctp 1500 -------D 0 1.0 3.0 1 25 42 0 24
r 6.178848 3 4 sctp 48 -------S 0 3.0 1.0 1 18 46 65535 65535
+ 6.178848 4 1 sctp 48 -------S 0 3.0 1.0 1 18 46 65535 65535
- 6.178848 4 1 sctp 48 -------S 0 3.0 1.0 1 18 46 65535 65535
r 6.22608 4 3 sctp 1500 -------D 0 1.0 3.0 1 26 43 0 25
+ 6.22608 3 4 sctp 48 -------S 0 3.0 1.0 1 26 50 65535 65535
- 6.22608 3 4 sctp 48 -------S 0 3.0 1.0 1 26 50 65535 65535
r 6.226848 3 4 sctp 48 -------S 0 3.0 1.0 1 20 47 65535 65535
+ 6.226848 4 1 sctp 48 -------S 0 3.0 1.0 1 20 47 65535 65535
- 6.226848 4 1 sctp 48 -------S 0 3.0 1.0 1 20 47 65535 65535
r 6.25008 4 3 sctp 1500 -------D 0 1.0 3.0 1 27 44 0 26
r 6.27408 4 3 sctp 1500 -------D 0 1.0 3.0 1 28 45 0 27
+ 6.27408 3 4 sctp 48 -------S 0 3.0 1.0 1 28 51 65535 65535
- 6.27408 3 4 sctp 48 -------S 0 3.0 1.0 1 28 51 65535 65535
r 6.274848 3 4 sctp 48 -------S 0 3.0 1.0 1 22 48 65535 65535
+ 6.274848 4 1 sctp 48 -------S 0 3.0 1.0 1 22 48 65535 65535
- 6.274848 4 1 sctp 48 -------S 0 3.0 1.0 1 22 48 65535 65535
r 6.322848 3 4 sctp 48 -------S 0 3.0 1.0 1 24 49 65535 65535
+ 6.322848 4 1 sctp 48 -------S 0 3.0 1.0 1 24 49 65535 65535
- 6.322848 4 1 sctp 48 -------S 0 3.0 1.0 1 24 49 65535 65535
r 6.379616 4 1 sctp 48 -------S 0 3.0 1.0 1 18 46 65535 65535
+ 6.379616 2 4 sctp 1500 -------D 0 2.0 3.0 1 29 52 0 28
- 6.379616 2 4 sctp 1500 -------D 0 2.0 3.0 1 29 52 0 28
+ 6.379616 2 4 sctp 1500 -------D 0 2.0 3.0 1 30 53 0 29
+ 6.379616 2 4 sctp 1500 -------D 0 2.0 3.0 1 31 54 0 30
- 6.403616 2 4 sctp 1500 -------D 0 2.0 3.0 1 30 53 0 29
r 6.426848 3 4 sctp 48 -------S 0 3.0 1.0 1 26 50 65535 65535
+ 6.426848 4 1 sctp 48 -------S 0 3.0 1.0 1 26 50 65535 65535
- 6.426848 4 1 sctp 48 -------S 0 3.0 1.0 1 26 50 65535 65535
r 6.427616 4 1 sctp 48 -------S 0 3.0 1.0 1 20 47 65535 65535
+ 6.427616 2 4 sctp 1500 -------D 0 2.0 3.0 1 32 55 0 31
+ 6.427616 2 4 sctp 1500 -------D 0 2.0 3.0 1 33 56 0 32
+ 6.427616 2 4 sctp 1500 -------D 0 2.0 3.0 1 34 57 0 33
- 6.427616 2 4 sctp 1500 -------D 0 2.0 3.0 1 31 54 0 30
- 6.451616 2 4 sctp 1500 -------D 0 2.0 3.0 1 32 55 0 31
r 6.474848 3 4 sctp 48 -------S 0 3.0 1.0 1 28 51 65535 65535
+ 6.474848 4 1 sctp 48 -------S 0 3.0 1.0 1 28 51 65535 65535
- 6.474848 4 1 sctp 48 -------S 0 3.0 1.0 1 28 51 65535 65535
r 6.475616 4 1 sctp 48 -------S 0 3.0 1.0 1 22 48 65535 65535
+ 6.475616 2 4 sctp 1500 -------D 0 2.0 3.0 1 35 58 0 34
+ 6.475616 2 4 sctp 1500 -------D 0 2.0 3.0 1 36 59 0 35
+ 6.475616 2 4 sctp 1500 -------D 0 2.0 3.0 1 37 60 0 36
- 6.475616 2 4 sctp 1500 -------D 0 2.0 3.0 1 33 56 0 32
- 6.499616 2 4 sctp 1500 -------D 0 2.0 3.0 1 34 57 0 33
r 6.523616 4 1 sctp 48 -------S 0 3.0 1.0 1 24 49 65535 65535
+ 6.523616 2 4 sctp 1500 -------D 0 2.0 3.0 1 38 61 0 37
+ 6.523616 2 4 sctp 1500 -------D 0 2.0 3.0 1 39 62 0 38
+ 6.523616 2 4 sctp 1500 -------D 0 2.0 3.0 1 40 63 0 39
- 6.523616 2 4 sctp 1500 -------D 0 2.0 3.0 1 35 58 0 34
- 6.547616 2 4 sctp 1500 -------D 0 2.0 3.0 1 36 59 0 35
- 6.571616 2 4 sctp 1500 -------D 0 2.0 3.0 1 37 60 0 36
- 6.595616 2 4 sctp 1500 -------D 0 2.0 3.0 1 38 61 0 37
r 6.603616 2 4 sctp 1500 -------D 0 2.0 3.0 1 29 52 0 28
+ 6.603616 4 3 sctp 1500 -------D 0 2.0 3.0 1 29 52 0 28
- 6.603616 4 3 sctp 1500 -------D 0 2.0 3.0 1 29 52 0 28
- 6.619616 2 4 sctp 1500 -------D 0 2.0 3.0 1 39 62 0 38
r 6.627616 2 4 sctp 1500 -------D 0 2.0 3.0 1 30 53 0 29
+ 6.627616 4 3 sctp 1500 -------D 0 2.0 3.0 1 30 53 0 29
r 6.627616 4 1 sctp 48 -------S 0 3.0 1.0 1 26 50 65535 65535
+ 6.627616 2 4 sctp 1500 -------D 0 2.0 3.0 1 41 64 0 40
+ 6.627616 2 4 sctp 1500 -------D 0 2.0 3.0 1 42 65 0 41
+ 6.627616 2 4 sctp 1500 -------D 0 2.0 3.0 1 43 66 0 42
- 6.627616 4 3 sctp 1500 -------D 0 2.0 3.0 1 30 53 0 29
- 6.643616 2 4 sctp 1500 -------D 0 2.0 3.0 1 40 63 0 39
r 6.651616 2 4 sctp 1500 -------D 0 2.0 3.0 1 31 54 0 30
+ 6.651616 4 3 sctp 1500 -------D 0 2.0 3.0 1 31 54 0 30
- 6.651616 4 3 sctp 1500 -------D 0 2.0 3.0 1 31 54 0 30
- 6.667616 2 4 sctp 1500 -------D 0 2.0 3.0 1 41 64 0 40
r 6.675616 2 4 sctp 1500 -------D 0 2.0 3.0 1 32 55 0 31
+ 6.675616 4 3 sctp 1500 -------D 0 2.0 3.0 1 32 55 0 31
r 6.675616 4 1 sctp 48 -------S 0 3.0 1.0 1 28 51 65535 65535
+ 6.675616 2 4 sctp 1500 -------D 0 2.0 3.0 1 44 67 0 43
+ 6.675616 2 4 sctp 1500 -------D 0 2.0 3.0 1 45 68 0 44
+ 6.675616 2 4 sctp 1500 -------D 0 2.0 3.0 1 46 69 0 45
- 6.675616 4 3 sctp 1500 -------D 0 2.0 3.0 1 32 55 0 31
- 6.691616 2 4 sctp 1500 -------D 0 2.0 3.0 1 42 65 0 41
r 6.699616 2 4 sctp 1500 -------D 0 2.0 3.0 1 33 56 0 32
+ 6.699616 4 3 sctp 1500 -------D 0 2.0 3.0 1 33 56 0 32
- 6.699616 4 3 sctp 1500 -------D 0 2.0 3.0 1 33 56 0 32
- 6.715616 2 4 sctp 1500 -------D 0 2.0 3.0 1 43 66 0 42
r 6.723616 2 4 sctp 1500 -------D 0 2.0 3.0 1 34 57 0 33
+ 6.723616 4 3 sctp 1500 -------D 0 2.0 3.0 1 34 57 0 33
- 6.723616 4 3 sctp 1500 -------D 0 2.0 3.0 1 34 57 0 33
- 6.739616 2 4 sctp 1500 -------D 0 2.0 3.0 1 44 67 0 43
r 6.747616 2 4 sctp 1500 -------D 0 2.0 3.0 1 35 58 0 34
+ 6.747616 4 3 sctp 1500 -------D 0 2.0 3.0 1 35 58 0 34
- 6.747616 4 3 sctp 1500 -------D 0 2.0 3.0 1 35 58 0 34
- 6.763616 2 4 sctp 1500 -------D 0 2.0 3.0 1 45 68 0 44
r 6.771616 2 4 sctp 1500 -------D 0 2.0 3.0 1 36 59 0 35
+ 6.771616 4 3 sctp 1500 -------D 0 2.0 3.0 1 36 59 0 35
- 6.771616 4 3 sctp 1500 -------D 0 2.0 3.0 1 36 59 0 35
- 6.787616 2 4 sctp 1500 -------D 0 2.0 3.0 1 46 69 0 45
r 6.795616 2 4 sctp 1500 -------D 0 2.0 3.0 1 37 60 0 36
+ 6.795616 4 3 sctp 1500 -------D 0 2.0 3.0 1 37 60 0 36
- 6.795616 4 3 sctp 1500 -------D 0 2.0 3.0 1 37 60 0 36
r 6.819616 2 4 sctp 1500 -------D 0 2.0 3.0 1 38 61 0 37
+ 6.819616 4 3 sctp 1500 -------D 0 2.0 3.0 1 38 61 0 37
- 6.819616 4 3 sctp 1500 -------D 0 2.0 3.0 1 38 61 0 37
r 6.827616 4 3 sctp 1500 -------D 0 2.0 3.0 1 29 52 0 28
r 6.843616 2 4 sctp 1500 -------D 0 2.0 3.0 1 39 62 0 38
+ 6.843616 4 3 sctp 1500 -------D 0 2.0 3.0 1 39 62 0 38
- 6.843616 4 3 sctp 1500 -------D 0 2.0 3.0 1 39 62 0 38
r 6.851616 4 3 sctp 1500 -------D 0 2.0 3.0 1 30 53 0 29
+ 6.851616 3 4 sctp 48 -------S 0 3.0 2.0 1 30 70 65535 65535
- 6.851616 3 4 sctp 48 -------S 0 3.0 2.0 1 30 70 65535 65535
r 6.867616 2 4 sctp 1500 -------D 0 2.0 3.0 1 40 63 0 39
+ 6.867616 4 3 sctp 1500 -------D 0 2.0 3.0 1 40 63 0 39
- 6.867616 4 3 sctp 1500 -------D 0 2.0 3.0 1 40 63 0 39
r 6.875616 4 3 sctp 1500 -------D 0 2.0 3.0 1 31 54 0 30
r 6.891616 2 4 sctp 1500 -------D 0 2.0 3.0 1 41 64 0 40
+ 6.891616 4 3 sctp 1500 -------D 0 2.0 3.0 1 41 64 0 40
- 6.891616 4 3 sctp 1500 -------D 0 2.0 3.0 1 41 64 0 40
r 6.899616 4 3 sctp 1500 -------D 0 2.0 3.0 1 32 55 0 31
+ 6.899616 3 4 sctp 48 -------S 0 3.0 2.0 1 32 71 65535 65535
- 6.899616 3 4 sctp 48 -------S 0 3.0 2.0 1 32 71 65535 65535
r 6.915616 2 4 sctp 1500 -------D 0 2.0 3.0 1 42 65 0 41
+ 6.915616 4 3 sctp 1500 -------D 0 2.0 3.0 1 42 65 0 41
- 6.915616 4 3 sctp 1500 -------D 0 2.0 3.0 1 42 65 0 41
r 6.923616 4 3 sctp 1500 -------D 0 2.0 3.0 1 33 56 0 32
r 6.939616 2 4 sctp 1500 -------D 0 2.0 3.0 1 43 66 0 42
+ 6.939616 4 3 sctp 1500 -------D 0 2.0 3.0 1 43 66 0 42
- 6.939616 4 3 sctp 1500 -------D 0 2.0 3.0 1 43 66 0 42
r 6.947616 4 3 sctp 1500 -------D 0 2.0 3.0 1 34 57 0 33
+ 6.947616 3 4 sctp 48 -------S 0 3.0 2.0 1 34 72 65535 65535
- 6.947616 3 4 sctp 48 -------S 0 3.0 2.0 1 34 72 65535 65535
r 6.963616 2 4 sctp 1500 -------D 0 2.0 3.0 1 44 67 0 43
+ 6.963616 4 3 sctp 1500 -------D 0 2.0 3.0 1 44 67 0 43
- 6.963616 4 3 sctp 1500 -------D 0 2.0 3.0 1 44 67 0 43
r 6.971616 4 3 sctp 1500 -------D 0 2.0 3.0 1 35 58 0 34
r 6.987616 2 4 sctp 1500 -------D 0 2.0 3.0 1 45 68 0 44
+ 6.987616 4 3 sctp 1500 -------D 0 2.0 3.0 1 45 68 0 44
- 6.987616 4 3 sctp 1500 -------D 0 2.0 3.0 1 45 68 0 44
r 6.995616 4 3 sctp 1500 -------D 0 2.0 3.0 1 36 59 0 35
+ 6.995616 3 4 sctp 48 -------S 0 3.0 2.0 1 36 73 65535 65535
- 6.995616 3 4 sctp 48 -------S 0 3.0 2.0 1 36 73 65535 65535
r 7.011616 2 4 sctp 1500 -------D 0 2.0 3.0 1 46 69 0 45
+ 7.011616 4 3 sctp 1500 -------D 0 2.0 3.0 1 46 69 0 45
- 7.011616 4 3 sctp 1500 -------D 0 2.0 3.0 1 46 69 0 45
r 7.019616 4 3 sctp 1500 -------D 0 2.0 3.0 1 37 60 0 36
r 7.043616 4 3 sctp 1500 -------D 0 2.0 3.0 1 38 61 0 37
+ 7.043616 3 4 sctp 48 -------S 0 3.0 2.0 1 38 74 65535 65535
- 7.043616 3 4 sctp 48 -------S 0 3.0 2.0 1 38 74 65535 65535
r 7.052384 3 4 sctp 48 -------S 0 3.0 2.0 1 30 70 65535 65535
+ 7.052384 4 2 sctp 48 -------S 0 3.0 2.0 1 30 70 65535 65535
- 7.052384 4 2 sctp 48 -------S 0 3.0 2.0 1 30 70 65535 65535
r 7.067616 4 3 sctp 1500 -------D 0 2.0 3.0 1 39 62 0 38
r 7.091616 4 3 sctp 1500 -------D 0 2.0 3.0 1 40 63 0 39
+ 7.091616 3 4 sctp 48 -------S 0 3.0 2.0 1 40 75 65535 65535
- 7.091616 3 4 sctp 48 -------S 0 3.0 2.0 1 40 75 65535 65535
r 7.100384 3 4 sctp 48 -------S 0 3.0 2.0 1 32 71 65535 65535
+ 7.100384 4 2 sctp 48 -------S 0 3.0 2.0 1 32 71 65535 65535
- 7.100384 4 2 sctp 48 -------S 0 3.0 2.0 1 32 71 65535 65535
r 7.115616 4 3 sctp 1500 -------D 0 2.0 3.0 1 41 64 0 40
r 7.139616 4 3 sctp 1500 -------D 0 2.0 3.0 1 42 65 0 41
+ 7.139616 3 4 sctp 48 -------S 0 3.0 2.0 1 42 76 65535 65535
- 7.139616 3 4 sctp 48 -------S 0 3.0 2.0 1 42 76 65535 65535
r 7.148384 3 4 sctp 48 -------S 0 3.0 2.0 1 34 72 65535 65535
+ 7.148384 4 2 sctp 48 -------S 0 3.0 2.0 1 34 72 65535 65535
- 7.148384 4 2 sctp 48 -------S 0 3.0 2.0 1 34 72 65535 65535
r 7.163616 4 3 sctp 1500 -------D 0 2.0 3.0 1 43 66 0 42
r 7.187616 4 3 sctp 1500 -------D 0 2.0 3.0 1 44 67 0 43
+ 7.187616 3 4 sctp 48 -------S 0 3.0 2.0 1 44 77 65535 65535
- 7.187616 3 4 sctp 48 -------S 0 3.0 2.0 1 44 77 65535 65535
r 7.196384 3 4 sctp 48 -------S 0 3.0 2.0 1 36 73 65535 65535
+ 7.196384 4 2 sctp 48 -------S 0 3.0 2.0 1 36 73 65535 65535
- 7.196384 4 2 sctp 48 -------S 0 3.0 2.0 1 36 73 65535 65535
r 7.211616 4 3 sctp 1500 -------D 0 2.0 3.0 1 45 68 0 44
r 7.235616 4 3 sctp 1500 -------D 0 2.0 3.0 1 46 69 0 45
+ 7.235616 3 4 sctp 48 -------S 0 3.0 2.0 1 46 78 65535 65535
- 7.235616 3 4 sctp 48 -------S 0 3.0 2.0 1 46 78 65535 65535
r 7.244384 3 4 sctp 48 -------S 0 3.0 2.0 1 38 74 65535 65535
+ 7.244384 4 2 sctp 48 -------S 0 3.0 2.0 1 38 74 65535 65535
- 7.244384 4 2 sctp 48 -------S 0 3.0 2.0 1 38 74 65535 65535
r 7.253152 4 2 sctp 48 -------S 0 3.0 2.0 1 30 70 65535 65535
+ 7.253152 2 4 sctp 1500 -------D 0 2.0 3.0 1 47 79 0 46
- 7.253152 2 4 sctp 1500 -------D 0 2.0 3.0 1 47 79 0 46
+ 7.253152 2 4 sctp 1500 -------D 0 2.0 3.0 1 48 80 0 47
+ 7.253152 2 4 sctp 1500 -------D 0 2.0 3.0 1 49 81 0 48
- 7.277152 2 4 sctp 1500 -------D 0 2.0 3.0 1 48 80 0 47
r 7.292384 3 4 sctp 48 -------S 0 3.0 2.0 1 40 75 65535 65535
+ 7.292384 4 2 sctp 48 -------S 0 3.0 2.0 1 40 75 65535 65535
- 7.292384 4 2 sctp 48 -------S 0 3.0 2.0 1 40 75 65535 65535
r 7.301152 4 2 sctp 48 -------S 0 3.0 2.0 1 32 71 65535 65535
+ 7.301152 2 4 sctp 1500 -------D 0 2.0 3.0 1 50 82 0 49
+ 7.301152 2 4 sctp 1500 -------D 0 2.0 3.0 1 51 83 0 50
+ 7.301152 2 4 sctp 1500 -------D 0 2.0 3.0 1 52 84 0 51
- 7.301152 2 4 sctp 1500 -------D 0 2.0 3.0 1 49 81 0 48
- 7.325152 2 4 sctp 1500 -------D 0 2.0 3.0 1 50 82 0 49
r 7.340384 3 4 sctp 48 -------S 0 3.0 2.0 1 42 76 65535 65535
+ 7.340384 4 2 sctp 48 -------S 0 3.0 2.0 1 42 76 65535 65535
- 7.340384 4 2 sctp 48 -------S 0 3.0 2.0 1 42 76 65535 65535
r 7.349152 4 2 sctp 48 -------S 0 3.0 2.0 1 34 72 65535 65535
+ 7.349152 2 4 sctp 1500 -------D 0 2.0 3.0 1 53 85 0 52
+ 7.349152 2 4 sctp 1500 -------D 0 2.0 3.0 1 54 86 0 53
+ 7.349152 2 4 sctp 1500 -------D 0 2.0 3.0 1 55 87 0 54
- 7.349152 2 4 sctp 1500 -------D 0 2.0 3.0 1 51 83 0 50
- 7.373152 2 4 sctp 1500 -------D 0 2.0 3.0 1 52 84 0 51
r 7.388384 3 4 sctp 48 -------S 0 3.0 2.0 1 44 77 65535 65535
+ 7.388384 4 2 sctp 48 -------S 0 3.0 2.0 1 44 77 65535 65535
- 7.388384 4 2 sctp 48 -------S 0 3.0 2.0 1 44 77 65535 65535
r 7.397152 4 2 sctp 48 -------S 0 3.0 2.0 1 36 73 65535 65535
+ 7.397152 2 4 sctp 1500 -------D 0 2.0 3.0 1 56 88 0 55
+ 7.397152 2 4 sctp 1500 -------D 0 2.0 3.0 1 57 89 0 56
+ 7.397152 2 4 sctp 1500 -------D 0 2.0 3.0 1 58 90 0 57
- 7.397152 2 4 sctp 1500 -------D 0 2.0 3.0 1 53 85 0 52
- 7.421152 2 4 sctp 1500 -------D 0 2.0 3.0 1 54 86 0 53
r 7.436384 3 4 sctp 48 -------S 0 3.0 2.0 1 46 78 65535 65535
+ 7.436384 4 2 sctp 48 -------S 0 3.0 2.0 1 46 78 65535 65535
- 7.436384 4 2 sctp 48 -------S 0 3.0 2.0 1 46 78 65535 65535
r 7.445152 4 2 sctp 48 -------S 0 3.0 2.0 1 38 74 65535 65535
+ 7.445152 2 4 sctp 1500 -------D 0 2.0 3.0 1 59 91 0 58
+ 7.445152 2 4 sctp 1500 -------D 0 2.0 3.0 1 60 92 0 59
+ 7.445152 2 4 sctp 1500 -------D 0 2.0 3.0 1 61 93 0 60
- 7.445152 2 4 sctp 1500 -------D 0 2.0 3.0 1 55 87 0 54
- 7.469152 2 4 sctp 1500 -------D 0 2.0 3.0 1 56 88 0 55
r 7.477152 2 4 sctp 1500 -------D 0 2.0 3.0 1 47 79 0 46
+ 7.477152 4 3 sctp 1500 -------D 0 2.0 3.0 1 47 79 0 46
- 7.477152 4 3 sctp 1500 -------D 0 2.0 3.0 1 47 79 0 46
r 7.493152 4 2 sctp 48 -------S 0 3.0 2.0 1 40 75 65535 65535
+ 7.493152 2 4 sctp 1500 -------D 0 2.0 3.0 1 62 94 0 61
+ 7.493152 2 4 sctp 1500 -------D 0 2.0 3.0 1 63 95 0 62
+ 7.493152 2 4 sctp 1500 -------D 0 2.0 3.0 1 64 96 0 63
- 7.493152 2 4 sctp 1500 -------D 0 2.0 3.0 1 57 89 0 56
r 7.501152 2 4 sctp 1500 -------D 0 2.0 3.0 1 48 80 0 47
+ 7.501152 4 3 sctp 1500 -------D 0 2.0 3.0 1 48 80 0 47
- 7.501152 4 3 sctp 1500 -------D 0 2.0 3.0 1 48 80 0 47
- 7.517152 2 4 sctp 1500 -------D 0 2.0 3.0 1 58 90 0 57
r 7.525152 2 4 sctp 1500 -------D 0 2.0 3.0 1 49 81 0 48
+ 7.525152 4 3 sctp 1500 -------D 0 2.0 3.0 1 49 81 0 48
- 7.525152 4 3 sctp 1500 -------D 0 2.0 3.0 1 49 81 0 48
r 7.541152 4 2 sctp 48 -------S 0 3.0 2.0 1 42 76 65535 65535
+ 7.541152 2 4 sctp 1500 -------D 0 2.0 3.0 1 65 97 0 64
+ 7.541152 2 4 sctp 1500 -------D 0 2.0 3.0 1 66 98 0 65
+ 7.541152 2 4 sctp 1500 -------D 0 2.0 3.0 1 67 99 0 66
- 7.541152 2 4 sctp 1500 -------D 0 2.0 3.0 1 59 91 0 58
r 7.549152 2 4 sctp 1500 -------D 0 2.0 3.0 1 50 82 0 49
+ 7.549152 4 3 sctp 1500 -------D 0 2.0 3.0 1 50 82 0 49
- 7.549152 4 3 sctp 1500 -------D 0 2.0 3.0 1 50 82 0 49
- 7.565152 2 4 sctp 1500 -------D 0 2.0 3.0 1 60 92 0 59
r 7.573152 2 4 sctp 1500 -------D 0 2.0 3.0 1 51 83 0 50
+ 7.573152 4 3 sctp 1500 -------D 0 2.0 3.0 1 51 83 0 50
- 7.573152 4 3 sctp 1500 -------D 0 2.0 3.0 1 51 83 0 50
r 7.589152 4 2 sctp 48 -------S 0 3.0 2.0 1 44 77 65535 65535
+ 7.589152 2 4 sctp 1500 -------D 0 2.0 3.0 1 68 100 0 67
+ 7.589152 2 4 sctp 1500 -------D 0 2.0 3.0 1 69 101 0 68
+ 7.589152 2 4 sctp 1500 -------D 0 2.0 3.0 1 70 102 0 69
- 7.589152 2 4 sctp 1500 -------D 0 2.0 3.0 1 61 93 0 60
r 7.597152 2 4 sctp 1500 -------D 0 2.0 3.0 1 52 84 0 51
+ 7.597152 4 3 sctp 1500 -------D 0 2.0 3.0 1 52 84 0 51
- 7.597152 4 3 sctp 1500 -------D 0 2.0 3.0 1 52 84 0 51
- 7.613152 2 4 sctp 1500 -------D 0 2.0 3.0 1 62 94 0 61
r 7.621152 2 4 sctp 1500 -------D 0 2.0 3.0 1 53 85 0 52
+ 7.621152 4 3 sctp 1500 -------D 0 2.0 3.0 1 53 85 0 52