+ 0.5 0 1 sctp 56 -------I 0 0.0 1.0 1 -1 2 65535 65535
- 0.5 0 1 sctp 56 -------I 0 0.0 1.0 1 -1 2 65535 65535
r 0.700896 0 1 sctp 56 -------I 0 0.0 1.0 1 -1 2 65535 65535
+ 0.700896 1 0 sctp 56 -------I 0 1.0 0.0 1 -1 3 65535 65535
- 0.700896 1 0 sctp 56 -------I 0 1.0 0.0 1 -1 3 65535 65535
r 0.901792 1 0 sctp 56 -------I 0 1.0 0.0 1 -1 3 65535 65535
+ 0.901792 0 1 sctp 36 -------I 0 0.0 1.0 1 -1 4 65535 65535
- 0.901792 0 1 sctp 36 -------I 0 0.0 1.0 1 -1 4 65535 65535
r 1.102368 0 1 sctp 36 -------I 0 0.0 1.0 1 -1 4 65535 65535
+ 1.102368 1 0 sctp 36 -------I 0 1.0 0.0 1 -1 5 65535 65535
- 1.102368 1 0 sctp 36 -------I 0 1.0 0.0 1 -1 5 65535 65535
r 1.302944 1 0 sctp 36 -------I 0 1.0 0.0 1 -1 5 65535 65535
+ 1.302944 0 1 sctp 56 -------H 0 0.0 1.0 1 -1 6 65535 65535
- 1.302944 0 1 sctp 56 -------H 0 0.0 1.0 1 -1 6 65535 65535
r 1.50384 0 1 sctp 56 -------H 0 0.0 1.0 1 -1 6 65535 65535
+ 1.50384 1 0 sctp 56 -------B 0 1.0 0.0 1 -1 7 65535 65535
- 1.50384 1 0 sctp 56 -------B 0 1.0 0.0 1 -1 7 65535 65535
r 1.704736 1 0 sctp 56 -------B 0 1.0 0.0 1 -1 7 65535 65535
+ 1.704736 0 1 sctp 1500 -------D 0 0.0 1.0 1 1 8 0 0
- 1.704736 0 1 sctp 1500 -------D 0 0.0 1.0 1 1 8 0 0
+ 1.704736 0 1 sctp 1500 -------D 0 0.0 1.0 1 2 9 0 1
+ 1.704736 0 1 sctp 1500 -------D 0 0.0 1.0 1 3 10 0 2
- 1.728736 0 1 sctp 1500 -------D 0 0.0 1.0 1 2 9 0 1
- 1.752736 0 1 sctp 1500 -------D 0 0.0 1.0 1 3 10 0 2
r 1.928736 0 1 sctp 1500 -------D 0 0.0 1.0 1 1 8 0 0
+ 1.928736 1 0 sctp 48 -------S 0 1.0 0.0 1 1 11 65535 65535
- 1.928736 1 0 sctp 48 -------S 0 1.0 0.0 1 1 11 65535 65535
r 1.952736 0 1 sctp 1500 -------D 0 0.0 1.0 1 2 9 0 1
r 1.976736 0 1 sctp 1500 -------D 0 0.0 1.0 1 3 10 0 2
+ 1.976736 1 0 sctp 48 -------S 0 1.0 0.0 1 3 12 65535 65535
- 1.976736 1 0 sctp 48 -------S 0 1.0 0.0 1 3 12 65535 65535
r 2.129504 1 0 sctp 48 -------S 0 1.0 0.0 1 1 11 65535 65535
+ 2.129504 0 1 sctp 1500 -------D 0 0.0 1.0 1 4 13 0 3
- 2.129504 0 1 sctp 1500 -------D 0 0.0 1.0 1 4 13 0 3
+ 2.129504 0 1 sctp 1500 -------D 0 0.0 1.0 1 5 14 0 4
- 2.153504 0 1 sctp 1500 -------D 0 0.0 1.0 1 5 14 0 4
r 2.177504 1 0 sctp 48 -------S 0 1.0 0.0 1 3 12 65535 65535
+ 2.177504 0 1 sctp 1500 -------D 0 0.0 1.0 1 6 15 0 5
+ 2.177504 0 1 sctp 1500 -------D 0 0.0 1.0 1 7 16 0 6
+ 2.177504 0 1 sctp 1500 -------D 0 0.0 1.0 1 8 17 0 7
- 2.177504 0 1 sctp 1500 -------D 0 0.0 1.0 1 6 15 0 5
- 2.201504 0 1 sctp 1500 -------D 0 0.0 1.0 1 7 16 0 6
- 2.225504 0 1 sctp 1500 -------D 0 0.0 1.0 1 8 17 0 7
r 2.353504 0 1 sctp 1500 -------D 0 0.0 1.0 1 4 13 0 3
r 2.377504 0 1 sctp 1500 -------D 0 0.0 1.0 1 5 14 0 4
+ 2.377504 1 0 sctp 48 -------S 0 1.0 0.0 1 5 18 65535 65535
- 2.377504 1 0 sctp 48 -------S 0 1.0 0.0 1 5 18 65535 65535
r 2.401504 0 1 sctp 1500 -------D 0 0.0 1.0 1 6 15 0 5
r 2.425504 0 1 sctp 1500 -------D 0 0.0 1.0 1 7 16 0 6
+ 2.425504 1 0 sctp 48 -------S 0 1.0 0.0 1 7 19 65535 65535
- 2.425504 1 0 sctp 48 -------S 0 1.0 0.0 1 7 19 65535 65535
r 2.449504 0 1 sctp 1500 -------D 0 0.0 1.0 1 8 17 0 7
r 2.578272 1 0 sctp 48 -------S 0 1.0 0.0 1 5 18 65535 65535
+ 2.578272 0 1 sctp 1500 -------D 0 0.0 1.0 1 9 20 0 8
- 2.578272 0 1 sctp 1500 -------D 0 0.0 1.0 1 9 20 0 8
+ 2.578272 0 1 sctp 1500 -------D 0 0.0 1.0 1 10 21 0 9
+ 2.578272 0 1 sctp 1500 -------D 0 0.0 1.0 1 11 22 0 10
- 2.602272 0 1 sctp 1500 -------D 0 0.0 1.0 1 10 21 0 9
r 2.626272 1 0 sctp 48 -------S 0 1.0 0.0 1 7 19 65535 65535
+ 2.626272 0 1 sctp 1500 -------D 0 0.0 1.0 1 12 23 0 11
+ 2.626272 0 1 sctp 1500 -------D 0 0.0 1.0 1 13 24 0 12
+ 2.626272 0 1 sctp 1500 -------D 0 0.0 1.0 1 14 25 0 13
- 2.626272 0 1 sctp 1500 -------D 0 0.0 1.0 1 11 22 0 10
+ 2.649504 1 0 sctp 48 -------S 0 1.0 0.0 1 8 26 65535 65535
- 2.649504 1 0 sctp 48 -------S 0 1.0 0.0 1 8 26 65535 65535
- 2.650272 0 1 sctp 1500 -------D 0 0.0 1.0 1 12 23 0 11
- 2.674272 0 1 sctp 1500 -------D 0 0.0 1.0 1 13 24 0 12
- 2.698272 0 1 sctp 1500 -------D 0 0.0 1.0 1 14 25 0 13
r 2.802272 0 1 sctp 1500 -------D 0 0.0 1.0 1 9 20 0 8
r 2.826272 0 1 sctp 1500 -------D 0 0.0 1.0 1 10 21 0 9
+ 2.826272 1 0 sctp 48 -------S 0 1.0 0.0 1 10 27 65535 65535
- 2.826272 1 0 sctp 48 -------S 0 1.0 0.0 1 10 27 65535 65535
r 2.850272 0 1 sctp 1500 -------D 0 0.0 1.0 1 11 22 0 10
r 2.850272 1 0 sctp 48 -------S 0 1.0 0.0 1 8 26 65535 65535
+ 2.850272 0 1 sctp 1500 -------D 0 0.0 1.0 1 15 28 0 14
- 2.850272 0 1 sctp 1500 -------D 0 0.0 1.0 1 15 28 0 14
+ 2.850272 0 1 sctp 1500 -------D 0 0.0 1.0 1 16 29 0 15
r 2.874272 0 1 sctp 1500 -------D 0 0.0 1.0 1 12 23 0 11
+ 2.874272 1 0 sctp 48 -------S 0 1.0 0.0 1 12 30 65535 65535
- 2.874272 1 0 sctp 48 -------S 0 1.0 0.0 1 12 30 65535 65535
- 2.874272 0 1 sctp 1500 -------D 0 0.0 1.0 1 16 29 0 15
r 2.898272 0 1 sctp 1500 -------D 0 0.0 1.0 1 13 24 0 12
r 2.922272 0 1 sctp 1500 -------D 0 0.0 1.0 1 14 25 0 13
+ 2.922272 1 0 sctp 48 -------S 0 1.0 0.0 1 14 31 65535 65535
- 2.922272 1 0 sctp 48 -------S 0 1.0 0.0 1 14 31 65535 65535
r 3.02704 1 0 sctp 48 -------S 0 1.0 0.0 1 10 27 65535 65535
+ 3.02704 0 1 sctp 1500 -------D 0 0.0 1.0 1 17 32 0 16
- 3.02704 0 1 sctp 1500 -------D 0 0.0 1.0 1 17 32 0 16
+ 3.02704 0 1 sctp 1500 -------D 0 0.0 1.0 1 18 33 0 17
+ 3.02704 0 1 sctp 1500 -------D 0 0.0 1.0 1 19 34 0 18
- 3.05104 0 1 sctp 1500 -------D 0 0.0 1.0 1 18 33 0 17
r 3.074272 0 1 sctp 1500 -------D 0 0.0 1.0 1 15 28 0 14
r 3.07504 1 0 sctp 48 -------S 0 1.0 0.0 1 12 30 65535 65535
+ 3.07504 0 1 sctp 1500 -------D 0 0.0 1.0 1 20 35 0 19
+ 3.07504 0 1 sctp 1500 -------D 0 0.0 1.0 1 21 36 0 20
+ 3.07504 0 1 sctp 1500 -------D 0 0.0 1.0 1 22 37 0 21
- 3.07504 0 1 sctp 1500 -------D 0 0.0 1.0 1 19 34 0 18
r 3.098272 0 1 sctp 1500 -------D 0 0.0 1.0 1 16 29 0 15
+ 3.098272 1 0 sctp 48 -------S 0 1.0 0.0 1 16 38 65535 65535
- 3.098272 1 0 sctp 48 -------S 0 1.0 0.0 1 16 38 65535 65535
- 3.09904 0 1 sctp 1500 -------D 0 0.0 1.0 1 20 35 0 19
r 3.12304 1 0 sctp 48 -------S 0 1.0 0.0 1 14 31 65535 65535
+ 3.12304 0 1 sctp 1500 -------D 0 0.0 1.0 1 23 39 0 22
+ 3.12304 0 1 sctp 1500 -------D 0 0.0 1.0 1 24 40 0 23
+ 3.12304 0 1 sctp 1500 -------D 0 0.0 1.0 1 25 41 0 24
- 3.12304 0 1 sctp 1500 -------D 0 0.0 1.0 1 21 36 0 20
- 3.14704 0 1 sctp 1500 -------D 0 0.0 1.0 1 22 37 0 21
- 3.17104 0 1 sctp 1500 -------D 0 0.0 1.0 1 23 39 0 22
- 3.19504 0 1 sctp 1500 -------D 0 0.0 1.0 1 24 40 0 23
- 3.21904 0 1 sctp 1500 -------D 0 0.0 1.0 1 25 41 0 24
r 3.25104 0 1 sctp 1500 -------D 0 0.0 1.0 1 17 32 0 16
r 3.27504 0 1 sctp 1500 -------D 0 0.0 1.0 1 18 33 0 17
+ 3.27504 1 0 sctp 48 -------S 0 1.0 0.0 1 18 42 65535 65535
- 3.27504 1 0 sctp 48 -------S 0 1.0 0.0 1 18 42 65535 65535
r 3.29904 0 1 sctp 1500 -------D 0 0.0 1.0 1 19 34 0 18
r 3.29904 1 0 sctp 48 -------S 0 1.0 0.0 1 16 38 65535 65535
+ 3.29904 0 1 sctp 1500 -------D 0 0.0 1.0 1 26 43 0 25
- 3.29904 0 1 sctp 1500 -------D 0 0.0 1.0 1 26 43 0 25
+ 3.29904 0 1 sctp 1500 -------D 0 0.0 1.0 1 27 44 0 26
+ 3.29904 0 1 sctp 1500 -------D 0 0.0 1.0 1 28 45 0 27
r 3.32304 0 1 sctp 1500 -------D 0 0.0 1.0 1 20 35 0 19
+ 3.32304 1 0 sctp 48 -------S 0 1.0 0.0 1 20 46 65535 65535
- 3.32304 1 0 sctp 48 -------S 0 1.0 0.0 1 20 46 65535 65535
- 3.32304 0 1 sctp 1500 -------D 0 0.0 1.0 1 27 44 0 26
r 3.34704 0 1 sctp 1500 -------D 0 0.0 1.0 1 21 36 0 20
- 3.34704 0 1 sctp 1500 -------D 0 0.0 1.0 1 28 45 0 27
r 3.37104 0 1 sctp 1500 -------D 0 0.0 1.0 1 22 37 0 21
+ 3.37104 1 0 sctp 48 -------S 0 1.0 0.0 1 22 47 65535 65535
- 3.37104 1 0 sctp 48 -------S 0 1.0 0.0 1 22 47 65535 65535
r 3.39504 0 1 sctp 1500 -------D 0 0.0 1.0 1 23 39 0 22
r 3.41904 0 1 sctp 1500 -------D 0 0.0 1.0 1 24 40 0 23
+ 3.41904 1 0 sctp 48 -------S 0 1.0 0.0 1 24 48 65535 65535
- 3.41904 1 0 sctp 48 -------S 0 1.0 0.0 1 24 48 65535 65535
r 3.44304 0 1 sctp 1500 -------D 0 0.0 1.0 1 25 41 0 24
r 3.475808 1 0 sctp 48 -------S 0 1.0 0.0 1 18 42 65535 65535
+ 3.475808 0 1 sctp 1500 -------D 0 0.0 1.0 1 29 49 0 28
- 3.475808 0 1 sctp 1500 -------D 0 0.0 1.0 1 29 49 0 28
d 3.475808 0 1 sctp 1500 -------D 0 0.0 1.0 1 30 50 0 29
+ 3.475808 0 1 sctp 1500 -------D 0 0.0 1.0 1 31 51 0 30
- 3.499808 0 1 sctp 1500 -------D 0 0.0 1.0 1 31 51 0 30
r 3.52304 0 1 sctp 1500 -------D 0 0.0 1.0 1 26 43 0 25
+ 3.52304 1 0 sctp 48 -------S 0 1.0 0.0 1 26 52 65535 65535
- 3.52304 1 0 sctp 48 -------S 0 1.0 0.0 1 26 52 65535 65535
r 3.523808 1 0 sctp 48 -------S 0 1.0 0.0 1 20 46 65535 65535
+ 3.523808 0 1 sctp 1500 -------D 0 0.0 1.0 1 32 53 0 31
+ 3.523808 0 1 sctp 1500 -------D 0 0.0 1.0 1 33 54 0 32
+ 3.523808 0 1 sctp 1500 -------D 0 0.0 1.0 1 34 55 0 33
- 3.523808 0 1 sctp 1500 -------D 0 0.0 1.0 1 32 53 0 31
r 3.54704 0 1 sctp 1500 -------D 0 0.0 1.0 1 27 44 0 26
- 3.547808 0 1 sctp 1500 -------D 0 0.0 1.0 1 33 54 0 32
r 3.57104 0 1 sctp 1500 -------D 0 0.0 1.0 1 28 45 0 27
+ 3.57104 1 0 sctp 48 -------S 0 1.0 0.0 1 28 56 65535 65535
- 3.57104 1 0 sctp 48 -------S 0 1.0 0.0 1 28 56 65535 65535
r 3.571808 1 0 sctp 48 -------S 0 1.0 0.0 1 22 47 65535 65535
+ 3.571808 0 1 sctp 1500 -------D 0 0.0 1.0 1 35 57 0 34
+ 3.571808 0 1 sctp 1500 -------D 0 0.0 1.0 1 36 58 0 35
+ 3.571808 0 1 sctp 1500 -------D 0 0.0 1.0 1 37 59 0 36
- 3.571808 0 1 sctp 1500 -------D 0 0.0 1.0 1 34 55 0 33
- 3.595808 0 1 sctp 1500 -------D 0 0.0 1.0 1 35 57 0 34
r 3.619808 1 0 sctp 48 -------S 0 1.0 0.0 1 24 48 65535 65535
+ 3.619808 0 1 sctp 1500 -------D 0 0.0 1.0 1 38 60 0 37
+ 3.619808 0 1 sctp 1500 -------D 0 0.0 1.0 1 39 61 0 38
+ 3.619808 0 1 sctp 1500 -------D 0 0.0 1.0 1 40 62 0 39
- 3.619808 0 1 sctp 1500 -------D 0 0.0 1.0 1 36 58 0 35
- 3.643808 0 1 sctp 1500 -------D 0 0.0 1.0 1 37 59 0 36
- 3.667808 0 1 sctp 1500 -------D 0 0.0 1.0 1 38 60 0 37
- 3.691808 0 1 sctp 1500 -------D 0 0.0 1.0 1 39 61 0 38
r 3.699808 0 1 sctp 1500 -------D 0 0.0 1.0 1 29 49 0 28
- 3.715808 0 1 sctp 1500 -------D 0 0.0 1.0 1 40 62 0 39
r 3.723808 0 1 sctp 1500 -------D 0 0.0 1.0 1 31 51 0 30
+ 3.723808 1 0 sctp 52 -------S 0 1.0 0.0 1 29 63 65535 65535
- 3.723808 1 0 sctp 52 -------S 0 1.0 0.0 1 29 63 65535 65535
r 3.723808 1 0 sctp 48 -------S 0 1.0 0.0 1 26 52 65535 65535
+ 3.723808 0 1 sctp 1500 -------D 0 0.0 1.0 1 41 64 0 40
+ 3.723808 0 1 sctp 1500 -------D 0 0.0 1.0 1 42 65 0 41
- 3.739808 0 1 sctp 1500 -------D 0 0.0 1.0 1 41 64 0 40
r 3.747808 0 1 sctp 1500 -------D 0 0.0 1.0 1 32 53 0 31
+ 3.747808 1 0 sctp 52 -------S 0 1.0 0.0 1 29 66 65535 65535
- 3.747808 1 0 sctp 52 -------S 0 1.0 0.0 1 29 66 65535 65535
- 3.763808 0 1 sctp 1500 -------D 0 0.0 1.0 1 42 65 0 41
r 3.771808 0 1 sctp 1500 -------D 0 0.0 1.0 1 33 54 0 32
+ 3.771808 1 0 sctp 52 -------S 0 1.0 0.0 1 29 67 65535 65535
- 3.771808 1 0 sctp 52 -------S 0 1.0 0.0 1 29 67 65535 65535
r 3.771808 1 0 sctp 48 -------S 0 1.0 0.0 1 28 56 65535 65535
+ 3.771808 0 1 sctp 1500 -------D 0 0.0 1.0 1 43 68 0 42
+ 3.771808 0 1 sctp 1500 -------D 0 0.0 1.0 1 44 69 0 43
- 3.787808 0 1 sctp 1500 -------D 0 0.0 1.0 1 43 68 0 42
r 3.795808 0 1 sctp 1500 -------D 0 0.0 1.0 1 34 55 0 33
+ 3.795808 1 0 sctp 52 -------S 0 1.0 0.0 1 29 70 65535 65535
- 3.795808 1 0 sctp 52 -------S 0 1.0 0.0 1 29 70 65535 65535
- 3.811808 0 1 sctp 1500 -------D 0 0.0 1.0 1 44 69 0 43
r 3.819808 0 1 sctp 1500 -------D 0 0.0 1.0 1 35 57 0 34
+ 3.819808 1 0 sctp 52 -------S 0 1.0 0.0 1 29 71 65535 65535
- 3.819808 1 0 sctp 52 -------S 0 1.0 0.0 1 29 71 65535 65535
r 3.843808 0 1 sctp 1500 -------D 0 0.0 1.0 1 36 58 0 35
+ 3.843808 1 0 sctp 52 -------S 0 1.0 0.0 1 29 72 65535 65535
- 3.843808 1 0 sctp 52 -------S 0 1.0 0.0 1 29 72 65535 65535
r 3.867808 0 1 sctp 1500 -------D 0 0.0 1.0 1 37 59 0 36
+ 3.867808 1 0 sctp 52 -------S 0 1.0 0.0 1 29 73 65535 65535
- 3.867808 1 0 sctp 52 -------S 0 1.0 0.0 1 29 73 65535 65535
r 3.891808 0 1 sctp 1500 -------D 0 0.0 1.0 1 38 60 0 37
+ 3.891808 1 0 sctp 52 -------S 0 1.0 0.0 1 29 74 65535 65535
- 3.891808 1 0 sctp 52 -------S 0 1.0 0.0 1 29 74 65535 65535
r 3.915808 0 1 sctp 1500 -------D 0 0.0 1.0 1 39 61 0 38
+ 3.915808 1 0 sctp 52 -------S 0 1.0 0.0 1 29 75 65535 65535
- 3.915808 1 0 sctp 52 -------S 0 1.0 0.0 1 29 75 65535 65535
r 3.92464 1 0 sctp 52 -------S 0 1.0 0.0 1 29 63 65535 65535
+ 3.92464 0 1 sctp 1500 -------D 0 0.0 1.0 1 45 76 0 44
- 3.92464 0 1 sctp 1500 -------D 0 0.0 1.0 1 45 76 0 44
r 3.939808 0 1 sctp 1500 -------D 0 0.0 1.0 1 40 62 0 39
+ 3.939808 1 0 sctp 52 -------S 0 1.0 0.0 1 29 77 65535 65535
- 3.939808 1 0 sctp 52 -------S 0 1.0 0.0 1 29 77 65535 65535
r 3.94864 1 0 sctp 52 -------S 0 1.0 0.0 1 29 66 65535 65535
r 3.963808 0 1 sctp 1500 -------D 0 0.0 1.0 1 41 64 0 40
+ 3.963808 1 0 sctp 52 -------S 0 1.0 0.0 1 29 78 65535 65535
- 3.963808 1 0 sctp 52 -------S 0 1.0 0.0 1 29 78 65535 65535
r 3.97264 1 0 sctp 52 -------S 0 1.0 0.0 1 29 67 65535 65535
+ 3.97264 0 1 sctp 1500 -------D 0 0.0 1.0 1 30 79 0 29
- 3.97264 0 1 sctp 1500 -------D 0 0.0 1.0 1 30 79 0 29
r 3.987808 0 1 sctp 1500 -------D 0 0.0 1.0 1 42 65 0 41
+ 3.987808 1 0 sctp 52 -------S 0 1.0 0.0 1 29 80 65535 65535
- 3.987808 1 0 sctp 52 -------S 0 1.0 0.0 1 29 80 65535 65535
r 3.99664 1 0 sctp 52 -------S 0 1.0 0.0 1 29 70 65535 65535
r 4.011808 0 1 sctp 1500 -------D 0 0.0 1.0 1 43 68 0 42
+ 4.011808 1 0 sctp 52 -------S 0 1.0 0.0 1 29 81 65535 65535
- 4.011808 1 0 sctp 52 -------S 0 1.0 0.0 1 29 81 65535 65535
r 4.02064 1 0 sctp 52 -------S 0 1.0 0.0 1 29 71 65535 65535
r 4.035808 0 1 sctp 1500 -------D 0 0.0 1.0 1 44 69 0 43
+ 4.035808 1 0 sctp 52 -------S 0 1.0 0.0 1 29 82 65535 65535
- 4.035808 1 0 sctp 52 -------S 0 1.0 0.0 1 29 82 65535 65535
r 4.04464 1 0 sctp 52 -------S 0 1.0 0.0 1 29 72 65535 65535
r 4.06864 1 0 sctp 52 -------S 0 1.0 0.0 1 29 73 65535 65535
r 4.09264 1 0 sctp 52 -------S 0 1.0 0.0 1 29 74 65535 65535
r 4.11664 1 0 sctp 52 -------S 0 1.0 0.0 1 29 75 65535 65535
r 4.14064 1 0 sctp 52 -------S 0 1.0 0.0 1 29 77 65535 65535
r 4.14864 0 1 sctp 1500 -------D 0 0.0 1.0 1 45 76 0 44
+ 4.14864 1 0 sctp 52 -------S 0 1.0 0.0 1 29 83 65535 65535
- 4.14864 1 0 sctp 52 -------S 0 1.0 0.0 1 29 83 65535 65535
r 4.16464 1 0 sctp 52 -------S 0 1.0 0.0 1 29 78 65535 65535
r 4.18864 1 0 sctp 52 -------S 0 1.0 0.0 1 29 80 65535 65535
r 4.19664 0 1 sctp 1500 -------D 0 0.0 1.0 1 30 79 0 29
r 4.21264 1 0 sctp 52 -------S 0 1.0 0.0 1 29 81 65535 65535
r 4.23664 1 0 sctp 52 -------S 0 1.0 0.0 1 29 82 65535 65535
r 4.349472 1 0 sctp 52 -------S 0 1.0 0.0 1 29 83 65535 65535
+ 4.39664 1 0 sctp 48 -------S 0 1.0 0.0 1 45 84 65535 65535
- 4.39664 1 0 sctp 48 -------S 0 1.0 0.0 1 45 84 65535 65535
r 4.597408 1 0 sctp 48 -------S 0 1.0 0.0 1 45 84 65535 65535
+ 4.597408 0 1 sctp 1500 -------D 0 0.0 1.0 1 46 85 0 45
- 4.597408 0 1 sctp 1500 -------D 0 0.0 1.0 1 46 85 0 45
+ 4.597408 0 1 sctp 1500 -------D 0 0.0 1.0 1 47 86 0 46
+ 4.597408 0 1 sctp 1500 -------D 0 0.0 1.0 1 48 87 0 47
+ 4.597408 0 1 sctp 1500 -------D 0 0.0 1.0 1 49 88 0 48
- 4.621408 0 1 sctp 1500 -------D 0 0.0 1.0 1 47 86 0 46
- 4.645408 0 1 sctp 1500 -------D 0 0.0 1.0 1 48 87 0 47
- 4.669408 0 1 sctp 1500 -------D 0 0.0 1.0 1 49 88 0 48
r 4.821408 0 1 sctp 1500 -------D 0 0.0 1.0 1 46 85 0 45
r 4.845408 0 1 sctp 1500 -------D 0 0.0 1.0 1 47 86 0 46
+ 4.845408 1 0 sctp 48 -------S 0 1.0 0.0 1 47 89 65535 65535
- 4.845408 1 0 sctp 48 -------S 0 1.0 0.0 1 47 89 65535 65535
r 4.869408 0 1 sctp 1500 -------D 0 0.0 1.0 1 48 87 0 47
r 4.893408 0 1 sctp 1500 -------D 0 0.0 1.0 1 49 88 0 48
+ 4.893408 1 0 sctp 48 -------S 0 1.0 0.0 1 49 90 65535 65535
- 4.893408 1 0 sctp 48 -------S 0 1.0 0.0 1 49 90 65535 65535
r 5.046176 1 0 sctp 48 -------S 0 1.0 0.0 1 47 89 65535 65535
+ 5.046176 0 1 sctp 1500 -------D 0 0.0 1.0 1 50 91 0 49
- 5.046176 0 1 sctp 1500 -------D 0 0.0 1.0 1 50 91 0 49
+ 5.046176 0 1 sctp 1500 -------D 0 0.0 1.0 1 51 92 0 50
+ 5.046176 0 1 sctp 1500 -------D 0 0.0 1.0 1 52 93 0 51
+ 5.046176 0 1 sctp 1500 -------D 0 0.0 1.0 1 53 94 0 52
+ 5.046176 0 1 sctp 1500 -------D 0 0.0 1.0 1 54 95 0 53
+ 5.046176 0 1 sctp 1500 -------D 0 0.0 1.0 1 55 96 0 54
+ 5.046176 0 1 sctp 1500 -------D 0 0.0 1.0 1 56 97 0 55
- 5.070176 0 1 sctp 1500 -------D 0 0.0 1.0 1 51 92 0 50
r 5.094176 1 0 sctp 48 -------S 0 1.0 0.0 1 49 90 65535 65535
+ 5.094176 0 1 sctp 1500 -------D 0 0.0 1.0 1 57 98 0 56
+ 5.094176 0 1 sctp 1500 -------D 0 0.0 1.0 1 58 99 0 57
+ 5.094176 0 1 sctp 1500 -------D 0 0.0 1.0 1 59 100 0 58
- 5.094176 0 1 sctp 1500 -------D 0 0.0 1.0 1 52 93 0 51
- 5.118176 0 1 sctp 1500 -------D 0 0.0 1.0 1 53 94 0 52
- 5.142176 0 1 sctp 1500 -------D 0 0.0 1.0 1 54 95 0 53
- 5.166176 0 1 sctp 1500 -------D 0 0.0 1.0 1 55 96 0 54
- 5.190176 0 1 sctp 1500 -------D 0 0.0 1.0 1 56 97 0 55
- 5.214176 0 1 sctp 1500 -------D 0 0.0 1.0 1 57 98 0 56
- 5.238176 0 1 sctp 1500 -------D 0 0.0 1.0 1 58 99 0 57
- 5.262176 0 1 sctp 1500 -------D 0 0.0 1.0 1 59 100 0 58
r 5.270176 0 1 sctp 1500 -------D 0 0.0 1.0 1 50 91 0 49
r 5.294176 0 1 sctp 1500 -------D 0 0.0 1.0 1 51 92 0 50
+ 5.294176 1 0 sctp 48 -------S 0 1.0 0.0 1 51 101 65535 65535
- 5.294176 1 0 sctp 48 -------S 0 1.0 0.0 1 51 101 65535 65535
r 5.318176 0 1 sctp 1500 -------D 0 0.0 1.0 1 52 93 0 51
r 5.342176 0 1 sctp 1500 -------D 0 0.0 1.0 1 53 94 0 52
+ 5.342176 1 0 sctp 48 -------S 0 1.0 0.0 1 53 102 65535 65535
- 5.342176 1 0 sctp 48 -------S 0 1.0 0.0 1 53 102 65535 65535
r 5.366176 0 1 sctp 1500 -------D 0 0.0 1.0 1 54 95 0 53
r 5.390176 0 1 sctp 1500 -------D 0 0.0 1.0 1 55 96 0 54
+ 5.390176 1 0 sctp 48 -------S 0 1.0 0.0 1 55 103 65535 65535
- 5.390176 1 0 sctp 48 -------S 0 1.0 0.0 1 55 103 65535 65535
r 5.414176 0 1 sctp 1500 -------D 0 0.0 1.0 1 56 97 0 55
r 5.438176 0 1 sctp 1500 -------D 0 0.0 1.0 1 57 98 0 56
+ 5.438176 1 0 sctp 48 -------S 0 1.0 0.0 1 57 104 65535 65535
- 5.438176 1 0 sctp 48 -------S 0 1.0 0.0 1 57 104 65535 65535
r 5.462176 0 1 sctp 1500 -------D 0 0.0 1.0 1 58 99 0 57
r 5.486176 0 1 sctp 1500 -------D 0 0.0 1.0 1 59 100 0 58
+ 5.486176 1 0 sctp 48 -------S 0 1.0 0.0 1 59 105 65535 65535
- 5.486176 1 0 sctp 48 -------S 0 1.0 0.0 1 59 105 65535 65535
r 5.494944 1 0 sctp 48 -------S 0 1.0 0.0 1 51 101 65535 65535
+ 5.494944 0 1 sctp 1500 -------D 0 0.0 1.0 1 60 106 0 59
- 5.494944 0 1 sctp 1500 -------D 0 0.0 1.0 1 60 106 0 59
+ 5.494944 0 1 sctp 1500 -------D 0 0.0 1.0 1 61 107 0 60
- 5.518944 0 1 sctp 1500 -------D 0 0.0 1.0 1 61 107 0 60
r 5.542944 1 0 sctp 48 -------S 0 1.0 0.0 1 53 102 65535 65535
+ 5.542944 0 1 sctp 1500 -------D 0 0.0 1.0 1 62 108 0 61
+ 5.542944 0 1 sctp 1500 -------D 0 0.0 1.0 1 63 109 0 62
- 5.542944 0 1 sctp 1500 -------D 0 0.0 1.0 1 62 108 0 61
- 5.566944 0 1 sctp 1500 -------D 0 0.0 1.0 1 63 109 0 62
r 5.590944 1 0 sctp 48 -------S 0 1.0 0.0 1 55 103 65535 65535
+ 5.590944 0 1 sctp 1500 -------D 0 0.0 1.0 1 64 110 0 63
+ 5.590944 0 1 sctp 1500 -------D 0 0.0 1.0 1 65 111 0 64
- 5.590944 0 1 sctp 1500 -------D 0 0.0 1.0 1 64 110 0 63
- 5.614944 0 1 sctp 1500 -------D 0 0.0 1.0 1 65 111 0 64
r 5.638944 1 0 sctp 48 -------S 0 1.0 0.0 1 57 104 65535 65535
+ 5.638944 0 1 sctp 1500 -------D 0 0.0 1.0 1 66 112 0 65
+ 5.638944 0 1 sctp 1500 -------D 0 0.0 1.0 1 67 113 0 66
- 5.638944 0 1 sctp 1500 -------D 0 0.0 1.0 1 66 112 0 65
- 5.662944 0 1 sctp 1500 -------D 0 0.0 1.0 1 67 113 0 66
r 5.686944 1 0 sctp 48 -------S 0 1.0 0.0 1 59 105 65535 65535
+ 5.686944 0 1 sctp 1500 -------D 0 0.0 1.0 1 68 114 0 67
+ 5.686944 0 1 sctp 1500 -------D 0 0.0 1.0 1 69 115 0 68
+ 5.686944 0 1 sctp 1500 -------D 0 0.0 1.0 1 70 116 0 69
- 5.686944 0 1 sctp 1500 -------D 0 0.0 1.0 1 68 114 0 67
- 5.710944 0 1 sctp 1500 -------D 0 0.0 1.0 1 69 115 0 68
r 5.718944 0 1 sctp 1500 -------D 0 0.0 1.0 1 60 106 0 59
- 5.734944 0 1 sctp 1500 -------D 0 0.0 1.0 1 70 116 0 69
r 5.742944 0 1 sctp 1500 -------D 0 0.0 1.0 1 61 107 0 60
+ 5.742944 1 0 sctp 48 -------S 0 1.0 0.0 1 61 117 65535 65535
- 5.742944 1 0 sctp 48 -------S 0 1.0 0.0 1 61 117 65535 65535
r 5.766944 0 1 sctp 1500 -------D 0 0.0 1.0 1 62 108 0 61
r 5.790944 0 1 sctp 1500 -------D 0 0.0 1.0 1 63 109 0 62
+ 5.790944 1 0 sctp 48 -------S 0 1.0 0.0 1 63 118 65535 65535
- 5.790944 1 0 sctp 48 -------S 0 1.0 0.0 1 63 118 65535 65535
r 5.814944 0 1 sctp 1500 -------D 0 0.0 1.0 1 64 110 0 63
r 5.838944 0 1 sctp 1500 -------D 0 0.0 1.0 1 65 111 0 64
+ 5.838944 1 0 sctp 48 -------S 0 1.0 0.0 1 65 119 65535 65535
- 5.838944 1 0 sctp 48 -------S 0 1.0 0.0 1 65 119 65535 65535
r 5.862944 0 1 sctp 1500 -------D 0 0.0 1.0 1 66 112 0 65
r 5.886944 0 1 sctp 1500 -------D 0 0.0 1.0 1 67 113 0 66
+ 5.886944 1 0 sctp 48 -------S 0 1.0 0.0 1 67 120 65535 65535
- 5.886944 1 0 sctp 48 -------S 0 1.0 0.0 1 67 120 65535 65535
r 5.910944 0 1 sctp 1500 -------D 0 0.0 1.0 1 68 114 0 67
r 5.934944 0 1 sctp 1500 -------D 0 0.0 1.0 1 69 115 0 68
+ 5.934944 1 0 sctp 48 -------S 0 1.0 0.0 1 69 121 65535 65535
- 5.934944 1 0 sctp 48 -------S 0 1.0 0.0 1 69 121 65535 65535
r 5.943712 1 0 sctp 48 -------S 0 1.0 0.0 1 61 117 65535 65535
+ 5.943712 0 1 sctp 1500 -------D 0 0.0 1.0 1 71 122 0 70
- 5.943712 0 1 sctp 1500 -------D 0 0.0 1.0 1 71 122 0 70
+ 5.943712 0 1 sctp 1500 -------D 0 0.0 1.0 1 72 123 0 71
r 5.958944 0 1 sctp 1500 -------D 0 0.0 1.0 1 70 116 0 69
- 5.967712 0 1 sctp 1500 -------D 0 0.0 1.0 1 72 123 0 71
r 5.991712 1 0 sctp 48 -------S 0 1.0 0.0 1 63 118 65535 65535
+ 5.991712 0 1 sctp 1500 -------D 0 0.0 1.0 1 73 124 0 72
+ 5.991712 0 1 sctp 1500 -------D 0 0.0 1.0 1 74 125 0 73
- 5.991712 0 1 sctp 1500 -------D 0 0.0 1.0 1 73 124 0 72
