+ 0 1 4 sctp 56 -------I 0 1.0 4.0 1 -1 4 65535 65535
- 0 1 4 sctp 56 -------I 0 1.0 4.0 1 -1 4 65535 65535
r 0.030045 1 4 sctp 56 -------I 0 1.0 4.0 1 -1 4 65535 65535
+ 0.030045 4 1 sctp 56 -------I 0 4.0 1.0 1 -1 5 65535 65535
- 0.030045 4 1 sctp 56 -------I 0 4.0 1.0 1 -1 5 65535 65535
r 0.06009 4 1 sctp 56 -------I 0 4.0 1.0 1 -1 5 65535 65535
+ 0.06009 1 4 sctp 36 -------I 0 1.0 4.0 1 -1 6 65535 65535
- 0.06009 1 4 sctp 36 -------I 0 1.0 4.0 1 -1 6 65535 65535
r 0.090118 1 4 sctp 36 -------I 0 1.0 4.0 1 -1 6 65535 65535
+ 0.090118 4 1 sctp 36 -------I 0 4.0 1.0 1 -1 7 65535 65535
- 0.090118 4 1 sctp 36 -------I 0 4.0 1.0 1 -1 7 65535 65535
r 0.120147 4 1 sctp 36 -------I 0 4.0 1.0 1 -1 7 65535 65535
+ 0.120147 1 4 sctp 56 -------H 0 1.0 4.0 1 -1 8 65535 65535
- 0.120147 1 4 sctp 56 -------H 0 1.0 4.0 1 -1 8 65535 65535
+ 0.120147 2 5 sctp 56 -------H 0 2.0 5.0 1 -1 9 65535 65535
- 0.120147 2 5 sctp 56 -------H 0 2.0 5.0 1 -1 9 65535 65535
r 0.150192 1 4 sctp 56 -------H 0 1.0 4.0 1 -1 8 65535 65535
+ 0.150192 4 1 sctp 56 -------B 0 4.0 1.0 1 -1 10 65535 65535
- 0.150192 4 1 sctp 56 -------B 0 4.0 1.0 1 -1 10 65535 65535
r 0.165192 2 5 sctp 56 -------H 0 2.0 5.0 1 -1 9 65535 65535
+ 0.165192 5 2 sctp 56 -------B 0 5.0 2.0 1 -1 11 65535 65535
- 0.165192 5 2 sctp 56 -------B 0 5.0 2.0 1 -1 11 65535 65535
r 0.180237 4 1 sctp 56 -------B 0 4.0 1.0 1 -1 10 65535 65535
r 0.210237 5 2 sctp 56 -------B 0 5.0 2.0 1 -1 11 65535 65535
+ 0.210237 1 4 sctp 1500 -------D 0 1.0 4.0 1 1 12 0 0
- 0.210237 1 4 sctp 1500 -------D 0 1.0 4.0 1 1 12 0 0
+ 0.210237 1 4 sctp 1500 -------D 0 1.0 4.0 1 2 13 0 1
+ 0.210237 1 4 sctp 1500 -------D 0 1.0 4.0 1 3 14 0 2
+ 0.210237 2 5 sctp 1500 -------D 0 2.0 5.0 1 4 15 0 3
- 0.210237 2 5 sctp 1500 -------D 0 2.0 5.0 1 4 15 0 3
+ 0.210237 2 5 sctp 1500 -------D 0 2.0 5.0 1 5 16 0 4
+ 0.210237 2 5 sctp 1500 -------D 0 2.0 5.0 1 6 17 0 5
- 0.211437 1 4 sctp 1500 -------D 0 1.0 4.0 1 2 13 0 1
- 0.211437 2 5 sctp 1500 -------D 0 2.0 5.0 1 5 16 0 4
- 0.212637 1 4 sctp 1500 -------D 0 1.0 4.0 1 3 14 0 2
- 0.212637 2 5 sctp 1500 -------D 0 2.0 5.0 1 6 17 0 5
r 0.241437 1 4 sctp 1500 -------D 0 1.0 4.0 1 1 12 0 0
r 0.242637 1 4 sctp 1500 -------D 0 1.0 4.0 1 2 13 0 1
+ 0.242637 4 1 sctp 48 -------S 0 4.0 1.0 1 2 18 65535 65535
- 0.242637 4 1 sctp 48 -------S 0 4.0 1.0 1 2 18 65535 65535
r 0.243837 1 4 sctp 1500 -------D 0 1.0 4.0 1 3 14 0 2
r 0.256437 2 5 sctp 1500 -------D 0 2.0 5.0 1 4 15 0 3
+ 0.256437 5 2 sctp 48 -------S 0 5.0 2.0 1 4 19 65535 65535
- 0.256437 5 2 sctp 48 -------S 0 5.0 2.0 1 4 19 65535 65535
r 0.257637 2 5 sctp 1500 -------D 0 2.0 5.0 1 5 16 0 4
r 0.258837 2 5 sctp 1500 -------D 0 2.0 5.0 1 6 17 0 5
+ 0.258837 5 2 sctp 48 -------S 0 5.0 2.0 1 6 20 65535 65535
- 0.258837 5 2 sctp 48 -------S 0 5.0 2.0 1 6 20 65535 65535
r 0.272675 4 1 sctp 48 -------S 0 4.0 1.0 1 2 18 65535 65535
+ 0.272675 1 4 sctp 1500 -------D 0 1.0 4.0 1 7 21 0 6
- 0.272675 1 4 sctp 1500 -------D 0 1.0 4.0 1 7 21 0 6
+ 0.272675 1 4 sctp 1500 -------D 0 1.0 4.0 1 8 22 0 7
+ 0.272675 1 4 sctp 1500 -------D 0 1.0 4.0 1 9 23 0 8
- 0.273875 1 4 sctp 1500 -------D 0 1.0 4.0 1 8 22 0 7
- 0.275075 1 4 sctp 1500 -------D 0 1.0 4.0 1 9 23 0 8
r 0.301475 5 2 sctp 48 -------S 0 5.0 2.0 1 4 19 65535 65535
+ 0.301475 2 5 sctp 1500 -------D 0 2.0 5.0 1 10 24 0 9
- 0.301475 2 5 sctp 1500 -------D 0 2.0 5.0 1 10 24 0 9
+ 0.301475 2 5 sctp 1500 -------D 0 2.0 5.0 1 11 25 0 10
+ 0.301475 1 4 sctp 1500 -------D 0 1.0 4.0 1 12 26 0 11
- 0.301475 1 4 sctp 1500 -------D 0 1.0 4.0 1 12 26 0 11
+ 0.301475 1 4 sctp 1500 -------D 0 1.0 4.0 1 13 27 0 12
- 0.302675 2 5 sctp 1500 -------D 0 2.0 5.0 1 11 25 0 10
- 0.302675 1 4 sctp 1500 -------D 0 1.0 4.0 1 13 27 0 12
r 0.303875 5 2 sctp 48 -------S 0 5.0 2.0 1 6 20 65535 65535
+ 0.303875 2 5 sctp 1500 -------D 0 2.0 5.0 1 14 28 0 13
- 0.303875 2 5 sctp 1500 -------D 0 2.0 5.0 1 14 28 0 13
+ 0.303875 2 5 sctp 1500 -------D 0 2.0 5.0 1 15 29 0 14
+ 0.303875 2 5 sctp 1500 -------D 0 2.0 5.0 1 16 30 0 15
r 0.303875 1 4 sctp 1500 -------D 0 1.0 4.0 1 7 21 0 6
r 0.305075 1 4 sctp 1500 -------D 0 1.0 4.0 1 8 22 0 7
+ 0.305075 4 1 sctp 48 -------S 0 4.0 1.0 1 8 31 65535 65535
- 0.305075 4 1 sctp 48 -------S 0 4.0 1.0 1 8 31 65535 65535
- 0.305075 2 5 sctp 1500 -------D 0 2.0 5.0 1 15 29 0 14
r 0.306275 1 4 sctp 1500 -------D 0 1.0 4.0 1 9 23 0 8
- 0.306275 2 5 sctp 1500 -------D 0 2.0 5.0 1 16 30 0 15
r 0.332675 1 4 sctp 1500 -------D 0 1.0 4.0 1 12 26 0 11
+ 0.332675 4 1 sctp 52 -------S 0 4.0 1.0 1 9 32 65535 65535
- 0.332675 4 1 sctp 52 -------S 0 4.0 1.0 1 9 32 65535 65535
r 0.333875 1 4 sctp 1500 -------D 0 1.0 4.0 1 13 27 0 12
r 0.335114 4 1 sctp 48 -------S 0 4.0 1.0 1 8 31 65535 65535
+ 0.335114 1 4 sctp 1500 -------D 0 1.0 4.0 1 17 33 0 16
- 0.335114 1 4 sctp 1500 -------D 0 1.0 4.0 1 17 33 0 16
+ 0.335114 1 4 sctp 1500 -------D 0 1.0 4.0 1 18 34 0 17
+ 0.335114 1 4 sctp 1500 -------D 0 1.0 4.0 1 19 35 0 18
- 0.336314 1 4 sctp 1500 -------D 0 1.0 4.0 1 18 34 0 17
- 0.337514 1 4 sctp 1500 -------D 0 1.0 4.0 1 19 35 0 18
r 0.347675 2 5 sctp 1500 -------D 0 2.0 5.0 1 10 24 0 9
+ 0.347675 5 2 sctp 52 -------S 0 5.0 2.0 1 10 36 65535 65535
- 0.347675 5 2 sctp 52 -------S 0 5.0 2.0 1 10 36 65535 65535
r 0.348875 2 5 sctp 1500 -------D 0 2.0 5.0 1 11 25 0 10
r 0.350075 2 5 sctp 1500 -------D 0 2.0 5.0 1 14 28 0 13
+ 0.350075 5 2 sctp 48 -------S 0 5.0 2.0 1 14 37 65535 65535
- 0.350075 5 2 sctp 48 -------S 0 5.0 2.0 1 14 37 65535 65535
r 0.351275 2 5 sctp 1500 -------D 0 2.0 5.0 1 15 29 0 14
r 0.352475 2 5 sctp 1500 -------D 0 2.0 5.0 1 16 30 0 15
+ 0.352475 5 2 sctp 48 -------S 0 5.0 2.0 1 16 38 65535 65535
- 0.352475 5 2 sctp 48 -------S 0 5.0 2.0 1 16 38 65535 65535
r 0.362717 4 1 sctp 52 -------S 0 4.0 1.0 1 9 32 65535 65535
d 0.362717 1 4 sctp 1500 -------D 0 1.0 4.0 1 20 39 0 19
d 0.362717 1 4 sctp 1500 -------D 0 1.0 4.0 1 21 40 0 20
d 0.362717 1 4 sctp 1500 -------D 0 1.0 4.0 1 22 41 0 21
r 0.366314 1 4 sctp 1500 -------D 0 1.0 4.0 1 17 33 0 16
r 0.367514 1 4 sctp 1500 -------D 0 1.0 4.0 1 18 34 0 17
+ 0.367514 4 1 sctp 48 -------S 0 4.0 1.0 1 18 42 65535 65535
- 0.367514 4 1 sctp 48 -------S 0 4.0 1.0 1 18 42 65535 65535
r 0.368714 1 4 sctp 1500 -------D 0 1.0 4.0 1 19 35 0 18
r 0.392717 5 2 sctp 52 -------S 0 5.0 2.0 1 10 36 65535 65535
+ 0.392717 2 5 sctp 1500 -------D 0 2.0 5.0 1 23 43 0 22
- 0.392717 2 5 sctp 1500 -------D 0 2.0 5.0 1 23 43 0 22
+ 0.392717 2 5 sctp 1500 -------D 0 2.0 5.0 1 24 44 0 23
+ 0.392717 1 4 sctp 1500 -------D 0 1.0 4.0 1 25 45 0 24
- 0.392717 1 4 sctp 1500 -------D 0 1.0 4.0 1 25 45 0 24
+ 0.392717 1 4 sctp 1500 -------D 0 1.0 4.0 1 26 46 0 25
- 0.393917 2 5 sctp 1500 -------D 0 2.0 5.0 1 24 44 0 23
- 0.393917 1 4 sctp 1500 -------D 0 1.0 4.0 1 26 46 0 25
r 0.395114 5 2 sctp 48 -------S 0 5.0 2.0 1 14 37 65535 65535
+ 0.395114 2 5 sctp 1500 -------D 0 2.0 5.0 1 27 47 0 26
+ 0.395114 2 5 sctp 1500 -------D 0 2.0 5.0 1 28 48 0 27
+ 0.395114 2 5 sctp 1500 -------D 0 2.0 5.0 1 29 49 0 28
- 0.395117 2 5 sctp 1500 -------D 0 2.0 5.0 1 27 47 0 26
- 0.396317 2 5 sctp 1500 -------D 0 2.0 5.0 1 28 48 0 27
r 0.397514 5 2 sctp 48 -------S 0 5.0 2.0 1 16 38 65535 65535
+ 0.397514 2 5 sctp 1500 -------D 0 2.0 5.0 1 30 50 0 29
+ 0.397514 2 5 sctp 1500 -------D 0 2.0 5.0 1 31 51 0 30
+ 0.397514 2 5 sctp 1500 -------D 0 2.0 5.0 1 32 52 0 31
- 0.397517 2 5 sctp 1500 -------D 0 2.0 5.0 1 29 49 0 28
r 0.397552 4 1 sctp 48 -------S 0 4.0 1.0 1 18 42 65535 65535
+ 0.397552 1 4 sctp 1500 -------D 0 1.0 4.0 1 33 53 0 32
- 0.397552 1 4 sctp 1500 -------D 0 1.0 4.0 1 33 53 0 32
+ 0.397552 1 4 sctp 1500 -------D 0 1.0 4.0 1 34 54 0 33
+ 0.397552 1 4 sctp 1500 -------D 0 1.0 4.0 1 35 55 0 34
- 0.398717 2 5 sctp 1500 -------D 0 2.0 5.0 1 30 50 0 29
- 0.398752 1 4 sctp 1500 -------D 0 1.0 4.0 1 34 54 0 33
- 0.399917 2 5 sctp 1500 -------D 0 2.0 5.0 1 31 51 0 30
- 0.399952 1 4 sctp 1500 -------D 0 1.0 4.0 1 35 55 0 34
- 0.401117 2 5 sctp 1500 -------D 0 2.0 5.0 1 32 52 0 31
r 0.423917 1 4 sctp 1500 -------D 0 1.0 4.0 1 25 45 0 24
+ 0.423917 4 1 sctp 52 -------S 0 4.0 1.0 1 19 56 65535 65535
- 0.423917 4 1 sctp 52 -------S 0 4.0 1.0 1 19 56 65535 65535
r 0.425117 1 4 sctp 1500 -------D 0 1.0 4.0 1 26 46 0 25
r 0.428752 1 4 sctp 1500 -------D 0 1.0 4.0 1 33 53 0 32
+ 0.428752 4 1 sctp 56 -------S 0 4.0 1.0 1 19 57 65535 65535
- 0.428752 4 1 sctp 56 -------S 0 4.0 1.0 1 19 57 65535 65535
r 0.429952 1 4 sctp 1500 -------D 0 1.0 4.0 1 34 54 0 33
r 0.431152 1 4 sctp 1500 -------D 0 1.0 4.0 1 35 55 0 34
+ 0.431152 4 1 sctp 56 -------S 0 4.0 1.0 1 19 58 65535 65535
- 0.431152 4 1 sctp 56 -------S 0 4.0 1.0 1 19 58 65535 65535
r 0.438917 2 5 sctp 1500 -------D 0 2.0 5.0 1 23 43 0 22
r 0.440117 2 5 sctp 1500 -------D 0 2.0 5.0 1 24 44 0 23
+ 0.440117 5 2 sctp 56 -------S 0 5.0 2.0 1 19 59 65535 65535
- 0.440117 5 2 sctp 56 -------S 0 5.0 2.0 1 19 59 65535 65535
r 0.441317 2 5 sctp 1500 -------D 0 2.0 5.0 1 27 47 0 26
r 0.442517 2 5 sctp 1500 -------D 0 2.0 5.0 1 28 48 0 27
+ 0.442517 5 2 sctp 56 -------S 0 5.0 2.0 1 19 60 65535 65535
- 0.442517 5 2 sctp 56 -------S 0 5.0 2.0 1 19 60 65535 65535
r 0.443717 2 5 sctp 1500 -------D 0 2.0 5.0 1 29 49 0 28
r 0.444917 2 5 sctp 1500 -------D 0 2.0 5.0 1 30 50 0 29
+ 0.444917 5 2 sctp 56 -------S 0 5.0 2.0 1 19 61 65535 65535
- 0.444917 5 2 sctp 56 -------S 0 5.0 2.0 1 19 61 65535 65535
r 0.446117 2 5 sctp 1500 -------D 0 2.0 5.0 1 31 51 0 30
r 0.447317 2 5 sctp 1500 -------D 0 2.0 5.0 1 32 52 0 31
+ 0.447317 5 2 sctp 52 -------S 0 5.0 2.0 1 19 62 65535 65535
- 0.447317 5 2 sctp 52 -------S 0 5.0 2.0 1 19 62 65535 65535
r 0.453958 4 1 sctp 52 -------S 0 4.0 1.0 1 19 56 65535 65535
+ 0.453958 1 4 sctp 1500 -------D 0 1.0 4.0 1 36 63 0 35
- 0.453958 1 4 sctp 1500 -------D 0 1.0 4.0 1 36 63 0 35
+ 0.453958 1 4 sctp 1500 -------D 0 1.0 4.0 1 37 64 0 36
+ 0.453958 1 4 sctp 1500 -------D 0 1.0 4.0 1 38 65 0 37
- 0.455158 1 4 sctp 1500 -------D 0 1.0 4.0 1 37 64 0 36
- 0.456358 1 4 sctp 1500 -------D 0 1.0 4.0 1 38 65 0 37
r 0.458797 4 1 sctp 56 -------S 0 4.0 1.0 1 19 57 65535 65535
r 0.461197 4 1 sctp 56 -------S 0 4.0 1.0 1 19 58 65535 65535
r 0.485158 1 4 sctp 1500 -------D 0 1.0 4.0 1 36 63 0 35
r 0.485162 5 2 sctp 56 -------S 0 5.0 2.0 1 19 59 65535 65535
+ 0.485162 2 5 sctp 1500 -------D 0 2.0 5.0 1 20 66 0 19
- 0.485162 2 5 sctp 1500 -------D 0 2.0 5.0 1 20 66 0 19
+ 0.485162 2 5 sctp 1500 -------D 0 2.0 5.0 1 21 67 0 20
+ 0.485162 2 5 sctp 1500 -------D 0 2.0 5.0 1 22 68 0 21
+ 0.485162 1 4 sctp 1500 -------D 0 1.0 4.0 1 39 69 0 38
- 0.485162 1 4 sctp 1500 -------D 0 1.0 4.0 1 39 69 0 38
+ 0.485162 1 4 sctp 1500 -------D 0 1.0 4.0 1 40 70 0 39
r 0.486358 1 4 sctp 1500 -------D 0 1.0 4.0 1 37 64 0 36
+ 0.486358 4 1 sctp 52 -------S 0 4.0 1.0 1 19 71 65535 65535
- 0.486358 4 1 sctp 52 -------S 0 4.0 1.0 1 19 71 65535 65535
- 0.486362 2 5 sctp 1500 -------D 0 2.0 5.0 1 21 67 0 20
- 0.486362 1 4 sctp 1500 -------D 0 1.0 4.0 1 40 70 0 39
r 0.487558 1 4 sctp 1500 -------D 0 1.0 4.0 1 38 65 0 37
r 0.487562 5 2 sctp 56 -------S 0 5.0 2.0 1 19 60 65535 65535
+ 0.487562 2 5 sctp 1500 -------D 0 2.0 5.0 1 41 72 0 40
+ 0.487562 2 5 sctp 1500 -------D 0 2.0 5.0 1 42 73 0 41
+ 0.487562 2 5 sctp 1500 -------D 0 2.0 5.0 1 43 74 0 42
- 0.487562 2 5 sctp 1500 -------D 0 2.0 5.0 1 22 68 0 21
- 0.488762 2 5 sctp 1500 -------D 0 2.0 5.0 1 41 72 0 40
r 0.489962 5 2 sctp 56 -------S 0 5.0 2.0 1 19 61 65535 65535
+ 0.489962 2 5 sctp 1500 -------D 0 2.0 5.0 1 44 75 0 43
+ 0.489962 2 5 sctp 1500 -------D 0 2.0 5.0 1 45 76 0 44
+ 0.489962 2 5 sctp 1500 -------D 0 2.0 5.0 1 46 77 0 45
- 0.489962 2 5 sctp 1500 -------D 0 2.0 5.0 1 42 73 0 41
- 0.491162 2 5 sctp 1500 -------D 0 2.0 5.0 1 43 74 0 42
r 0.492358 5 2 sctp 52 -------S 0 5.0 2.0 1 19 62 65535 65535
+ 0.492358 2 5 sctp 1500 -------D 0 2.0 5.0 1 47 78 0 46
+ 0.492358 2 5 sctp 1500 -------D 0 2.0 5.0 1 48 79 0 47
- 0.492362 2 5 sctp 1500 -------D 0 2.0 5.0 1 44 75 0 43
- 0.493562 2 5 sctp 1500 -------D 0 2.0 5.0 1 45 76 0 44
- 0.494762 2 5 sctp 1500 -------D 0 2.0 5.0 1 46 77 0 45
- 0.495962 2 5 sctp 1500 -------D 0 2.0 5.0 1 47 78 0 46
- 0.497162 2 5 sctp 1500 -------D 0 2.0 5.0 1 48 79 0 47
r 0.516362 1 4 sctp 1500 -------D 0 1.0 4.0 1 39 69 0 38
+ 0.516362 4 1 sctp 52 -------S 0 4.0 1.0 1 19 80 65535 65535
- 0.516362 4 1 sctp 52 -------S 0 4.0 1.0 1 19 80 65535 65535
r 0.5164 4 1 sctp 52 -------S 0 4.0 1.0 1 19 71 65535 65535
+ 0.5164 1 4 sctp 1500 -------D 0 1.0 4.0 1 49 81 0 48
- 0.5164 1 4 sctp 1500 -------D 0 1.0 4.0 1 49 81 0 48
+ 0.5164 1 4 sctp 1500 -------D 0 1.0 4.0 1 50 82 0 49
+ 0.5164 1 4 sctp 1500 -------D 0 1.0 4.0 1 51 83 0 50
r 0.517562 1 4 sctp 1500 -------D 0 1.0 4.0 1 40 70 0 39
- 0.5176 1 4 sctp 1500 -------D 0 1.0 4.0 1 50 82 0 49
- 0.5188 1 4 sctp 1500 -------D 0 1.0 4.0 1 51 83 0 50
r 0.531362 2 5 sctp 1500 -------D 0 2.0 5.0 1 20 66 0 19
+ 0.531362 5 2 sctp 52 -------S 0 5.0 2.0 1 20 84 65535 65535
- 0.531362 5 2 sctp 52 -------S 0 5.0 2.0 1 20 84 65535 65535
r 0.532562 2 5 sctp 1500 -------D 0 2.0 5.0 1 21 67 0 20
r 0.533762 2 5 sctp 1500 -------D 0 2.0 5.0 1 22 68 0 21
+ 0.533762 5 2 sctp 48 -------S 0 5.0 2.0 1 40 85 65535 65535
- 0.533762 5 2 sctp 48 -------S 0 5.0 2.0 1 40 85 65535 65535
r 0.534962 2 5 sctp 1500 -------D 0 2.0 5.0 1 41 72 0 40
r 0.536162 2 5 sctp 1500 -------D 0 2.0 5.0 1 42 73 0 41
+ 0.536162 5 2 sctp 48 -------S 0 5.0 2.0 1 42 86 65535 65535
- 0.536162 5 2 sctp 48 -------S 0 5.0 2.0 1 42 86 65535 65535
r 0.537362 2 5 sctp 1500 -------D 0 2.0 5.0 1 43 74 0 42
r 0.538562 2 5 sctp 1500 -------D 0 2.0 5.0 1 44 75 0 43
+ 0.538562 5 2 sctp 48 -------S 0 5.0 2.0 1 44 87 65535 65535
- 0.538562 5 2 sctp 48 -------S 0 5.0 2.0 1 44 87 65535 65535
r 0.539762 2 5 sctp 1500 -------D 0 2.0 5.0 1 45 76 0 44
r 0.540962 2 5 sctp 1500 -------D 0 2.0 5.0 1 46 77 0 45
+ 0.540962 5 2 sctp 48 -------S 0 5.0 2.0 1 46 88 65535 65535
- 0.540962 5 2 sctp 48 -------S 0 5.0 2.0 1 46 88 65535 65535
r 0.542162 2 5 sctp 1500 -------D 0 2.0 5.0 1 47 78 0 46
r 0.543362 2 5 sctp 1500 -------D 0 2.0 5.0 1 48 79 0 47
+ 0.543362 5 2 sctp 48 -------S 0 5.0 2.0 1 48 89 65535 65535
- 0.543362 5 2 sctp 48 -------S 0 5.0 2.0 1 48 89 65535 65535
r 0.546403 4 1 sctp 52 -------S 0 4.0 1.0 1 19 80 65535 65535
+ 0.546403 1 4 sctp 1500 -------D 0 1.0 4.0 1 52 90 0 51
- 0.546403 1 4 sctp 1500 -------D 0 1.0 4.0 1 52 90 0 51
+ 0.546403 1 4 sctp 1500 -------D 0 1.0 4.0 1 53 91 0 52
r 0.5476 1 4 sctp 1500 -------D 0 1.0 4.0 1 49 81 0 48
- 0.547603 1 4 sctp 1500 -------D 0 1.0 4.0 1 53 91 0 52
r 0.5488 1 4 sctp 1500 -------D 0 1.0 4.0 1 50 82 0 49
+ 0.5488 4 1 sctp 48 -------S 0 4.0 1.0 1 50 92 65535 65535
- 0.5488 4 1 sctp 48 -------S 0 4.0 1.0 1 50 92 65535 65535
r 0.55 1 4 sctp 1500 -------D 0 1.0 4.0 1 51 83 0 50
r 0.576403 5 2 sctp 52 -------S 0 5.0 2.0 1 20 84 65535 65535
+ 0.576403 2 5 sctp 1500 -------D 0 2.0 5.0 1 54 93 0 53
- 0.576403 2 5 sctp 1500 -------D 0 2.0 5.0 1 54 93 0 53
+ 0.576403 1 4 sctp 1500 -------D 0 1.0 4.0 1 55 94 0 54
- 0.576403 1 4 sctp 1500 -------D 0 1.0 4.0 1 55 94 0 54
r 0.577603 1 4 sctp 1500 -------D 0 1.0 4.0 1 52 90 0 51
+ 0.577603 4 1 sctp 48 -------S 0 4.0 1.0 1 52 95 65535 65535
- 0.577603 4 1 sctp 48 -------S 0 4.0 1.0 1 52 95 65535 65535
r 0.5788 5 2 sctp 48 -------S 0 5.0 2.0 1 40 85 65535 65535
+ 0.5788 2 5 sctp 1500 -------D 0 2.0 5.0 1 56 96 0 55
- 0.5788 2 5 sctp 1500 -------D 0 2.0 5.0 1 56 96 0 55
+ 0.5788 2 5 sctp 1500 -------D 0 2.0 5.0 1 57 97 0 56
r 0.578803 1 4 sctp 1500 -------D 0 1.0 4.0 1 53 91 0 52
r 0.578838 4 1 sctp 48 -------S 0 4.0 1.0 1 50 92 65535 65535
+ 0.578838 1 4 sctp 1500 -------D 0 1.0 4.0 1 58 98 0 57
- 0.578838 1 4 sctp 1500 -------D 0 1.0 4.0 1 58 98 0 57
+ 0.578838 1 4 sctp 1500 -------D 0 1.0 4.0 1 59 99 0 58
+ 0.578838 2 5 sctp 1500 -------D 0 2.0 5.0 1 60 100 0 59
+ 0.578838 2 5 sctp 1500 -------D 0 2.0 5.0 1 61 101 0 60
+ 0.578838 2 5 sctp 1500 -------D 0 2.0 5.0 1 62 102 0 61
+ 0.578838 2 5 sctp 1500 -------D 0 2.0 5.0 1 63 103 0 62
- 0.58 2 5 sctp 1500 -------D 0 2.0 5.0 1 57 97 0 56
- 0.580038 1 4 sctp 1500 -------D 0 1.0 4.0 1 59 99 0 58
r 0.5812 5 2 sctp 48 -------S 0 5.0 2.0 1 42 86 65535 65535
+ 0.5812 2 5 sctp 1500 -------D 0 2.0 5.0 1 64 104 0 63
+ 0.5812 2 5 sctp 1500 -------D 0 2.0 5.0 1 65 105 0 64
+ 0.5812 2 5 sctp 1500 -------D 0 2.0 5.0 1 66 106 0 65
+ 0.5812 2 5 sctp 1500 -------D 0 2.0 5.0 1 67 107 0 66
- 0.5812 2 5 sctp 1500 -------D 0 2.0 5.0 1 60 100 0 59
- 0.5824 2 5 sctp 1500 -------D 0 2.0 5.0 1 61 101 0 60
r 0.5836 5 2 sctp 48 -------S 0 5.0 2.0 1 44 87 65535 65535
+ 0.5836 2 5 sctp 1500 -------D 0 2.0 5.0 1 68 108 0 67
- 0.5836 2 5 sctp 1500 -------D 0 2.0 5.0 1 62 102 0 61
- 0.5848 2 5 sctp 1500 -------D 0 2.0 5.0 1 63 103 0 62
r 0.586 5 2 sctp 48 -------S 0 5.0 2.0 1 46 88 65535 65535
- 0.586 2 5 sctp 1500 -------D 0 2.0 5.0 1 64 104 0 63
- 0.5872 2 5 sctp 1500 -------D 0 2.0 5.0 1 65 105 0 64
r 0.5884 5 2 sctp 48 -------S 0 5.0 2.0 1 48 89 65535 65535
- 0.5884 2 5 sctp 1500 -------D 0 2.0 5.0 1 66 106 0 65
- 0.5896 2 5 sctp 1500 -------D 0 2.0 5.0 1 67 107 0 66
- 0.5908 2 5 sctp 1500 -------D 0 2.0 5.0 1 68 108 0 67
r 0.607603 1 4 sctp 1500 -------D 0 1.0 4.0 1 55 94 0 54
+ 0.607603 4 1 sctp 52 -------S 0 4.0 1.0 1 53 109 65535 65535
- 0.607603 4 1 sctp 52 -------S 0 4.0 1.0 1 53 109 65535 65535
r 0.607642 4 1 sctp 48 -------S 0 4.0 1.0 1 52 95 65535 65535
+ 0.607642 1 4 sctp 1500 -------D 0 1.0 4.0 1 69 110 0 68
- 0.607642 1 4 sctp 1500 -------D 0 1.0 4.0 1 69 110 0 68
+ 0.607642 1 4 sctp 1500 -------D 0 1.0 4.0 1 70 111 0 69
+ 0.607642 1 4 sctp 1500 -------D 0 1.0 4.0 1 71 112 0 70
- 0.608842 1 4 sctp 1500 -------D 0 1.0 4.0 1 70 111 0 69
r 0.610038 1 4 sctp 1500 -------D 0 1.0 4.0 1 58 98 0 57
- 0.610042 1 4 sctp 1500 -------D 0 1.0 4.0 1 71 112 0 70
r 0.611238 1 4 sctp 1500 -------D 0 1.0 4.0 1 59 99 0 58
+ 0.611238 4 1 sctp 56 -------S 0 4.0 1.0 1 53 113 65535 65535
- 0.611238 4 1 sctp 56 -------S 0 4.0 1.0 1 53 113 65535 65535
r 0.622603 2 5 sctp 1500 -------D 0 2.0 5.0 1 54 93 0 53
r 0.625 2 5 sctp 1500 -------D 0 2.0 5.0 1 56 96 0 55
+ 0.625 5 2 sctp 52 -------S 0 5.0 2.0 1 56 114 65535 65535
- 0.625 5 2 sctp 52 -------S 0 5.0 2.0 1 56 114 65535 65535
r 0.6262 2 5 sctp 1500 -------D 0 2.0 5.0 1 57 97 0 56
r 0.6274 2 5 sctp 1500 -------D 0 2.0 5.0 1 60 100 0 59
+ 0.6274 5 2 sctp 48 -------S 0 5.0 2.0 1 60 115 65535 65535
- 0.6274 5 2 sctp 48 -------S 0 5.0 2.0 1 60 115 65535 65535
r 0.6286 2 5 sctp 1500 -------D 0 2.0 5.0 1 61 101 0 60
r 0.6298 2 5 sctp 1500 -------D 0 2.0 5.0 1 62 102 0 61
+ 0.6298 5 2 sctp 48 -------S 0 5.0 2.0 1 62 116 65535 65535
- 0.6298 5 2 sctp 48 -------S 0 5.0 2.0 1 62 116 65535 65535
r 0.631 2 5 sctp 1500 -------D 0 2.0 5.0 1 63 103 0 62
r 0.6322 2 5 sctp 1500 -------D 0 2.0 5.0 1 64 104 0 63
+ 0.6322 5 2 sctp 48 -------S 0 5.0 2.0 1 64 117 65535 65535
- 0.6322 5 2 sctp 48 -------S 0 5.0 2.0 1 64 117 65535 65535
r 0.6334 2 5 sctp 1500 -------D 0 2.0 5.0 1 65 105 0 64
r 0.6346 2 5 sctp 1500 -------D 0 2.0 5.0 1 66 106 0 65
+ 0.6346 5 2 sctp 48 -------S 0 5.0 2.0 1 66 118 65535 65535
- 0.6346 5 2 sctp 48 -------S 0 5.0 2.0 1 66 118 65535 65535
r 0.6358 2 5 sctp 1500 -------D 0 2.0 5.0 1 67 107 0 66
r 0.637 2 5 sctp 1500 -------D 0 2.0 5.0 1 68 108 0 67
+ 0.637 5 2 sctp 48 -------S 0 5.0 2.0 1 68 119 65535 65535
- 0.637 5 2 sctp 48 -------S 0 5.0 2.0 1 68 119 65535 65535
r 0.637645 4 1 sctp 52 -------S 0 4.0 1.0 1 53 109 65535 65535
+ 0.637645 1 4 sctp 1500 -------D 0 1.0 4.0 1 72 120 0 71
- 0.637645 1 4 sctp 1500 -------D 0 1.0 4.0 1 72 120 0 71
+ 0.637645 1 4 sctp 1500 -------D 0 1.0 4.0 1 73 121 0 72
r 0.638842 1 4 sctp 1500 -------D 0 1.0 4.0 1 69 110 0 68
- 0.638845 1 4 sctp 1500 -------D 0 1.0 4.0 1 73 121 0 72
r 0.640042 1 4 sctp 1500 -------D 0 1.0 4.0 1 70 111 0 69
+ 0.640042 4 1 sctp 48 -------S 0 4.0 1.0 1 70 122 65535 65535
- 0.640042 4 1 sctp 48 -------S 0 4.0 1.0 1 70 122 65535 65535
r 0.641242 1 4 sctp 1500 -------D 0 1.0 4.0 1 71 112 0 70
r 0.641283 4 1 sctp 56 -------S 0 4.0 1.0 1 53 113 65535 65535
+ 0.641283 1 4 sctp 1500 -------D 0 1.0 4.0 1 74 123 0 73
- 0.641283 1 4 sctp 1500 -------D 0 1.0 4.0 1 74 123 0 73
+ 0.641283 1 4 sctp 1500 -------D 0 1.0 4.0 1 75 124 0 74
- 0.642483 1 4 sctp 1500 -------D 0 1.0 4.0 1 75 124 0 74
r 0.668845 1 4 sctp 1500 -------D 0 1.0 4.0 1 72 120 0 71
+ 0.668845 4 1 sctp 48 -------S 0 4.0 1.0 1 72 125 65535 65535
- 0.668845 4 1 sctp 48 -------S 0 4.0 1.0 1 72 125 65535 65535
r 0.670042 5 2 sctp 52 -------S 0 5.0 2.0 1 56 114 65535 65535
+ 0.670042 2 5 sctp 1500 -------D 0 2.0 5.0 1 76 126 0 75
- 0.670042 2 5 sctp 1500 -------D 0 2.0 5.0 1 76 126 0 75
+ 0.670042 2 5 sctp 1500 -------D 0 2.0 5.0 1 77 127 0 76
r 0.670045 1 4 sctp 1500 -------D 0 1.0 4.0 1 73 121 0 72
r 0.67008 4 1 sctp 48 -------S 0 4.0 1.0 1 70 122 65535 65535
+ 0.67008 1 4 sctp 1500 -------D 0 1.0 4.0 1 78 128 0 77
- 0.67008 1 4 sctp 1500 -------D 0 1.0 4.0 1 78 128 0 77
+ 0.67008 1 4 sctp 1500 -------D 0 1.0 4.0 1 79 129 0 78
+ 0.67008 1 4 sctp 1500 -------D 0 1.0 4.0 1 80 130 0 79
+ 0.67008 2 5 sctp 1500 -------D 0 2.0 5.0 1 81 131 0 80
+ 0.67008 2 5 sctp 1500 -------D 0 2.0 5.0 1 82 132 0 81
+ 0.67008 2 5 sctp 1500 -------D 0 2.0 5.0 1 83 133 0 82
+ 0.67008 2 5 sctp 1500 -------D 0 2.0 5.0 1 84 134 0 83
- 0.671242 2 5 sctp 1500 -------D 0 2.0 5.0 1 77 127 0 76
- 0.67128 1 4 sctp 1500 -------D 0 1.0 4.0 1 79 129 0 78
r 0.672438 5 2 sctp 48 -------S 0 5.0 2.0 1 60 115 65535 65535
+ 0.672438 2 5 sctp 1500 -------D 0 2.0 5.0 1 85 135 0 84
+ 0.672438 2 5 sctp 1500 -------D 0 2.0 5.0 1 86 136 0 85
+ 0.672438 2 5 sctp 1500 -------D 0 2.0 5.0 1 87 137 0 86
+ 0.672438 2 5 sctp 1500 -------D 0 2.0 5.0 1 88 138 0 87
- 0.672442 2 5 sctp 1500 -------D 0 2.0 5.0 1 81 131 0 80
- 0.67248 1 4 sctp 1500 -------D 0 1.0 4.0 1 80 130 0 79
r 0.672483 1 4 sctp 1500 -------D 0 1.0 4.0 1 74 123 0 73
+ 0.672483 4 1 sctp 48 -------S 0 4.0 1.0 1 74 139 65535 65535
- 0.672483 4 1 sctp 48 -------S 0 4.0 1.0 1 74 139 65535 65535
- 0.673642 2 5 sctp 1500 -------D 0 2.0 5.0 1 82 132 0 81
r 0.673683 1 4 sctp 1500 -------D 0 1.0 4.0 1 75 124 0 74
r 0.674838 5 2 sctp 48 -------S 0 5.0 2.0 1 62 116 65535 65535
+ 0.674838 2 5 sctp 1500 -------D 0 2.0 5.0 1 89 140 0 88
+ 0.674838 2 5 sctp 1500 -------D 0 2.0 5.0 1 90 141 0 89
+ 0.674838 2 5 sctp 1500 -------D 0 2.0 5.0 1 91 142 0 90
- 0.674842 2 5 sctp 1500 -------D 0 2.0 5.0 1 83 133 0 82
- 0.676042 2 5 sctp 1500 -------D 0 2.0 5.0 1 84 134 0 83
r 0.677238 5 2 sctp 48 -------S 0 5.0 2.0 1 64 117 65535 65535
- 0.677242 2 5 sctp 1500 -------D 0 2.0 5.0 1 85 135 0 84
- 0.678442 2 5 sctp 1500 -------D 0 2.0 5.0 1 86 136 0 85
r 0.679638 5 2 sctp 48 -------S 0 5.0 2.0 1 66 118 65535 65535
- 0.679642 2 5 sctp 1500 -------D 0 2.0 5.0 1 87 137 0 86
- 0.680842 2 5 sctp 1500 -------D 0 2.0 5.0 1 88 138 0 87
r 0.682038 5 2 sctp 48 -------S 0 5.0 2.0 1 68 119 65535 65535
- 0.682042 2 5 sctp 1500 -------D 0 2.0 5.0 1 89 140 0 88
- 0.683242 2 5 sctp 1500 -------D 0 2.0 5.0 1 90 141 0 89
- 0.684442 2 5 sctp 1500 -------D 0 2.0 5.0 1 91 142 0 90
r 0.698883 4 1 sctp 48 -------S 0 4.0 1.0 1 72 125 65535 65535
+ 0.698883 1 4 sctp 1500 -------D 0 1.0 4.0 1 92 143 0 91
- 0.698883 1 4 sctp 1500 -------D 0 1.0 4.0 1 92 143 0 91
+ 0.698883 1 4 sctp 1500 -------D 0 1.0 4.0 1 93 144 0 92
- 0.700083 1 4 sctp 1500 -------D 0 1.0 4.0 1 93 144 0 92
r 0.70128 1 4 sctp 1500 -------D 0 1.0 4.0 1 78 128 0 77
+ 0.70128 4 1 sctp 52 -------S 0 4.0 1.0 1 75 145 65535 65535
- 0.70128 4 1 sctp 52 -------S 0 4.0 1.0 1 75 145 65535 65535
r 0.70248 1 4 sctp 1500 -------D 0 1.0 4.0 1 79 129 0 78
r 0.702522 4 1 sctp 48 -------S 0 4.0 1.0 1 74 139 65535 65535
+ 0.702522 1 4 sctp 1500 -------D 0 1.0 4.0 1 94 146 0 93
- 0.702522 1 4 sctp 1500 -------D 0 1.0 4.0 1 94 146 0 93
+ 0.702522 1 4 sctp 1500 -------D 0 1.0 4.0 1 95 147 0 94
r 0.70368 1 4 sctp 1500 -------D 0 1.0 4.0 1 80 130 0 79
+ 0.70368 4 1 sctp 52 -------S 0 4.0 1.0 1 75 148 65535 65535
- 0.70368 4 1 sctp 52 -------S 0 4.0 1.0 1 75 148 65535 65535
- 0.703722 1 4 sctp 1500 -------D 0 1.0 4.0 1 95 147 0 94
r 0.716242 2 5 sctp 1500 -------D 0 2.0 5.0 1 76 126 0 75
r 0.717442 2 5 sctp 1500 -------D 0 2.0 5.0 1 77 127 0 76
+ 0.717442 5 2 sctp 48 -------S 0 5.0 2.0 1 80 149 65535 65535
- 0.717442 5 2 sctp 48 -------S 0 5.0 2.0 1 80 149 65535 65535
r 0.718642 2 5 sctp 1500 -------D 0 2.0 5.0 1 81 131 0 80
r 0.719842 2 5 sctp 1500 -------D 0 2.0 5.0 1 82 132 0 81
+ 0.719842 5 2 sctp 48 -------S 0 5.0 2.0 1 82 150 65535 65535
- 0.719842 5 2 sctp 48 -------S 0 5.0 2.0 1 82 150 65535 65535
r 0.721042 2 5 sctp 1500 -------D 0 2.0 5.0 1 83 133 0 82
r 0.722242 2 5 sctp 1500 -------D 0 2.0 5.0 1 84 134 0 83
+ 0.722242 5 2 sctp 48 -------S 0 5.0 2.0 1 84 151 65535 65535
- 0.722242 5 2 sctp 48 -------S 0 5.0 2.0 1 84 151 65535 65535
r 0.723442 2 5 sctp 1500 -------D 0 2.0 5.0 1 85 135 0 84
r 0.724642 2 5 sctp 1500 -------D 0 2.0 5.0 1 86 136 0 85
+ 0.724642 5 2 sctp 48 -------S 0 5.0 2.0 1 86 152 65535 65535
- 0.724642 5 2 sctp 48 -------S 0 5.0 2.0 1 86 152 65535 65535
r 0.725842 2 5 sctp 1500 -------D 0 2.0 5.0 1 87 137 0 86
r 0.727042 2 5 sctp 1500 -------D 0 2.0 5.0 1 88 138 0 87
+ 0.727042 5 2 sctp 48 -------S 0 5.0 2.0 1 88 153 65535 65535
- 0.727042 5 2 sctp 48 -------S 0 5.0 2.0 1 88 153 65535 65535
r 0.728242 2 5 sctp 1500 -------D 0 2.0 5.0 1 89 140 0 88
r 0.729442 2 5 sctp 1500 -------D 0 2.0 5.0 1 90 141 0 89
+ 0.729442 5 2 sctp 48 -------S 0 5.0 2.0 1 90 154 65535 65535
- 0.729442 5 2 sctp 48 -------S 0 5.0 2.0 1 90 154 65535 65535
r 0.730083 1 4 sctp 1500 -------D 0 1.0 4.0 1 92 143 0 91
r 0.730642 2 5 sctp 1500 -------D 0 2.0 5.0 1 91 142 0 90
+ 0.730642 5 2 sctp 48 -------S 0 5.0 2.0 1 92 155 65535 65535
- 0.730642 5 2 sctp 48 -------S 0 5.0 2.0 1 92 155 65535 65535
r 0.731283 1 4 sctp 1500 -------D 0 1.0 4.0 1 93 144 0 92
r 0.731322 4 1 sctp 52 -------S 0 4.0 1.0 1 75 145 65535 65535
+ 0.731322 1 4 sctp 1500 -------D 0 1.0 4.0 1 96 156 0 95
- 0.731322 1 4 sctp 1500 -------D 0 1.0 4.0 1 96 156 0 95
+ 0.731322 1 4 sctp 1500 -------D 0 1.0 4.0 1 97 157 0 96
- 0.732522 1 4 sctp 1500 -------D 0 1.0 4.0 1 97 157 0 96
r 0.733722 1 4 sctp 1500 -------D 0 1.0 4.0 1 94 146 0 93
+ 0.733722 4 1 sctp 48 -------S 0 4.0 1.0 1 94 158 65535 65535
- 0.733722 4 1 sctp 48 -------S 0 4.0 1.0 1 94 158 65535 65535
r 0.733722 4 1 sctp 52 -------S 0 4.0 1.0 1 75 148 65535 65535
+ 0.733722 1 4 sctp 1500 -------D 0 1.0 4.0 1 98 159 0 97
+ 0.733722 1 4 sctp 1500 -------D 0 1.0 4.0 1 99 160 0 98
+ 0.733722 1 4 sctp 1500 -------D 0 1.0 4.0 1 100 161 0 99
- 0.733722 1 4 sctp 1500 -------D 0 1.0 4.0 1 98 159 0 97
r 0.734922 1 4 sctp 1500 -------D 0 1.0 4.0 1 95 147 0 94
- 0.734922 1 4 sctp 1500 -------D 0 1.0 4.0 1 99 160 0 98
- 0.736122 1 4 sctp 1500 -------D 0 1.0 4.0 1 100 161 0 99
r 0.76248 5 2 sctp 48 -------S 0 5.0 2.0 1 80 149 65535 65535
+ 0.76248 2 5 sctp 1500 -------D 0 2.0 5.0 1 101 162 0 100
- 0.76248 2 5 sctp 1500 -------D 0 2.0 5.0 1 101 162 0 100
+ 0.76248 2 5 sctp 1500 -------D 0 2.0 5.0 1 102 163 0 101
r 0.762522 1 4 sctp 1500 -------D 0 1.0 4.0 1 96 156 0 95
+ 0.762522 4 1 sctp 48 -------S 0 4.0 1.0 1 96 164 65535 65535
- 0.762522 4 1 sctp 48 -------S 0 4.0 1.0 1 96 164 65535 65535
- 0.76368 2 5 sctp 1500 -------D 0 2.0 5.0 1 102 163 0 101
r 0.763722 1 4 sctp 1500 -------D 0 1.0 4.0 1 97 157 0 96
r 0.76376 4 1 sctp 48 -------S 0 4.0 1.0 1 94 158 65535 65535
+ 0.76376 1 4 sctp 1500 -------D 0 1.0 4.0 1 103 165 0 102
- 0.76376 1 4 sctp 1500 -------D 0 1.0 4.0 1 103 165 0 102
+ 0.76376 1 4 sctp 1500 -------D 0 1.0 4.0 1 104 166 0 103
+ 0.76376 1 4 sctp 1500 -------D 0 1.0 4.0 1 105 167 0 104
+ 0.76376 2 5 sctp 1500 -------D 0 2.0 5.0 1 106 168 0 105
+ 0.76376 2 5 sctp 1500 -------D 0 2.0 5.0 1 107 169 0 106
+ 0.76376 2 5 sctp 1500 -------D 0 2.0 5.0 1 108 170 0 107
+ 0.76376 2 5 sctp 1500 -------D 0 2.0 5.0 1 109 171 0 108
r 0.76488 5 2 sctp 48 -------S 0 5.0 2.0 1 82 150 65535 65535
+ 0.76488 2 5 sctp 1500 -------D 0 2.0 5.0 1 110 172 0 109
+ 0.76488 2 5 sctp 1500 -------D 0 2.0 5.0 1 111 173 0 110
+ 0.76488 2 5 sctp 1500 -------D 0 2.0 5.0 1 112 174 0 111
+ 0.76488 2 5 sctp 1500 -------D 0 2.0 5.0 1 113 175 0 112
- 0.76488 2 5 sctp 1500 -------D 0 2.0 5.0 1 106 168 0 105
r 0.764922 1 4 sctp 1500 -------D 0 1.0 4.0 1 98 159 0 97
+ 0.764922 4 1 sctp 48 -------S 0 4.0 1.0 1 98 176 65535 65535
- 0.764922 4 1 sctp 48 -------S 0 4.0 1.0 1 98 176 65535 65535
- 0.76496 1 4 sctp 1500 -------D 0 1.0 4.0 1 104 166 0 103
- 0.76608 2 5 sctp 1500 -------D 0 2.0 5.0 1 107 169 0 106
r 0.766122 1 4 sctp 1500 -------D 0 1.0 4.0 1 99 160 0 98
- 0.76616 1 4 sctp 1500 -------D 0 1.0 4.0 1 105 167 0 104
r 0.76728 5 2 sctp 48 -------S 0 5.0 2.0 1 84 151 65535 65535
+ 0.76728 2 5 sctp 1500 -------D 0 2.0 5.0 1 114 177 0 113
+ 0.76728 2 5 sctp 1500 -------D 0 2.0 5.0 1 115 178 0 114
+ 0.76728 2 5 sctp 1500 -------D 0 2.0 5.0 1 116 179 0 115
+ 0.76728 2 5 sctp 1500 -------D 0 2.0 5.0 1 117 180 0 116
- 0.76728 2 5 sctp 1500 -------D 0 2.0 5.0 1 108 170 0 107
r 0.767322 1 4 sctp 1500 -------D 0 1.0 4.0 1 100 161 0 99
+ 0.767322 4 1 sctp 48 -------S 0 4.0 1.0 1 100 181 65535 65535
- 0.767322 4 1 sctp 48 -------S 0 4.0 1.0 1 100 181 65535 65535
- 0.76848 2 5 sctp 1500 -------D 0 2.0 5.0 1 109 171 0 108
r 0.76968 5 2 sctp 48 -------S 0 5.0 2.0 1 86 152 65535 65535
- 0.76968 2 5 sctp 1500 -------D 0 2.0 5.0 1 110 172 0 109
- 0.77088 2 5 sctp 1500 -------D 0 2.0 5.0 1 111 173 0 110
r 0.77208 5 2 sctp 48 -------S 0 5.0 2.0 1 88 153 65535 65535
- 0.77208 2 5 sctp 1500 -------D 0 2.0 5.0 1 112 174 0 111
- 0.77328 2 5 sctp 1500 -------D 0 2.0 5.0 1 113 175 0 112
r 0.77448 5 2 sctp 48 -------S 0 5.0 2.0 1 90 154 65535 65535
- 0.77448 2 5 sctp 1500 -------D 0 2.0 5.0 1 114 177 0 113
r 0.77568 5 2 sctp 48 -------S 0 5.0 2.0 1 92 155 65535 65535
- 0.77568 2 5 sctp 1500 -------D 0 2.0 5.0 1 115 178 0 114
- 0.77688 2 5 sctp 1500 -------D 0 2.0 5.0 1 116 179 0 115
- 0.77808 2 5 sctp 1500 -------D 0 2.0 5.0 1 117 180 0 116
r 0.79256 4 1 sctp 48 -------S 0 4.0 1.0 1 96 164 65535 65535
+ 0.79256 1 4 sctp 1500 -------D 0 1.0 4.0 1 118 182 0 117
- 0.79256 1 4 sctp 1500 -------D 0 1.0 4.0 1 118 182 0 117