+ 0.5 1 4 sctp 56 -------I 0 1.0 4.0 1 -1 4 65535 65535
- 0.5 1 4 sctp 56 -------I 0 1.0 4.0 1 -1 4 65535 65535
r 0.700896 1 4 sctp 56 -------I 0 1.0 4.0 1 -1 4 65535 65535
+ 0.700896 4 1 sctp 56 -------I 0 4.0 1.0 1 -1 5 65535 65535
- 0.700896 4 1 sctp 56 -------I 0 4.0 1.0 1 -1 5 65535 65535
r 0.901792 4 1 sctp 56 -------I 0 4.0 1.0 1 -1 5 65535 65535
+ 0.901792 1 4 sctp 36 -------I 0 1.0 4.0 1 -1 6 65535 65535
- 0.901792 1 4 sctp 36 -------I 0 1.0 4.0 1 -1 6 65535 65535
r 1.102368 1 4 sctp 36 -------I 0 1.0 4.0 1 -1 6 65535 65535
+ 1.102368 4 1 sctp 36 -------I 0 4.0 1.0 1 -1 7 65535 65535
- 1.102368 4 1 sctp 36 -------I 0 4.0 1.0 1 -1 7 65535 65535
r 1.302944 4 1 sctp 36 -------I 0 4.0 1.0 1 -1 7 65535 65535
+ 1.302944 1 4 sctp 56 -------H 0 1.0 4.0 1 -1 8 65535 65535
- 1.302944 1 4 sctp 56 -------H 0 1.0 4.0 1 -1 8 65535 65535
+ 1.302944 2 5 sctp 56 -------H 0 2.0 5.0 1 -1 9 65535 65535
- 1.302944 2 5 sctp 56 -------H 0 2.0 5.0 1 -1 9 65535 65535
r 1.50384 1 4 sctp 56 -------H 0 1.0 4.0 1 -1 8 65535 65535
+ 1.50384 4 1 sctp 56 -------B 0 4.0 1.0 1 -1 10 65535 65535
- 1.50384 4 1 sctp 56 -------B 0 4.0 1.0 1 -1 10 65535 65535
r 1.50384 2 5 sctp 56 -------H 0 2.0 5.0 1 -1 9 65535 65535
+ 1.50384 5 2 sctp 56 -------B 0 5.0 2.0 1 -1 11 65535 65535
- 1.50384 5 2 sctp 56 -------B 0 5.0 2.0 1 -1 11 65535 65535
r 1.704736 4 1 sctp 56 -------B 0 4.0 1.0 1 -1 10 65535 65535
r 1.704736 5 2 sctp 56 -------B 0 5.0 2.0 1 -1 11 65535 65535
+ 1.704736 1 4 sctp 1500 -------D 0 1.0 4.0 1 1 12 0 0
- 1.704736 1 4 sctp 1500 -------D 0 1.0 4.0 1 1 12 0 0
+ 1.704736 1 4 sctp 1500 -------D 0 1.0 4.0 1 2 13 0 1
+ 1.704736 1 4 sctp 1500 -------D 0 1.0 4.0 1 3 14 0 2
- 1.728736 1 4 sctp 1500 -------D 0 1.0 4.0 1 2 13 0 1
- 1.752736 1 4 sctp 1500 -------D 0 1.0 4.0 1 3 14 0 2
r 1.928736 1 4 sctp 1500 -------D 0 1.0 4.0 1 1 12 0 0
+ 1.928736 4 1 sctp 48 -------S 0 4.0 1.0 1 1 15 65535 65535
- 1.928736 4 1 sctp 48 -------S 0 4.0 1.0 1 1 15 65535 65535
r 1.952736 1 4 sctp 1500 -------D 0 1.0 4.0 1 2 13 0 1
r 1.976736 1 4 sctp 1500 -------D 0 1.0 4.0 1 3 14 0 2
+ 1.976736 4 1 sctp 48 -------S 0 4.0 1.0 1 3 16 65535 65535
- 1.976736 4 1 sctp 48 -------S 0 4.0 1.0 1 3 16 65535 65535
r 2.129504 4 1 sctp 48 -------S 0 4.0 1.0 1 1 15 65535 65535
+ 2.129504 1 4 sctp 1500 -------D 0 1.0 4.0 1 4 17 0 3
- 2.129504 1 4 sctp 1500 -------D 0 1.0 4.0 1 4 17 0 3
+ 2.129504 1 4 sctp 1500 -------D 0 1.0 4.0 1 5 18 0 4
- 2.153504 1 4 sctp 1500 -------D 0 1.0 4.0 1 5 18 0 4
r 2.177504 4 1 sctp 48 -------S 0 4.0 1.0 1 3 16 65535 65535
+ 2.177504 1 4 sctp 1500 -------D 0 1.0 4.0 1 6 19 0 5
+ 2.177504 1 4 sctp 1500 -------D 0 1.0 4.0 1 7 20 0 6
+ 2.177504 1 4 sctp 1500 -------D 0 1.0 4.0 1 8 21 0 7
- 2.177504 1 4 sctp 1500 -------D 0 1.0 4.0 1 6 19 0 5
- 2.201504 1 4 sctp 1500 -------D 0 1.0 4.0 1 7 20 0 6
- 2.225504 1 4 sctp 1500 -------D 0 1.0 4.0 1 8 21 0 7
r 2.353504 1 4 sctp 1500 -------D 0 1.0 4.0 1 4 17 0 3
r 2.377504 1 4 sctp 1500 -------D 0 1.0 4.0 1 5 18 0 4
+ 2.377504 4 1 sctp 48 -------S 0 4.0 1.0 1 5 22 65535 65535
- 2.377504 4 1 sctp 48 -------S 0 4.0 1.0 1 5 22 65535 65535
r 2.401504 1 4 sctp 1500 -------D 0 1.0 4.0 1 6 19 0 5
r 2.425504 1 4 sctp 1500 -------D 0 1.0 4.0 1 7 20 0 6
+ 2.425504 4 1 sctp 48 -------S 0 4.0 1.0 1 7 23 65535 65535
- 2.425504 4 1 sctp 48 -------S 0 4.0 1.0 1 7 23 65535 65535
r 2.449504 1 4 sctp 1500 -------D 0 1.0 4.0 1 8 21 0 7
r 2.578272 4 1 sctp 48 -------S 0 4.0 1.0 1 5 22 65535 65535
+ 2.578272 1 4 sctp 1500 -------D 0 1.0 4.0 1 9 24 0 8
- 2.578272 1 4 sctp 1500 -------D 0 1.0 4.0 1 9 24 0 8
+ 2.578272 1 4 sctp 1500 -------D 0 1.0 4.0 1 10 25 0 9
+ 2.578272 1 4 sctp 1500 -------D 0 1.0 4.0 1 11 26 0 10
- 2.602272 1 4 sctp 1500 -------D 0 1.0 4.0 1 10 25 0 9
r 2.626272 4 1 sctp 48 -------S 0 4.0 1.0 1 7 23 65535 65535
+ 2.626272 1 4 sctp 1500 -------D 0 1.0 4.0 1 12 27 0 11
+ 2.626272 1 4 sctp 1500 -------D 0 1.0 4.0 1 13 28 0 12
d 2.626272 1 4 sctp 1500 -------D 0 1.0 4.0 1 14 29 0 13
- 2.626272 1 4 sctp 1500 -------D 0 1.0 4.0 1 11 26 0 10
+ 2.649504 4 1 sctp 48 -------S 0 4.0 1.0 1 8 30 65535 65535
- 2.649504 4 1 sctp 48 -------S 0 4.0 1.0 1 8 30 65535 65535
- 2.650272 1 4 sctp 1500 -------D 0 1.0 4.0 1 12 27 0 11
- 2.674272 1 4 sctp 1500 -------D 0 1.0 4.0 1 13 28 0 12
r 2.802272 1 4 sctp 1500 -------D 0 1.0 4.0 1 9 24 0 8
r 2.826272 1 4 sctp 1500 -------D 0 1.0 4.0 1 10 25 0 9
+ 2.826272 4 1 sctp 48 -------S 0 4.0 1.0 1 10 31 65535 65535
- 2.826272 4 1 sctp 48 -------S 0 4.0 1.0 1 10 31 65535 65535
r 2.850272 1 4 sctp 1500 -------D 0 1.0 4.0 1 11 26 0 10
r 2.850272 4 1 sctp 48 -------S 0 4.0 1.0 1 8 30 65535 65535
d 2.850272 1 4 sctp 1500 -------D 0 1.0 4.0 1 15 32 0 14
d 2.850272 1 4 sctp 1500 -------D 0 1.0 4.0 1 16 33 0 15
r 2.874272 1 4 sctp 1500 -------D 0 1.0 4.0 1 12 27 0 11
+ 2.874272 4 1 sctp 48 -------S 0 4.0 1.0 1 12 34 65535 65535
- 2.874272 4 1 sctp 48 -------S 0 4.0 1.0 1 12 34 65535 65535
r 2.898272 1 4 sctp 1500 -------D 0 1.0 4.0 1 13 28 0 12
r 3.02704 4 1 sctp 48 -------S 0 4.0 1.0 1 10 31 65535 65535
d 3.02704 1 4 sctp 1500 -------D 0 1.0 4.0 1 17 35 0 16
d 3.02704 1 4 sctp 1500 -------D 0 1.0 4.0 1 18 36 0 17
d 3.02704 1 4 sctp 1500 -------D 0 1.0 4.0 1 19 37 0 18
r 3.07504 4 1 sctp 48 -------S 0 4.0 1.0 1 12 34 65535 65535
d 3.07504 1 4 sctp 1500 -------D 0 1.0 4.0 1 20 38 0 19
d 3.07504 1 4 sctp 1500 -------D 0 1.0 4.0 1 21 39 0 20
d 3.07504 1 4 sctp 1500 -------D 0 1.0 4.0 1 22 40 0 21
+ 3.098272 4 1 sctp 48 -------S 0 4.0 1.0 1 13 41 65535 65535
- 3.098272 4 1 sctp 48 -------S 0 4.0 1.0 1 13 41 65535 65535
r 3.29904 4 1 sctp 48 -------S 0 4.0 1.0 1 13 41 65535 65535
d 3.29904 1 4 sctp 1500 -------D 0 1.0 4.0 1 23 42 0 22
d 3.29904 1 4 sctp 1500 -------D 0 1.0 4.0 1 24 43 0 23
+ 4.29904 2 5 sctp 1500 -------D 0 2.0 5.0 1 14 44 0 13
- 4.29904 2 5 sctp 1500 -------D 0 2.0 5.0 1 14 44 0 13
r 4.52304 2 5 sctp 1500 -------D 0 2.0 5.0 1 14 44 0 13
+ 4.72304 5 2 sctp 48 -------S 0 5.0 2.0 1 14 45 65535 65535
- 4.72304 5 2 sctp 48 -------S 0 5.0 2.0 1 14 45 65535 65535
r 4.923808 5 2 sctp 48 -------S 0 5.0 2.0 1 14 45 65535 65535
+ 4.923808 2 5 sctp 1500 -------D 0 2.0 5.0 1 15 46 0 14
- 4.923808 2 5 sctp 1500 -------D 0 2.0 5.0 1 15 46 0 14
+ 4.923808 2 5 sctp 1500 -------D 0 2.0 5.0 1 16 47 0 15
+ 4.923808 2 5 sctp 1500 -------D 0 2.0 5.0 1 17 48 0 16
- 4.947808 2 5 sctp 1500 -------D 0 2.0 5.0 1 16 47 0 15
- 4.971808 2 5 sctp 1500 -------D 0 2.0 5.0 1 17 48 0 16
r 5.147808 2 5 sctp 1500 -------D 0 2.0 5.0 1 15 46 0 14
r 5.171808 2 5 sctp 1500 -------D 0 2.0 5.0 1 16 47 0 15
+ 5.171808 5 2 sctp 48 -------S 0 5.0 2.0 1 16 49 65535 65535
- 5.171808 5 2 sctp 48 -------S 0 5.0 2.0 1 16 49 65535 65535
r 5.195808 2 5 sctp 1500 -------D 0 2.0 5.0 1 17 48 0 16
r 5.372576 5 2 sctp 48 -------S 0 5.0 2.0 1 16 49 65535 65535
+ 5.372576 2 5 sctp 1500 -------D 0 2.0 5.0 1 18 50 0 17
- 5.372576 2 5 sctp 1500 -------D 0 2.0 5.0 1 18 50 0 17
+ 5.372576 2 5 sctp 1500 -------D 0 2.0 5.0 1 19 51 0 18
+ 5.372576 2 5 sctp 1500 -------D 0 2.0 5.0 1 20 52 0 19
+ 5.395808 5 2 sctp 48 -------S 0 5.0 2.0 1 17 53 65535 65535
- 5.395808 5 2 sctp 48 -------S 0 5.0 2.0 1 17 53 65535 65535
- 5.396576 2 5 sctp 1500 -------D 0 2.0 5.0 1 19 51 0 18
- 5.420576 2 5 sctp 1500 -------D 0 2.0 5.0 1 20 52 0 19
r 5.596576 2 5 sctp 1500 -------D 0 2.0 5.0 1 18 50 0 17
r 5.596576 5 2 sctp 48 -------S 0 5.0 2.0 1 17 53 65535 65535
+ 5.596576 2 5 sctp 1500 -------D 0 2.0 5.0 1 21 54 0 20
- 5.596576 2 5 sctp 1500 -------D 0 2.0 5.0 1 21 54 0 20
+ 5.596576 2 5 sctp 1500 -------D 0 2.0 5.0 1 22 55 0 21
r 5.620576 2 5 sctp 1500 -------D 0 2.0 5.0 1 19 51 0 18
+ 5.620576 5 2 sctp 48 -------S 0 5.0 2.0 1 19 56 65535 65535
- 5.620576 5 2 sctp 48 -------S 0 5.0 2.0 1 19 56 65535 65535
- 5.620576 2 5 sctp 1500 -------D 0 2.0 5.0 1 22 55 0 21
r 5.644576 2 5 sctp 1500 -------D 0 2.0 5.0 1 20 52 0 19
r 5.820576 2 5 sctp 1500 -------D 0 2.0 5.0 1 21 54 0 20
+ 5.820576 5 2 sctp 48 -------S 0 5.0 2.0 1 21 57 65535 65535
- 5.820576 5 2 sctp 48 -------S 0 5.0 2.0 1 21 57 65535 65535
r 5.821344 5 2 sctp 48 -------S 0 5.0 2.0 1 19 56 65535 65535
+ 5.821344 2 5 sctp 1500 -------D 0 2.0 5.0 1 23 58 0 22
- 5.821344 2 5 sctp 1500 -------D 0 2.0 5.0 1 23 58 0 22
+ 5.821344 2 5 sctp 1500 -------D 0 2.0 5.0 1 24 59 0 23
d 5.821344 1 4 sctp 1500 -------D 0 1.0 4.0 1 25 60 0 24
r 5.844576 2 5 sctp 1500 -------D 0 2.0 5.0 1 22 55 0 21
- 5.845344 2 5 sctp 1500 -------D 0 2.0 5.0 1 24 59 0 23
r 6.021344 5 2 sctp 48 -------S 0 5.0 2.0 1 21 57 65535 65535
+ 6.044576 5 2 sctp 48 -------S 0 5.0 2.0 1 22 61 65535 65535
- 6.044576 5 2 sctp 48 -------S 0 5.0 2.0 1 22 61 65535 65535
r 6.045344 2 5 sctp 1500 -------D 0 2.0 5.0 1 23 58 0 22
r 6.069344 2 5 sctp 1500 -------D 0 2.0 5.0 1 24 59 0 23
+ 6.069344 5 2 sctp 48 -------S 0 5.0 2.0 1 24 62 65535 65535
- 6.069344 5 2 sctp 48 -------S 0 5.0 2.0 1 24 62 65535 65535
r 6.245344 5 2 sctp 48 -------S 0 5.0 2.0 1 22 61 65535 65535
r 6.270112 5 2 sctp 48 -------S 0 5.0 2.0 1 24 62 65535 65535
+ 6.923808 2 5 sctp 1500 -------D 0 2.0 5.0 1 25 63 0 24
- 6.923808 2 5 sctp 1500 -------D 0 2.0 5.0 1 25 63 0 24
r 7.147808 2 5 sctp 1500 -------D 0 2.0 5.0 1 25 63 0 24
+ 7.347808 5 2 sctp 48 -------S 0 5.0 2.0 1 25 64 65535 65535
- 7.347808 5 2 sctp 48 -------S 0 5.0 2.0 1 25 64 65535 65535
r 7.548576 5 2 sctp 48 -------S 0 5.0 2.0 1 25 64 65535 65535
d 7.548576 1 4 sctp 1500 -------D 0 1.0 4.0 1 26 65 0 25
+ 11.548576 2 5 sctp 1500 -------D 0 2.0 5.0 1 26 66 0 25
- 11.548576 2 5 sctp 1500 -------D 0 2.0 5.0 1 26 66 0 25
r 11.772576 2 5 sctp 1500 -------D 0 2.0 5.0 1 26 66 0 25
+ 11.972576 5 2 sctp 48 -------S 0 5.0 2.0 1 26 67 65535 65535
- 11.972576 5 2 sctp 48 -------S 0 5.0 2.0 1 26 67 65535 65535
r 12.173344 5 2 sctp 48 -------S 0 5.0 2.0 1 26 67 65535 65535
d 12.173344 1 4 sctp 1500 -------D 0 1.0 4.0 1 27 68 0 26
+ 20.173344 2 5 sctp 1500 -------D 0 2.0 5.0 1 27 69 0 26
- 20.173344 2 5 sctp 1500 -------D 0 2.0 5.0 1 27 69 0 26
r 20.397344 2 5 sctp 1500 -------D 0 2.0 5.0 1 27 69 0 26
+ 20.597344 5 2 sctp 48 -------S 0 5.0 2.0 1 27 70 65535 65535
- 20.597344 5 2 sctp 48 -------S 0 5.0 2.0 1 27 70 65535 65535
r 20.798112 5 2 sctp 48 -------S 0 5.0 2.0 1 27 70 65535 65535
d 20.798112 1 4 sctp 1500 -------D 0 1.0 4.0 1 28 71 0 27
+ 32.603387 4 1 sctp 56 -------H 0 4.0 1.0 1 -1 72 65535 65535
- 32.603387 4 1 sctp 56 -------H 0 4.0 1.0 1 -1 72 65535 65535
r 32.804283 4 1 sctp 56 -------H 0 4.0 1.0 1 -1 72 65535 65535
+ 32.804283 1 4 sctp 56 -------B 0 1.0 4.0 1 -1 73 65535 65535
- 32.804283 1 4 sctp 56 -------B 0 1.0 4.0 1 -1 73 65535 65535
+ 32.977469 2 5 sctp 56 -------H 0 2.0 5.0 1 -1 74 65535 65535
- 32.977469 2 5 sctp 56 -------H 0 2.0 5.0 1 -1 74 65535 65535
r 33.005179 1 4 sctp 56 -------B 0 1.0 4.0 1 -1 73 65535 65535
r 33.178365 2 5 sctp 56 -------H 0 2.0 5.0 1 -1 74 65535 65535
+ 33.178365 5 2 sctp 56 -------B 0 5.0 2.0 1 -1 75 65535 65535
- 33.178365 5 2 sctp 56 -------B 0 5.0 2.0 1 -1 75 65535 65535
r 33.379261 5 2 sctp 56 -------B 0 5.0 2.0 1 -1 75 65535 65535
+ 36.798112 2 5 sctp 1500 -------D 0 2.0 5.0 1 28 76 0 27
- 36.798112 2 5 sctp 1500 -------D 0 2.0 5.0 1 28 76 0 27
r 37.022112 2 5 sctp 1500 -------D 0 2.0 5.0 1 28 76 0 27
+ 37.222112 5 2 sctp 48 -------S 0 5.0 2.0 1 28 77 65535 65535
- 37.222112 5 2 sctp 48 -------S 0 5.0 2.0 1 28 77 65535 65535
r 37.42288 5 2 sctp 48 -------S 0 5.0 2.0 1 28 77 65535 65535
d 37.42288 1 4 sctp 1500 -------D 0 1.0 4.0 1 29 78 0 28
+ 63.686378 2 5 sctp 56 -------H 0 2.0 5.0 1 -1 79 65535 65535
- 63.686378 2 5 sctp 56 -------H 0 2.0 5.0 1 -1 79 65535 65535
r 63.887274 2 5 sctp 56 -------H 0 2.0 5.0 1 -1 79 65535 65535
+ 63.887274 5 2 sctp 56 -------B 0 5.0 2.0 1 -1 80 65535 65535
- 63.887274 5 2 sctp 56 -------B 0 5.0 2.0 1 -1 80 65535 65535
r 64.08817 5 2 sctp 56 -------B 0 5.0 2.0 1 -1 80 65535 65535
+ 64.146001 5 2 sctp 56 -------H 0 5.0 2.0 1 -1 81 65535 65535
- 64.146001 5 2 sctp 56 -------H 0 5.0 2.0 1 -1 81 65535 65535
r 64.346897 5 2 sctp 56 -------H 0 5.0 2.0 1 -1 81 65535 65535
+ 64.346897 2 5 sctp 56 -------B 0 2.0 5.0 1 -1 82 65535 65535
- 64.346897 2 5 sctp 56 -------B 0 2.0 5.0 1 -1 82 65535 65535
r 64.547793 2 5 sctp 56 -------B 0 2.0 5.0 1 -1 82 65535 65535
+ 69.42288 2 5 sctp 1500 -------D 0 2.0 5.0 1 29 83 0 28
- 69.42288 2 5 sctp 1500 -------D 0 2.0 5.0 1 29 83 0 28
d 69.42288 1 4 sctp 56 -------H 0 1.0 4.0 1 -1 84 65535 65535
r 69.64688 2 5 sctp 1500 -------D 0 2.0 5.0 1 29 83 0 28
+ 69.84688 5 2 sctp 48 -------S 0 5.0 2.0 1 29 85 65535 65535
- 69.84688 5 2 sctp 48 -------S 0 5.0 2.0 1 29 85 65535 65535
r 70.047648 5 2 sctp 48 -------S 0 5.0 2.0 1 29 85 65535 65535
+ 70.047648 2 5 sctp 1500 -------D 0 2.0 5.0 1 30 86 0 29
- 70.047648 2 5 sctp 1500 -------D 0 2.0 5.0 1 30 86 0 29
+ 70.047648 2 5 sctp 1500 -------D 0 2.0 5.0 1 31 87 0 30
+ 70.047648 2 5 sctp 1500 -------D 0 2.0 5.0 1 32 88 0 31
+ 70.047648 2 5 sctp 1500 -------D 0 2.0 5.0 1 33 89 0 32
- 70.071648 2 5 sctp 1500 -------D 0 2.0 5.0 1 31 87 0 30
- 70.095648 2 5 sctp 1500 -------D 0 2.0 5.0 1 32 88 0 31
- 70.119648 2 5 sctp 1500 -------D 0 2.0 5.0 1 33 89 0 32
r 70.271648 2 5 sctp 1500 -------D 0 2.0 5.0 1 30 86 0 29
r 70.295648 2 5 sctp 1500 -------D 0 2.0 5.0 1 31 87 0 30
+ 70.295648 5 2 sctp 48 -------S 0 5.0 2.0 1 31 90 65535 65535
- 70.295648 5 2 sctp 48 -------S 0 5.0 2.0 1 31 90 65535 65535
r 70.319648 2 5 sctp 1500 -------D 0 2.0 5.0 1 32 88 0 31
r 70.343648 2 5 sctp 1500 -------D 0 2.0 5.0 1 33 89 0 32
+ 70.343648 5 2 sctp 48 -------S 0 5.0 2.0 1 33 91 65535 65535
- 70.343648 5 2 sctp 48 -------S 0 5.0 2.0 1 33 91 65535 65535
r 70.496416 5 2 sctp 48 -------S 0 5.0 2.0 1 31 90 65535 65535
+ 70.496416 2 5 sctp 1500 -------D 0 2.0 5.0 1 34 92 0 33
- 70.496416 2 5 sctp 1500 -------D 0 2.0 5.0 1 34 92 0 33
+ 70.496416 2 5 sctp 1500 -------D 0 2.0 5.0 1 35 93 0 34
+ 70.496416 2 5 sctp 1500 -------D 0 2.0 5.0 1 36 94 0 35
- 70.520416 2 5 sctp 1500 -------D 0 2.0 5.0 1 35 93 0 34
r 70.544416 5 2 sctp 48 -------S 0 5.0 2.0 1 33 91 65535 65535
+ 70.544416 2 5 sctp 1500 -------D 0 2.0 5.0 1 37 95 0 36
+ 70.544416 2 5 sctp 1500 -------D 0 2.0 5.0 1 38 96 0 37
+ 70.544416 2 5 sctp 1500 -------D 0 2.0 5.0 1 39 97 0 38
- 70.544416 2 5 sctp 1500 -------D 0 2.0 5.0 1 36 94 0 35
- 70.568416 2 5 sctp 1500 -------D 0 2.0 5.0 1 37 95 0 36
- 70.592416 2 5 sctp 1500 -------D 0 2.0 5.0 1 38 96 0 37
- 70.616416 2 5 sctp 1500 -------D 0 2.0 5.0 1 39 97 0 38
r 70.720416 2 5 sctp 1500 -------D 0 2.0 5.0 1 34 92 0 33
r 70.744416 2 5 sctp 1500 -------D 0 2.0 5.0 1 35 93 0 34
+ 70.744416 5 2 sctp 48 -------S 0 5.0 2.0 1 35 98 65535 65535
- 70.744416 5 2 sctp 48 -------S 0 5.0 2.0 1 35 98 65535 65535
r 70.768416 2 5 sctp 1500 -------D 0 2.0 5.0 1 36 94 0 35
r 70.792416 2 5 sctp 1500 -------D 0 2.0 5.0 1 37 95 0 36
+ 70.792416 5 2 sctp 48 -------S 0 5.0 2.0 1 37 99 65535 65535
- 70.792416 5 2 sctp 48 -------S 0 5.0 2.0 1 37 99 65535 65535
r 70.816416 2 5 sctp 1500 -------D 0 2.0 5.0 1 38 96 0 37
r 70.840416 2 5 sctp 1500 -------D 0 2.0 5.0 1 39 97 0 38
+ 70.840416 5 2 sctp 48 -------S 0 5.0 2.0 1 39 100 65535 65535
- 70.840416 5 2 sctp 48 -------S 0 5.0 2.0 1 39 100 65535 65535
r 70.945184 5 2 sctp 48 -------S 0 5.0 2.0 1 35 98 65535 65535
+ 70.945184 2 5 sctp 1500 -------D 0 2.0 5.0 1 40 101 0 39
- 70.945184 2 5 sctp 1500 -------D 0 2.0 5.0 1 40 101 0 39
+ 70.945184 2 5 sctp 1500 -------D 0 2.0 5.0 1 41 102 0 40
+ 70.945184 2 5 sctp 1500 -------D 0 2.0 5.0 1 42 103 0 41
- 70.969184 2 5 sctp 1500 -------D 0 2.0 5.0 1 41 102 0 40
r 70.993184 5 2 sctp 48 -------S 0 5.0 2.0 1 37 99 65535 65535
+ 70.993184 2 5 sctp 1500 -------D 0 2.0 5.0 1 43 104 0 42
+ 70.993184 2 5 sctp 1500 -------D 0 2.0 5.0 1 44 105 0 43
+ 70.993184 2 5 sctp 1500 -------D 0 2.0 5.0 1 45 106 0 44
- 70.993184 2 5 sctp 1500 -------D 0 2.0 5.0 1 42 103 0 41
- 71.017184 2 5 sctp 1500 -------D 0 2.0 5.0 1 43 104 0 42
r 71.041184 5 2 sctp 48 -------S 0 5.0 2.0 1 39 100 65535 65535
+ 71.041184 2 5 sctp 1500 -------D 0 2.0 5.0 1 46 107 0 45
+ 71.041184 2 5 sctp 1500 -------D 0 2.0 5.0 1 47 108 0 46
+ 71.041184 2 5 sctp 1500 -------D 0 2.0 5.0 1 48 109 0 47
- 71.041184 2 5 sctp 1500 -------D 0 2.0 5.0 1 44 105 0 43
- 71.065184 2 5 sctp 1500 -------D 0 2.0 5.0 1 45 106 0 44
- 71.089184 2 5 sctp 1500 -------D 0 2.0 5.0 1 46 107 0 45
- 71.113184 2 5 sctp 1500 -------D 0 2.0 5.0 1 47 108 0 46
- 71.137184 2 5 sctp 1500 -------D 0 2.0 5.0 1 48 109 0 47
r 71.169184 2 5 sctp 1500 -------D 0 2.0 5.0 1 40 101 0 39
r 71.193184 2 5 sctp 1500 -------D 0 2.0 5.0 1 41 102 0 40
+ 71.193184 5 2 sctp 48 -------S 0 5.0 2.0 1 41 110 65535 65535
- 71.193184 5 2 sctp 48 -------S 0 5.0 2.0 1 41 110 65535 65535
r 71.217184 2 5 sctp 1500 -------D 0 2.0 5.0 1 42 103 0 41
r 71.241184 2 5 sctp 1500 -------D 0 2.0 5.0 1 43 104 0 42
+ 71.241184 5 2 sctp 48 -------S 0 5.0 2.0 1 43 111 65535 65535
- 71.241184 5 2 sctp 48 -------S 0 5.0 2.0 1 43 111 65535 65535
r 71.265184 2 5 sctp 1500 -------D 0 2.0 5.0 1 44 105 0 43
r 71.289184 2 5 sctp 1500 -------D 0 2.0 5.0 1 45 106 0 44
+ 71.289184 5 2 sctp 48 -------S 0 5.0 2.0 1 45 112 65535 65535
- 71.289184 5 2 sctp 48 -------S 0 5.0 2.0 1 45 112 65535 65535
r 71.313184 2 5 sctp 1500 -------D 0 2.0 5.0 1 46 107 0 45
r 71.337184 2 5 sctp 1500 -------D 0 2.0 5.0 1 47 108 0 46
+ 71.337184 5 2 sctp 48 -------S 0 5.0 2.0 1 47 113 65535 65535
- 71.337184 5 2 sctp 48 -------S 0 5.0 2.0 1 47 113 65535 65535
r 71.361184 2 5 sctp 1500 -------D 0 2.0 5.0 1 48 109 0 47
r 71.393952 5 2 sctp 48 -------S 0 5.0 2.0 1 41 110 65535 65535
+ 71.393952 2 5 sctp 1500 -------D 0 2.0 5.0 1 49 114 0 48
- 71.393952 2 5 sctp 1500 -------D 0 2.0 5.0 1 49 114 0 48
+ 71.393952 2 5 sctp 1500 -------D 0 2.0 5.0 1 50 115 0 49
+ 71.393952 2 5 sctp 1500 -------D 0 2.0 5.0 1 51 116 0 50
- 71.417952 2 5 sctp 1500 -------D 0 2.0 5.0 1 50 115 0 49
r 71.441952 5 2 sctp 48 -------S 0 5.0 2.0 1 43 111 65535 65535
+ 71.441952 2 5 sctp 1500 -------D 0 2.0 5.0 1 52 117 0 51
+ 71.441952 2 5 sctp 1500 -------D 0 2.0 5.0 1 53 118 0 52
+ 71.441952 2 5 sctp 1500 -------D 0 2.0 5.0 1 54 119 0 53
- 71.441952 2 5 sctp 1500 -------D 0 2.0 5.0 1 51 116 0 50
- 71.465952 2 5 sctp 1500 -------D 0 2.0 5.0 1 52 117 0 51
r 71.489952 5 2 sctp 48 -------S 0 5.0 2.0 1 45 112 65535 65535
+ 71.489952 2 5 sctp 1500 -------D 0 2.0 5.0 1 55 120 0 54
+ 71.489952 2 5 sctp 1500 -------D 0 2.0 5.0 1 56 121 0 55
+ 71.489952 2 5 sctp 1500 -------D 0 2.0 5.0 1 57 122 0 56
- 71.489952 2 5 sctp 1500 -------D 0 2.0 5.0 1 53 118 0 52
- 71.513952 2 5 sctp 1500 -------D 0 2.0 5.0 1 54 119 0 53
r 71.537952 5 2 sctp 48 -------S 0 5.0 2.0 1 47 113 65535 65535
+ 71.537952 2 5 sctp 1500 -------D 0 2.0 5.0 1 58 123 0 57
+ 71.537952 2 5 sctp 1500 -------D 0 2.0 5.0 1 59 124 0 58
+ 71.537952 2 5 sctp 1500 -------D 0 2.0 5.0 1 60 125 0 59
- 71.537952 2 5 sctp 1500 -------D 0 2.0 5.0 1 55 120 0 54
+ 71.561184 5 2 sctp 48 -------S 0 5.0 2.0 1 48 126 65535 65535
- 71.561184 5 2 sctp 48 -------S 0 5.0 2.0 1 48 126 65535 65535
- 71.561952 2 5 sctp 1500 -------D 0 2.0 5.0 1 56 121 0 55
- 71.585952 2 5 sctp 1500 -------D 0 2.0 5.0 1 57 122 0 56
- 71.609952 2 5 sctp 1500 -------D 0 2.0 5.0 1 58 123 0 57
r 71.617952 2 5 sctp 1500 -------D 0 2.0 5.0 1 49 114 0 48
- 71.633952 2 5 sctp 1500 -------D 0 2.0 5.0 1 59 124 0 58
r 71.641952 2 5 sctp 1500 -------D 0 2.0 5.0 1 50 115 0 49
+ 71.641952 5 2 sctp 48 -------S 0 5.0 2.0 1 50 127 65535 65535
- 71.641952 5 2 sctp 48 -------S 0 5.0 2.0 1 50 127 65535 65535
- 71.657952 2 5 sctp 1500 -------D 0 2.0 5.0 1 60 125 0 59
r 71.665952 2 5 sctp 1500 -------D 0 2.0 5.0 1 51 116 0 50
r 71.689952 2 5 sctp 1500 -------D 0 2.0 5.0 1 52 117 0 51
+ 71.689952 5 2 sctp 48 -------S 0 5.0 2.0 1 52 128 65535 65535
- 71.689952 5 2 sctp 48 -------S 0 5.0 2.0 1 52 128 65535 65535
r 71.713952 2 5 sctp 1500 -------D 0 2.0 5.0 1 53 118 0 52
r 71.737952 2 5 sctp 1500 -------D 0 2.0 5.0 1 54 119 0 53
+ 71.737952 5 2 sctp 48 -------S 0 5.0 2.0 1 54 129 65535 65535
- 71.737952 5 2 sctp 48 -------S 0 5.0 2.0 1 54 129 65535 65535
r 71.761952 2 5 sctp 1500 -------D 0 2.0 5.0 1 55 120 0 54
r 71.761952 5 2 sctp 48 -------S 0 5.0 2.0 1 48 126 65535 65535
+ 71.761952 2 5 sctp 1500 -------D 0 2.0 5.0 1 61 130 0 60
- 71.761952 2 5 sctp 1500 -------D 0 2.0 5.0 1 61 130 0 60
+ 71.761952 2 5 sctp 1500 -------D 0 2.0 5.0 1 62 131 0 61
r 71.785952 2 5 sctp 1500 -------D 0 2.0 5.0 1 56 121 0 55
+ 71.785952 5 2 sctp 48 -------S 0 5.0 2.0 1 56 132 65535 65535
- 71.785952 5 2 sctp 48 -------S 0 5.0 2.0 1 56 132 65535 65535
- 71.785952 2 5 sctp 1500 -------D 0 2.0 5.0 1 62 131 0 61
r 71.809952 2 5 sctp 1500 -------D 0 2.0 5.0 1 57 122 0 56
r 71.833952 2 5 sctp 1500 -------D 0 2.0 5.0 1 58 123 0 57
+ 71.833952 5 2 sctp 48 -------S 0 5.0 2.0 1 58 133 65535 65535
- 71.833952 5 2 sctp 48 -------S 0 5.0 2.0 1 58 133 65535 65535
r 71.84272 5 2 sctp 48 -------S 0 5.0 2.0 1 50 127 65535 65535
+ 71.84272 2 5 sctp 1500 -------D 0 2.0 5.0 1 63 134 0 62
- 71.84272 2 5 sctp 1500 -------D 0 2.0 5.0 1 63 134 0 62
+ 71.84272 2 5 sctp 1500 -------D 0 2.0 5.0 1 64 135 0 63
+ 71.84272 2 5 sctp 1500 -------D 0 2.0 5.0 1 65 136 0 64
r 71.857952 2 5 sctp 1500 -------D 0 2.0 5.0 1 59 124 0 58
- 71.86672 2 5 sctp 1500 -------D 0 2.0 5.0 1 64 135 0 63
r 71.881952 2 5 sctp 1500 -------D 0 2.0 5.0 1 60 125 0 59
+ 71.881952 5 2 sctp 48 -------S 0 5.0 2.0 1 60 137 65535 65535
- 71.881952 5 2 sctp 48 -------S 0 5.0 2.0 1 60 137 65535 65535
r 71.89072 5 2 sctp 48 -------S 0 5.0 2.0 1 52 128 65535 65535
+ 71.89072 2 5 sctp 1500 -------D 0 2.0 5.0 1 66 138 0 65
+ 71.89072 2 5 sctp 1500 -------D 0 2.0 5.0 1 67 139 0 66
+ 71.89072 2 5 sctp 1500 -------D 0 2.0 5.0 1 68 140 0 67
- 71.89072 2 5 sctp 1500 -------D 0 2.0 5.0 1 65 136 0 64
- 71.91472 2 5 sctp 1500 -------D 0 2.0 5.0 1 66 138 0 65
r 71.93872 5 2 sctp 48 -------S 0 5.0 2.0 1 54 129 65535 65535
+ 71.93872 2 5 sctp 1500 -------D 0 2.0 5.0 1 69 141 0 68
+ 71.93872 2 5 sctp 1500 -------D 0 2.0 5.0 1 70 142 0 69
+ 71.93872 2 5 sctp 1500 -------D 0 2.0 5.0 1 71 143 0 70
- 71.93872 2 5 sctp 1500 -------D 0 2.0 5.0 1 67 139 0 66
- 71.96272 2 5 sctp 1500 -------D 0 2.0 5.0 1 68 140 0 67
r 71.985952 2 5 sctp 1500 -------D 0 2.0 5.0 1 61 130 0 60
r 71.98672 5 2 sctp 48 -------S 0 5.0 2.0 1 56 132 65535 65535
+ 71.98672 2 5 sctp 1500 -------D 0 2.0 5.0 1 72 144 0 71
+ 71.98672 2 5 sctp 1500 -------D 0 2.0 5.0 1 73 145 0 72
+ 71.98672 2 5 sctp 1500 -------D 0 2.0 5.0 1 74 146 0 73
- 71.98672 2 5 sctp 1500 -------D 0 2.0 5.0 1 69 141 0 68
r 72.009952 2 5 sctp 1500 -------D 0 2.0 5.0 1 62 131 0 61
+ 72.009952 5 2 sctp 48 -------S 0 5.0 2.0 1 62 147 65535 65535
- 72.009952 5 2 sctp 48 -------S 0 5.0 2.0 1 62 147 65535 65535
- 72.01072 2 5 sctp 1500 -------D 0 2.0 5.0 1 70 142 0 69
r 72.03472 5 2 sctp 48 -------S 0 5.0 2.0 1 58 133 65535 65535
+ 72.03472 2 5 sctp 1500 -------D 0 2.0 5.0 1 75 148 0 74
+ 72.03472 2 5 sctp 1500 -------D 0 2.0 5.0 1 76 149 0 75
+ 72.03472 2 5 sctp 1500 -------D 0 2.0 5.0 1 77 150 0 76
- 72.03472 2 5 sctp 1500 -------D 0 2.0 5.0 1 71 143 0 70
- 72.05872 2 5 sctp 1500 -------D 0 2.0 5.0 1 72 144 0 71
r 72.06672 2 5 sctp 1500 -------D 0 2.0 5.0 1 63 134 0 62
r 72.08272 5 2 sctp 48 -------S 0 5.0 2.0 1 60 137 65535 65535
+ 72.08272 2 5 sctp 1500 -------D 0 2.0 5.0 1 78 151 0 77
+ 72.08272 2 5 sctp 1500 -------D 0 2.0 5.0 1 79 152 0 78
+ 72.08272 2 5 sctp 1500 -------D 0 2.0 5.0 1 80 153 0 79
- 72.08272 2 5 sctp 1500 -------D 0 2.0 5.0 1 73 145 0 72
r 72.09072 2 5 sctp 1500 -------D 0 2.0 5.0 1 64 135 0 63
+ 72.09072 5 2 sctp 48 -------S 0 5.0 2.0 1 64 154 65535 65535
- 72.09072 5 2 sctp 48 -------S 0 5.0 2.0 1 64 154 65535 65535
- 72.10672 2 5 sctp 1500 -------D 0 2.0 5.0 1 74 146 0 73
r 72.11472 2 5 sctp 1500 -------D 0 2.0 5.0 1 65 136 0 64
- 72.13072 2 5 sctp 1500 -------D 0 2.0 5.0 1 75 148 0 74
r 72.13872 2 5 sctp 1500 -------D 0 2.0 5.0 1 66 138 0 65
+ 72.13872 5 2 sctp 48 -------S 0 5.0 2.0 1 66 155 65535 65535
- 72.13872 5 2 sctp 48 -------S 0 5.0 2.0 1 66 155 65535 65535
- 72.15472 2 5 sctp 1500 -------D 0 2.0 5.0 1 76 149 0 75
r 72.16272 2 5 sctp 1500 -------D 0 2.0 5.0 1 67 139 0 66
- 72.17872 2 5 sctp 1500 -------D 0 2.0 5.0 1 77 150 0 76
r 72.18672 2 5 sctp 1500 -------D 0 2.0 5.0 1 68 140 0 67
+ 72.18672 5 2 sctp 48 -------S 0 5.0 2.0 1 68 156 65535 65535
- 72.18672 5 2 sctp 48 -------S 0 5.0 2.0 1 68 156 65535 65535
- 72.20272 2 5 sctp 1500 -------D 0 2.0 5.0 1 78 151 0 77
r 72.21072 2 5 sctp 1500 -------D 0 2.0 5.0 1 69 141 0 68
r 72.21072 5 2 sctp 48 -------S 0 5.0 2.0 1 62 147 65535 65535
+ 72.21072 2 5 sctp 1500 -------D 0 2.0 5.0 1 81 157 0 80
+ 72.21072 2 5 sctp 1500 -------D 0 2.0 5.0 1 82 158 0 81
+ 72.21072 2 5 sctp 1500 -------D 0 2.0 5.0 1 83 159 0 82
- 72.22672 2 5 sctp 1500 -------D 0 2.0 5.0 1 79 152 0 78
r 72.23472 2 5 sctp 1500 -------D 0 2.0 5.0 1 70 142 0 69
+ 72.23472 5 2 sctp 48 -------S 0 5.0 2.0 1 70 160 65535 65535
- 72.23472 5 2 sctp 48 -------S 0 5.0 2.0 1 70 160 65535 65535
- 72.25072 2 5 sctp 1500 -------D 0 2.0 5.0 1 80 153 0 79
r 72.25872 2 5 sctp 1500 -------D 0 2.0 5.0 1 71 143 0 70
- 72.27472 2 5 sctp 1500 -------D 0 2.0 5.0 1 81 157 0 80
r 72.28272 2 5 sctp 1500 -------D 0 2.0 5.0 1 72 144 0 71
+ 72.28272 5 2 sctp 48 -------S 0 5.0 2.0 1 72 161 65535 65535
- 72.28272 5 2 sctp 48 -------S 0 5.0 2.0 1 72 161 65535 65535
r 72.291488 5 2 sctp 48 -------S 0 5.0 2.0 1 64 154 65535 65535
+ 72.291488 2 5 sctp 1500 -------D 0 2.0 5.0 1 84 162 0 83
+ 72.291488 2 5 sctp 1500 -------D 0 2.0 5.0 1 85 163 0 84
+ 72.291488 2 5 sctp 1500 -------D 0 2.0 5.0 1 86 164 0 85
- 72.29872 2 5 sctp 1500 -------D 0 2.0 5.0 1 82 158 0 81
r 72.30672 2 5 sctp 1500 -------D 0 2.0 5.0 1 73 145 0 72
- 72.32272 2 5 sctp 1500 -------D 0 2.0 5.0 1 83 159 0 82
r 72.33072 2 5 sctp 1500 -------D 0 2.0 5.0 1 74 146 0 73
+ 72.33072 5 2 sctp 48 -------S 0 5.0 2.0 1 74 165 65535 65535
- 72.33072 5 2 sctp 48 -------S 0 5.0 2.0 1 74 165 65535 65535
r 72.339488 5 2 sctp 48 -------S 0 5.0 2.0 1 66 155 65535 65535
+ 72.339488 2 5 sctp 1500 -------D 0 2.0 5.0 1 87 166 0 86
+ 72.339488 2 5 sctp 1500 -------D 0 2.0 5.0 1 88 167 0 87
+ 72.339488 2 5 sctp 1500 -------D 0 2.0 5.0 1 89 168 0 88
- 72.34672 2 5 sctp 1500 -------D 0 2.0 5.0 1 84 162 0 83
r 72.35472 2 5 sctp 1500 -------D 0 2.0 5.0 1 75 148 0 74
- 72.37072 2 5 sctp 1500 -------D 0 2.0 5.0 1 85 163 0 84
r 72.37872 2 5 sctp 1500 -------D 0 2.0 5.0 1 76 149 0 75
+ 72.37872 5 2 sctp 48 -------S 0 5.0 2.0 1 76 169 65535 65535
- 72.37872 5 2 sctp 48 -------S 0 5.0 2.0 1 76 169 65535 65535
r 72.387488 5 2 sctp 48 -------S 0 5.0 2.0 1 68 156 65535 65535
+ 72.387488 2 5 sctp 1500 -------D 0 2.0 5.0 1 90 170 0 89
+ 72.387488 2 5 sctp 1500 -------D 0 2.0 5.0 1 91 171 0 90
+ 72.387488 2 5 sctp 1500 -------D 0 2.0 5.0 1 92 172 0 91
- 72.39472 2 5 sctp 1500 -------D 0 2.0 5.0 1 86 164 0 85
r 72.40272 2 5 sctp 1500 -------D 0 2.0 5.0 1 77 150 0 76
- 72.41872 2 5 sctp 1500 -------D 0 2.0 5.0 1 87 166 0 86
r 72.42672 2 5 sctp 1500 -------D 0 2.0 5.0 1 78 151 0 77
+ 72.42672 5 2 sctp 48 -------S 0 5.0 2.0 1 78 173 65535 65535
- 72.42672 5 2 sctp 48 -------S 0 5.0 2.0 1 78 173 65535 65535
r 72.435488 5 2 sctp 48 -------S 0 5.0 2.0 1 70 160 65535 65535
+ 72.435488 2 5 sctp 1500 -------D 0 2.0 5.0 1 93 174 0 92
+ 72.435488 2 5 sctp 1500 -------D 0 2.0 5.0 1 94 175 0 93
+ 72.435488 2 5 sctp 1500 -------D 0 2.0 5.0 1 95 176 0 94
- 72.44272 2 5 sctp 1500 -------D 0 2.0 5.0 1 88 167 0 87
r 72.45072 2 5 sctp 1500 -------D 0 2.0 5.0 1 79 152 0 78
- 72.46672 2 5 sctp 1500 -------D 0 2.0 5.0 1 89 168 0 88
r 72.47472 2 5 sctp 1500 -------D 0 2.0 5.0 1 80 153 0 79
+ 72.47472 5 2 sctp 48 -------S 0 5.0 2.0 1 80 177 65535 65535
- 72.47472 5 2 sctp 48 -------S 0 5.0 2.0 1 80 177 65535 65535
r 72.483488 5 2 sctp 48 -------S 0 5.0 2.0 1 72 161 65535 65535
+ 72.483488 2 5 sctp 1500 -------D 0 2.0 5.0 1 96 178 0 95
+ 72.483488 2 5 sctp 1500 -------D 0 2.0 5.0 1 97 179 0 96
+ 72.483488 2 5 sctp 1500 -------D 0 2.0 5.0 1 98 180 0 97
- 72.49072 2 5 sctp 1500 -------D 0 2.0 5.0 1 90 170 0 89
r 72.49872 2 5 sctp 1500 -------D 0 2.0 5.0 1 81 157 0 80
- 72.51472 2 5 sctp 1500 -------D 0 2.0 5.0 1 91 171 0 90
r 72.52272 2 5 sctp 1500 -------D 0 2.0 5.0 1 82 158 0 81
+ 72.52272 5 2 sctp 48 -------S 0 5.0 2.0 1 82 181 65535 65535
- 72.52272 5 2 sctp 48 -------S 0 5.0 2.0 1 82 181 65535 65535
r 72.531488 5 2 sctp 48 -------S 0 5.0 2.0 1 74 165 65535 65535
+ 72.531488 2 5 sctp 1500 -------D 0 2.0 5.0 1 99 182 0 98
+ 72.531488 2 5 sctp 1500 -------D 0 2.0 5.0 1 100 183 0 99
+ 72.531488 2 5 sctp 1500 -------D 0 2.0 5.0 1 101 184 0 100
- 72.53872 2 5 sctp 1500 -------D 0 2.0 5.0 1 92 172 0 91
r 72.54672 2 5 sctp 1500 -------D 0 2.0 5.0 1 83 159 0 82
- 72.56272 2 5 sctp 1500 -------D 0 2.0 5.0 1 93 174 0 92
r 72.57072 2 5 sctp 1500 -------D 0 2.0 5.0 1 84 162 0 83
+ 72.57072 5 2 sctp 48 -------S 0 5.0 2.0 1 84 185 65535 65535
- 72.57072 5 2 sctp 48 -------S 0 5.0 2.0 1 84 185 65535 65535
r 72.579488 5 2 sctp 48 -------S 0 5.0 2.0 1 76 169 65535 65535
+ 72.579488 2 5 sctp 1500 -------D 0 2.0 5.0 1 102 186 0 101
+ 72.579488 2 5 sctp 1500 -------D 0 2.0 5.0 1 103 187 0 102
+ 72.579488 2 5 sctp 1500 -------D 0 2.0 5.0 1 104 188 0 103
- 72.58672 2 5 sctp 1500 -------D 0 2.0 5.0 1 94 175 0 93
r 72.59472 2 5 sctp 1500 -------D 0 2.0 5.0 1 85 163 0 84
- 72.61072 2 5 sctp 1500 -------D 0 2.0 5.0 1 95 176 0 94
r 72.61872 2 5 sctp 1500 -------D 0 2.0 5.0 1 86 164 0 85
+ 72.61872 5 2 sctp 48 -------S 0 5.0 2.0 1 86 189 65535 65535
- 72.61872 5 2 sctp 48 -------S 0 5.0 2.0 1 86 189 65535 65535
r 72.627488 5 2 sctp 48 -------S 0 5.0 2.0 1 78 173 65535 65535
+ 72.627488 2 5 sctp 1500 -------D 0 2.0 5.0 1 105 190 0 104
+ 72.627488 2 5 sctp 1500 -------D 0 2.0 5.0 1 106 191 0 105
+ 72.627488 2 5 sctp 1500 -------D 0 2.0 5.0 1 107 192 0 106
- 72.63472 2 5 sctp 1500 -------D 0 2.0 5.0 1 96 178 0 95
r 72.64272 2 5 sctp 1500 -------D 0 2.0 5.0 1 87 166 0 86
- 72.65872 2 5 sctp 1500 -------D 0 2.0 5.0 1 97 179 0 96
r 72.66672 2 5 sctp 1500 -------D 0 2.0 5.0 1 88 167 0 87
+ 72.66672 5 2 sctp 48 -------S 0 5.0 2.0 1 88 193 65535 65535
- 72.66672 5 2 sctp 48 -------S 0 5.0 2.0 1 88 193 65535 65535