+ 0.5 1 4 sctp 56 -------I 0 1.0 4.0 1 -1 4 65535 65535
- 0.5 1 4 sctp 56 -------I 0 1.0 4.0 1 -1 4 65535 65535
r 0.700896 1 4 sctp 56 -------I 0 1.0 4.0 1 -1 4 65535 65535
+ 0.700896 4 1 sctp 56 -------I 0 4.0 1.0 1 -1 5 65535 65535
- 0.700896 4 1 sctp 56 -------I 0 4.0 1.0 1 -1 5 65535 65535
r 0.901792 4 1 sctp 56 -------I 0 4.0 1.0 1 -1 5 65535 65535
+ 0.901792 1 4 sctp 36 -------I 0 1.0 4.0 1 -1 6 65535 65535
- 0.901792 1 4 sctp 36 -------I 0 1.0 4.0 1 -1 6 65535 65535
r 1.102368 1 4 sctp 36 -------I 0 1.0 4.0 1 -1 6 65535 65535
+ 1.102368 4 1 sctp 36 -------I 0 4.0 1.0 1 -1 7 65535 65535
- 1.102368 4 1 sctp 36 -------I 0 4.0 1.0 1 -1 7 65535 65535
r 1.302944 4 1 sctp 36 -------I 0 4.0 1.0 1 -1 7 65535 65535
+ 1.302944 1 4 sctp 56 -------H 0 1.0 4.0 1 -1 8 65535 65535
- 1.302944 1 4 sctp 56 -------H 0 1.0 4.0 1 -1 8 65535 65535
+ 1.302944 2 5 sctp 56 -------H 0 2.0 5.0 1 -1 9 65535 65535
- 1.302944 2 5 sctp 56 -------H 0 2.0 5.0 1 -1 9 65535 65535
r 1.50384 1 4 sctp 56 -------H 0 1.0 4.0 1 -1 8 65535 65535
+ 1.50384 4 1 sctp 56 -------B 0 4.0 1.0 1 -1 10 65535 65535
- 1.50384 4 1 sctp 56 -------B 0 4.0 1.0 1 -1 10 65535 65535
r 1.50384 2 5 sctp 56 -------H 0 2.0 5.0 1 -1 9 65535 65535
+ 1.50384 5 2 sctp 56 -------B 0 5.0 2.0 1 -1 11 65535 65535
- 1.50384 5 2 sctp 56 -------B 0 5.0 2.0 1 -1 11 65535 65535
r 1.704736 4 1 sctp 56 -------B 0 4.0 1.0 1 -1 10 65535 65535
r 1.704736 5 2 sctp 56 -------B 0 5.0 2.0 1 -1 11 65535 65535
+ 1.704736 1 4 sctp 1500 -------D 0 1.0 4.0 1 1 12 0 0
- 1.704736 1 4 sctp 1500 -------D 0 1.0 4.0 1 1 12 0 0
+ 1.704736 1 4 sctp 1500 -------D 0 1.0 4.0 1 2 13 0 1
+ 1.704736 1 4 sctp 1500 -------D 0 1.0 4.0 1 3 14 0 2
- 1.728736 1 4 sctp 1500 -------D 0 1.0 4.0 1 2 13 0 1
- 1.752736 1 4 sctp 1500 -------D 0 1.0 4.0 1 3 14 0 2
r 1.928736 1 4 sctp 1500 -------D 0 1.0 4.0 1 1 12 0 0
+ 1.928736 4 1 sctp 48 -------S 0 4.0 1.0 1 1 15 65535 65535
- 1.928736 4 1 sctp 48 -------S 0 4.0 1.0 1 1 15 65535 65535
r 1.952736 1 4 sctp 1500 -------D 0 1.0 4.0 1 2 13 0 1
r 1.976736 1 4 sctp 1500 -------D 0 1.0 4.0 1 3 14 0 2
+ 1.976736 4 1 sctp 48 -------S 0 4.0 1.0 1 3 16 65535 65535
- 1.976736 4 1 sctp 48 -------S 0 4.0 1.0 1 3 16 65535 65535
r 2.129504 4 1 sctp 48 -------S 0 4.0 1.0 1 1 15 65535 65535
+ 2.129504 1 4 sctp 1500 -------D 0 1.0 4.0 1 4 17 0 3
- 2.129504 1 4 sctp 1500 -------D 0 1.0 4.0 1 4 17 0 3
+ 2.129504 1 4 sctp 1500 -------D 0 1.0 4.0 1 5 18 0 4
- 2.153504 1 4 sctp 1500 -------D 0 1.0 4.0 1 5 18 0 4
r 2.177504 4 1 sctp 48 -------S 0 4.0 1.0 1 3 16 65535 65535
+ 2.177504 1 4 sctp 1500 -------D 0 1.0 4.0 1 6 19 0 5
+ 2.177504 1 4 sctp 1500 -------D 0 1.0 4.0 1 7 20 0 6
+ 2.177504 1 4 sctp 1500 -------D 0 1.0 4.0 1 8 21 0 7
- 2.177504 1 4 sctp 1500 -------D 0 1.0 4.0 1 6 19 0 5
- 2.201504 1 4 sctp 1500 -------D 0 1.0 4.0 1 7 20 0 6
- 2.225504 1 4 sctp 1500 -------D 0 1.0 4.0 1 8 21 0 7
r 2.353504 1 4 sctp 1500 -------D 0 1.0 4.0 1 4 17 0 3
r 2.377504 1 4 sctp 1500 -------D 0 1.0 4.0 1 5 18 0 4
+ 2.377504 4 1 sctp 48 -------S 0 4.0 1.0 1 5 22 65535 65535
- 2.377504 4 1 sctp 48 -------S 0 4.0 1.0 1 5 22 65535 65535
r 2.401504 1 4 sctp 1500 -------D 0 1.0 4.0 1 6 19 0 5
r 2.425504 1 4 sctp 1500 -------D 0 1.0 4.0 1 7 20 0 6
+ 2.425504 4 1 sctp 48 -------S 0 4.0 1.0 1 7 23 65535 65535
- 2.425504 4 1 sctp 48 -------S 0 4.0 1.0 1 7 23 65535 65535
r 2.449504 1 4 sctp 1500 -------D 0 1.0 4.0 1 8 21 0 7
r 2.578272 4 1 sctp 48 -------S 0 4.0 1.0 1 5 22 65535 65535
+ 2.578272 1 4 sctp 1500 -------D 0 1.0 4.0 1 9 24 0 8
- 2.578272 1 4 sctp 1500 -------D 0 1.0 4.0 1 9 24 0 8
+ 2.578272 1 4 sctp 1500 -------D 0 1.0 4.0 1 10 25 0 9
+ 2.578272 1 4 sctp 1500 -------D 0 1.0 4.0 1 11 26 0 10
- 2.602272 1 4 sctp 1500 -------D 0 1.0 4.0 1 10 25 0 9
r 2.626272 4 1 sctp 48 -------S 0 4.0 1.0 1 7 23 65535 65535
+ 2.626272 1 4 sctp 1500 -------D 0 1.0 4.0 1 12 27 0 11
+ 2.626272 1 4 sctp 1500 -------D 0 1.0 4.0 1 13 28 0 12
d 2.626272 1 4 sctp 1500 -------D 0 1.0 4.0 1 14 29 0 13
- 2.626272 1 4 sctp 1500 -------D 0 1.0 4.0 1 11 26 0 10
+ 2.649504 4 1 sctp 48 -------S 0 4.0 1.0 1 8 30 65535 65535
- 2.649504 4 1 sctp 48 -------S 0 4.0 1.0 1 8 30 65535 65535
- 2.650272 1 4 sctp 1500 -------D 0 1.0 4.0 1 12 27 0 11
- 2.674272 1 4 sctp 1500 -------D 0 1.0 4.0 1 13 28 0 12
r 2.802272 1 4 sctp 1500 -------D 0 1.0 4.0 1 9 24 0 8
r 2.826272 1 4 sctp 1500 -------D 0 1.0 4.0 1 10 25 0 9
+ 2.826272 4 1 sctp 48 -------S 0 4.0 1.0 1 10 31 65535 65535
- 2.826272 4 1 sctp 48 -------S 0 4.0 1.0 1 10 31 65535 65535
r 2.850272 1 4 sctp 1500 -------D 0 1.0 4.0 1 11 26 0 10
r 2.850272 4 1 sctp 48 -------S 0 4.0 1.0 1 8 30 65535 65535
+ 2.850272 1 4 sctp 1500 -------D 0 1.0 4.0 1 15 32 0 14
- 2.850272 1 4 sctp 1500 -------D 0 1.0 4.0 1 15 32 0 14
+ 2.850272 1 4 sctp 1500 -------D 0 1.0 4.0 1 16 33 0 15
r 2.874272 1 4 sctp 1500 -------D 0 1.0 4.0 1 12 27 0 11
+ 2.874272 4 1 sctp 48 -------S 0 4.0 1.0 1 12 34 65535 65535
- 2.874272 4 1 sctp 48 -------S 0 4.0 1.0 1 12 34 65535 65535
- 2.874272 1 4 sctp 1500 -------D 0 1.0 4.0 1 16 33 0 15
r 2.898272 1 4 sctp 1500 -------D 0 1.0 4.0 1 13 28 0 12
r 3.02704 4 1 sctp 48 -------S 0 4.0 1.0 1 10 31 65535 65535
+ 3.02704 1 4 sctp 1500 -------D 0 1.0 4.0 1 17 35 0 16
- 3.02704 1 4 sctp 1500 -------D 0 1.0 4.0 1 17 35 0 16
+ 3.02704 1 4 sctp 1500 -------D 0 1.0 4.0 1 18 36 0 17
+ 3.02704 1 4 sctp 1500 -------D 0 1.0 4.0 1 19 37 0 18
- 3.05104 1 4 sctp 1500 -------D 0 1.0 4.0 1 18 36 0 17
r 3.074272 1 4 sctp 1500 -------D 0 1.0 4.0 1 15 32 0 14
+ 3.074272 4 1 sctp 52 -------S 0 4.0 1.0 1 13 38 65535 65535
- 3.074272 4 1 sctp 52 -------S 0 4.0 1.0 1 13 38 65535 65535
r 3.07504 4 1 sctp 48 -------S 0 4.0 1.0 1 12 34 65535 65535
+ 3.07504 1 4 sctp 1500 -------D 0 1.0 4.0 1 20 39 0 19
+ 3.07504 1 4 sctp 1500 -------D 0 1.0 4.0 1 21 40 0 20
+ 3.07504 1 4 sctp 1500 -------D 0 1.0 4.0 1 22 41 0 21
- 3.07504 1 4 sctp 1500 -------D 0 1.0 4.0 1 19 37 0 18
r 3.098272 1 4 sctp 1500 -------D 0 1.0 4.0 1 16 33 0 15
+ 3.098272 4 1 sctp 52 -------S 0 4.0 1.0 1 13 42 65535 65535
- 3.098272 4 1 sctp 52 -------S 0 4.0 1.0 1 13 42 65535 65535
- 3.09904 1 4 sctp 1500 -------D 0 1.0 4.0 1 20 39 0 19
- 3.12304 1 4 sctp 1500 -------D 0 1.0 4.0 1 21 40 0 20
- 3.14704 1 4 sctp 1500 -------D 0 1.0 4.0 1 22 41 0 21
r 3.25104 1 4 sctp 1500 -------D 0 1.0 4.0 1 17 35 0 16
+ 3.25104 4 1 sctp 52 -------S 0 4.0 1.0 1 13 43 65535 65535
- 3.25104 4 1 sctp 52 -------S 0 4.0 1.0 1 13 43 65535 65535
r 3.27504 1 4 sctp 1500 -------D 0 1.0 4.0 1 18 36 0 17
+ 3.27504 4 1 sctp 52 -------S 0 4.0 1.0 1 13 44 65535 65535
- 3.27504 4 1 sctp 52 -------S 0 4.0 1.0 1 13 44 65535 65535
r 3.275104 4 1 sctp 52 -------S 0 4.0 1.0 1 13 38 65535 65535
+ 3.275104 1 4 sctp 1500 -------D 0 1.0 4.0 1 23 45 0 22
- 3.275104 1 4 sctp 1500 -------D 0 1.0 4.0 1 23 45 0 22
+ 3.275104 1 4 sctp 1500 -------D 0 1.0 4.0 1 24 46 0 23
+ 3.275104 1 4 sctp 1500 -------D 0 1.0 4.0 1 25 47 0 24
r 3.29904 1 4 sctp 1500 -------D 0 1.0 4.0 1 19 37 0 18
+ 3.29904 4 1 sctp 52 -------S 0 4.0 1.0 1 13 48 65535 65535
- 3.29904 4 1 sctp 52 -------S 0 4.0 1.0 1 13 48 65535 65535
r 3.299104 4 1 sctp 52 -------S 0 4.0 1.0 1 13 42 65535 65535
+ 3.299104 1 4 sctp 1500 -------D 0 1.0 4.0 1 26 49 0 25
- 3.299104 1 4 sctp 1500 -------D 0 1.0 4.0 1 24 46 0 23
r 3.32304 1 4 sctp 1500 -------D 0 1.0 4.0 1 20 39 0 19
+ 3.32304 4 1 sctp 52 -------S 0 4.0 1.0 1 13 50 65535 65535
- 3.32304 4 1 sctp 52 -------S 0 4.0 1.0 1 13 50 65535 65535
- 3.323104 1 4 sctp 1500 -------D 0 1.0 4.0 1 25 47 0 24
r 3.34704 1 4 sctp 1500 -------D 0 1.0 4.0 1 21 40 0 20
+ 3.34704 4 1 sctp 52 -------S 0 4.0 1.0 1 13 51 65535 65535
- 3.34704 4 1 sctp 52 -------S 0 4.0 1.0 1 13 51 65535 65535
- 3.347104 1 4 sctp 1500 -------D 0 1.0 4.0 1 26 49 0 25
r 3.37104 1 4 sctp 1500 -------D 0 1.0 4.0 1 22 41 0 21
+ 3.37104 4 1 sctp 52 -------S 0 4.0 1.0 1 13 52 65535 65535
- 3.37104 4 1 sctp 52 -------S 0 4.0 1.0 1 13 52 65535 65535
r 3.451872 4 1 sctp 52 -------S 0 4.0 1.0 1 13 43 65535 65535
d 3.451872 1 4 sctp 1500 -------D 0 1.0 4.0 1 14 53 0 13
r 3.475872 4 1 sctp 52 -------S 0 4.0 1.0 1 13 44 65535 65535
r 3.499104 1 4 sctp 1500 -------D 0 1.0 4.0 1 23 45 0 22
+ 3.499104 4 1 sctp 52 -------S 0 4.0 1.0 1 13 54 65535 65535
- 3.499104 4 1 sctp 52 -------S 0 4.0 1.0 1 13 54 65535 65535
r 3.499872 4 1 sctp 52 -------S 0 4.0 1.0 1 13 48 65535 65535
r 3.523104 1 4 sctp 1500 -------D 0 1.0 4.0 1 24 46 0 23
+ 3.523104 4 1 sctp 52 -------S 0 4.0 1.0 1 13 55 65535 65535
- 3.523104 4 1 sctp 52 -------S 0 4.0 1.0 1 13 55 65535 65535
r 3.523872 4 1 sctp 52 -------S 0 4.0 1.0 1 13 50 65535 65535
r 3.547104 1 4 sctp 1500 -------D 0 1.0 4.0 1 25 47 0 24
+ 3.547104 4 1 sctp 52 -------S 0 4.0 1.0 1 13 56 65535 65535
- 3.547104 4 1 sctp 52 -------S 0 4.0 1.0 1 13 56 65535 65535
r 3.547872 4 1 sctp 52 -------S 0 4.0 1.0 1 13 51 65535 65535
r 3.571104 1 4 sctp 1500 -------D 0 1.0 4.0 1 26 49 0 25
+ 3.571104 4 1 sctp 52 -------S 0 4.0 1.0 1 13 57 65535 65535
- 3.571104 4 1 sctp 52 -------S 0 4.0 1.0 1 13 57 65535 65535
r 3.571872 4 1 sctp 52 -------S 0 4.0 1.0 1 13 52 65535 65535
+ 3.571872 1 4 sctp 1500 -------D 0 1.0 4.0 1 27 58 0 26
- 3.571872 1 4 sctp 1500 -------D 0 1.0 4.0 1 27 58 0 26
r 3.699936 4 1 sctp 52 -------S 0 4.0 1.0 1 13 54 65535 65535
+ 3.699936 1 4 sctp 1500 -------D 0 1.0 4.0 1 28 59 0 27
- 3.699936 1 4 sctp 1500 -------D 0 1.0 4.0 1 28 59 0 27
r 3.723936 4 1 sctp 52 -------S 0 4.0 1.0 1 13 55 65535 65535
+ 3.723936 1 4 sctp 1500 -------D 0 1.0 4.0 1 29 60 0 28
- 3.723936 1 4 sctp 1500 -------D 0 1.0 4.0 1 29 60 0 28
r 3.747936 4 1 sctp 52 -------S 0 4.0 1.0 1 13 56 65535 65535
+ 3.747936 1 4 sctp 1500 -------D 0 1.0 4.0 1 30 61 0 29
- 3.747936 1 4 sctp 1500 -------D 0 1.0 4.0 1 30 61 0 29
r 3.771936 4 1 sctp 52 -------S 0 4.0 1.0 1 13 57 65535 65535
+ 3.771936 1 4 sctp 1500 -------D 0 1.0 4.0 1 31 62 0 30
- 3.771936 1 4 sctp 1500 -------D 0 1.0 4.0 1 31 62 0 30
r 3.795872 1 4 sctp 1500 -------D 0 1.0 4.0 1 27 58 0 26
+ 3.795872 4 1 sctp 52 -------S 0 4.0 1.0 1 13 63 65535 65535
- 3.795872 4 1 sctp 52 -------S 0 4.0 1.0 1 13 63 65535 65535
r 3.923936 1 4 sctp 1500 -------D 0 1.0 4.0 1 28 59 0 27
+ 3.923936 4 1 sctp 52 -------S 0 4.0 1.0 1 13 64 65535 65535
- 3.923936 4 1 sctp 52 -------S 0 4.0 1.0 1 13 64 65535 65535
r 3.947936 1 4 sctp 1500 -------D 0 1.0 4.0 1 29 60 0 28
+ 3.947936 4 1 sctp 52 -------S 0 4.0 1.0 1 13 65 65535 65535
- 3.947936 4 1 sctp 52 -------S 0 4.0 1.0 1 13 65 65535 65535
r 3.971936 1 4 sctp 1500 -------D 0 1.0 4.0 1 30 61 0 29
+ 3.971936 4 1 sctp 52 -------S 0 4.0 1.0 1 13 66 65535 65535
- 3.971936 4 1 sctp 52 -------S 0 4.0 1.0 1 13 66 65535 65535
r 3.995936 1 4 sctp 1500 -------D 0 1.0 4.0 1 31 62 0 30
+ 3.995936 4 1 sctp 52 -------S 0 4.0 1.0 1 13 67 65535 65535
- 3.995936 4 1 sctp 52 -------S 0 4.0 1.0 1 13 67 65535 65535
r 3.996704 4 1 sctp 52 -------S 0 4.0 1.0 1 13 63 65535 65535
+ 3.996704 1 4 sctp 1500 -------D 0 1.0 4.0 1 32 68 0 31
- 3.996704 1 4 sctp 1500 -------D 0 1.0 4.0 1 32 68 0 31
r 4.124768 4 1 sctp 52 -------S 0 4.0 1.0 1 13 64 65535 65535
+ 4.124768 1 4 sctp 1500 -------D 0 1.0 4.0 1 33 69 0 32
- 4.124768 1 4 sctp 1500 -------D 0 1.0 4.0 1 33 69 0 32
r 4.148768 4 1 sctp 52 -------S 0 4.0 1.0 1 13 65 65535 65535
+ 4.148768 1 4 sctp 1500 -------D 0 1.0 4.0 1 34 70 0 33
- 4.148768 1 4 sctp 1500 -------D 0 1.0 4.0 1 34 70 0 33
r 4.172768 4 1 sctp 52 -------S 0 4.0 1.0 1 13 66 65535 65535
+ 4.172768 1 4 sctp 1500 -------D 0 1.0 4.0 1 35 71 0 34
- 4.172768 1 4 sctp 1500 -------D 0 1.0 4.0 1 35 71 0 34
r 4.196768 4 1 sctp 52 -------S 0 4.0 1.0 1 13 67 65535 65535
+ 4.196768 1 4 sctp 1500 -------D 0 1.0 4.0 1 36 72 0 35
- 4.196768 1 4 sctp 1500 -------D 0 1.0 4.0 1 36 72 0 35
r 4.220704 1 4 sctp 1500 -------D 0 1.0 4.0 1 32 68 0 31
+ 4.220704 4 1 sctp 52 -------S 0 4.0 1.0 1 13 73 65535 65535
- 4.220704 4 1 sctp 52 -------S 0 4.0 1.0 1 13 73 65535 65535
r 4.348768 1 4 sctp 1500 -------D 0 1.0 4.0 1 33 69 0 32
+ 4.348768 4 1 sctp 52 -------S 0 4.0 1.0 1 13 74 65535 65535
- 4.348768 4 1 sctp 52 -------S 0 4.0 1.0 1 13 74 65535 65535
r 4.372768 1 4 sctp 1500 -------D 0 1.0 4.0 1 34 70 0 33
+ 4.372768 4 1 sctp 52 -------S 0 4.0 1.0 1 13 75 65535 65535
- 4.372768 4 1 sctp 52 -------S 0 4.0 1.0 1 13 75 65535 65535
r 4.396768 1 4 sctp 1500 -------D 0 1.0 4.0 1 35 71 0 34
+ 4.396768 4 1 sctp 52 -------S 0 4.0 1.0 1 13 76 65535 65535
- 4.396768 4 1 sctp 52 -------S 0 4.0 1.0 1 13 76 65535 65535
r 4.420768 1 4 sctp 1500 -------D 0 1.0 4.0 1 36 72 0 35
+ 4.420768 4 1 sctp 52 -------S 0 4.0 1.0 1 13 77 65535 65535
- 4.420768 4 1 sctp 52 -------S 0 4.0 1.0 1 13 77 65535 65535
r 4.421536 4 1 sctp 52 -------S 0 4.0 1.0 1 13 73 65535 65535
+ 4.421536 1 4 sctp 1500 -------D 0 1.0 4.0 1 37 78 0 36
- 4.421536 1 4 sctp 1500 -------D 0 1.0 4.0 1 37 78 0 36
+ 4.451872 2 5 sctp 1500 -------D 0 2.0 5.0 1 14 79 0 13
- 4.451872 2 5 sctp 1500 -------D 0 2.0 5.0 1 14 79 0 13
r 4.5496 4 1 sctp 52 -------S 0 4.0 1.0 1 13 74 65535 65535
+ 4.5496 2 5 sctp 1500 -------D 0 2.0 5.0 1 34 80 0 33
- 4.5496 2 5 sctp 1500 -------D 0 2.0 5.0 1 34 80 0 33
+ 4.5496 2 5 sctp 1500 -------D 0 2.0 5.0 1 35 81 0 34
r 4.5736 4 1 sctp 52 -------S 0 4.0 1.0 1 13 75 65535 65535
+ 4.5736 2 5 sctp 1500 -------D 0 2.0 5.0 1 36 82 0 35
- 4.5736 2 5 sctp 1500 -------D 0 2.0 5.0 1 35 81 0 34
r 4.5976 4 1 sctp 52 -------S 0 4.0 1.0 1 13 76 65535 65535
+ 4.5976 2 5 sctp 1500 -------D 0 2.0 5.0 1 37 83 0 36
+ 4.5976 1 4 sctp 1500 -------D 0 1.0 4.0 1 38 84 0 37
- 4.5976 1 4 sctp 1500 -------D 0 1.0 4.0 1 38 84 0 37
- 4.5976 2 5 sctp 1500 -------D 0 2.0 5.0 1 36 82 0 35
r 4.6216 4 1 sctp 52 -------S 0 4.0 1.0 1 13 77 65535 65535
- 4.6216 2 5 sctp 1500 -------D 0 2.0 5.0 1 37 83 0 36
r 4.645536 1 4 sctp 1500 -------D 0 1.0 4.0 1 37 78 0 36
+ 4.645536 4 1 sctp 52 -------S 0 4.0 1.0 1 13 85 65535 65535
- 4.645536 4 1 sctp 52 -------S 0 4.0 1.0 1 13 85 65535 65535
r 4.675872 2 5 sctp 1500 -------D 0 2.0 5.0 1 14 79 0 13
r 4.7736 2 5 sctp 1500 -------D 0 2.0 5.0 1 34 80 0 33
+ 4.7736 5 2 sctp 52 -------S 0 5.0 2.0 1 37 86 65535 65535
- 4.7736 5 2 sctp 52 -------S 0 5.0 2.0 1 37 86 65535 65535
r 4.7976 2 5 sctp 1500 -------D 0 2.0 5.0 1 35 81 0 34
+ 4.7976 5 2 sctp 52 -------S 0 5.0 2.0 1 37 87 65535 65535
- 4.7976 5 2 sctp 52 -------S 0 5.0 2.0 1 37 87 65535 65535
r 4.8216 1 4 sctp 1500 -------D 0 1.0 4.0 1 38 84 0 37
+ 4.8216 4 1 sctp 48 -------S 0 4.0 1.0 1 38 88 65535 65535
- 4.8216 4 1 sctp 48 -------S 0 4.0 1.0 1 38 88 65535 65535
r 4.8216 2 5 sctp 1500 -------D 0 2.0 5.0 1 36 82 0 35
+ 4.8216 5 2 sctp 52 -------S 0 5.0 2.0 1 38 89 65535 65535
- 4.8216 5 2 sctp 52 -------S 0 5.0 2.0 1 38 89 65535 65535
r 4.8456 2 5 sctp 1500 -------D 0 2.0 5.0 1 37 83 0 36
+ 4.8456 5 2 sctp 52 -------S 0 5.0 2.0 1 38 90 65535 65535
- 4.8456 5 2 sctp 52 -------S 0 5.0 2.0 1 38 90 65535 65535
r 4.846368 4 1 sctp 52 -------S 0 4.0 1.0 1 13 85 65535 65535
r 4.974432 5 2 sctp 52 -------S 0 5.0 2.0 1 37 86 65535 65535
r 4.998432 5 2 sctp 52 -------S 0 5.0 2.0 1 37 87 65535 65535
r 5.022368 4 1 sctp 48 -------S 0 4.0 1.0 1 38 88 65535 65535
+ 5.022368 1 4 sctp 1500 -------D 0 1.0 4.0 1 39 91 0 38
- 5.022368 1 4 sctp 1500 -------D 0 1.0 4.0 1 39 91 0 38
+ 5.022368 1 4 sctp 1500 -------D 0 1.0 4.0 1 40 92 0 39
r 5.022432 5 2 sctp 52 -------S 0 5.0 2.0 1 38 89 65535 65535
- 5.046368 1 4 sctp 1500 -------D 0 1.0 4.0 1 40 92 0 39
r 5.046432 5 2 sctp 52 -------S 0 5.0 2.0 1 38 90 65535 65535
r 5.246368 1 4 sctp 1500 -------D 0 1.0 4.0 1 39 91 0 38
r 5.270368 1 4 sctp 1500 -------D 0 1.0 4.0 1 40 92 0 39
+ 5.270368 4 1 sctp 48 -------S 0 4.0 1.0 1 40 93 65535 65535
- 5.270368 4 1 sctp 48 -------S 0 4.0 1.0 1 40 93 65535 65535
r 5.471136 4 1 sctp 48 -------S 0 4.0 1.0 1 40 93 65535 65535
+ 5.471136 1 4 sctp 1500 -------D 0 1.0 4.0 1 41 94 0 40
- 5.471136 1 4 sctp 1500 -------D 0 1.0 4.0 1 41 94 0 40
+ 5.471136 1 4 sctp 1500 -------D 0 1.0 4.0 1 42 95 0 41
+ 5.471136 1 4 sctp 1500 -------D 0 1.0 4.0 1 43 96 0 42
- 5.495136 1 4 sctp 1500 -------D 0 1.0 4.0 1 42 95 0 41
- 5.519136 1 4 sctp 1500 -------D 0 1.0 4.0 1 43 96 0 42
r 5.695136 1 4 sctp 1500 -------D 0 1.0 4.0 1 41 94 0 40
r 5.719136 1 4 sctp 1500 -------D 0 1.0 4.0 1 42 95 0 41
+ 5.719136 4 1 sctp 48 -------S 0 4.0 1.0 1 42 97 65535 65535
- 5.719136 4 1 sctp 48 -------S 0 4.0 1.0 1 42 97 65535 65535
r 5.743136 1 4 sctp 1500 -------D 0 1.0 4.0 1 43 96 0 42
r 5.919904 4 1 sctp 48 -------S 0 4.0 1.0 1 42 97 65535 65535
+ 5.919904 1 4 sctp 1500 -------D 0 1.0 4.0 1 44 98 0 43
- 5.919904 1 4 sctp 1500 -------D 0 1.0 4.0 1 44 98 0 43
+ 5.919904 1 4 sctp 1500 -------D 0 1.0 4.0 1 45 99 0 44
+ 5.919904 1 4 sctp 1500 -------D 0 1.0 4.0 1 46 100 0 45
+ 5.943136 4 1 sctp 48 -------S 0 4.0 1.0 1 43 101 65535 65535
- 5.943136 4 1 sctp 48 -------S 0 4.0 1.0 1 43 101 65535 65535
- 5.943904 1 4 sctp 1500 -------D 0 1.0 4.0 1 45 99 0 44
- 5.967904 1 4 sctp 1500 -------D 0 1.0 4.0 1 46 100 0 45
r 6.143904 1 4 sctp 1500 -------D 0 1.0 4.0 1 44 98 0 43
r 6.143904 4 1 sctp 48 -------S 0 4.0 1.0 1 43 101 65535 65535
+ 6.143904 1 4 sctp 1500 -------D 0 1.0 4.0 1 47 102 0 46
- 6.143904 1 4 sctp 1500 -------D 0 1.0 4.0 1 47 102 0 46
+ 6.143904 1 4 sctp 1500 -------D 0 1.0 4.0 1 48 103 0 47
r 6.167904 1 4 sctp 1500 -------D 0 1.0 4.0 1 45 99 0 44
+ 6.167904 4 1 sctp 48 -------S 0 4.0 1.0 1 45 104 65535 65535
- 6.167904 4 1 sctp 48 -------S 0 4.0 1.0 1 45 104 65535 65535
- 6.167904 1 4 sctp 1500 -------D 0 1.0 4.0 1 48 103 0 47
r 6.191904 1 4 sctp 1500 -------D 0 1.0 4.0 1 46 100 0 45
r 6.367904 1 4 sctp 1500 -------D 0 1.0 4.0 1 47 102 0 46
+ 6.367904 4 1 sctp 48 -------S 0 4.0 1.0 1 47 105 65535 65535
- 6.367904 4 1 sctp 48 -------S 0 4.0 1.0 1 47 105 65535 65535
r 6.368672 4 1 sctp 48 -------S 0 4.0 1.0 1 45 104 65535 65535
+ 6.368672 1 4 sctp 1500 -------D 0 1.0 4.0 1 49 106 0 48
- 6.368672 1 4 sctp 1500 -------D 0 1.0 4.0 1 49 106 0 48
+ 6.368672 1 4 sctp 1500 -------D 0 1.0 4.0 1 50 107 0 49
r 6.391904 1 4 sctp 1500 -------D 0 1.0 4.0 1 48 103 0 47
- 6.392672 1 4 sctp 1500 -------D 0 1.0 4.0 1 50 107 0 49
r 6.568672 4 1 sctp 48 -------S 0 4.0 1.0 1 47 105 65535 65535
+ 6.568672 1 4 sctp 1500 -------D 0 1.0 4.0 1 51 108 0 50
- 6.568672 1 4 sctp 1500 -------D 0 1.0 4.0 1 51 108 0 50
+ 6.568672 1 4 sctp 1500 -------D 0 1.0 4.0 1 52 109 0 51
+ 6.591904 4 1 sctp 48 -------S 0 4.0 1.0 1 48 110 65535 65535
- 6.591904 4 1 sctp 48 -------S 0 4.0 1.0 1 48 110 65535 65535
r 6.592672 1 4 sctp 1500 -------D 0 1.0 4.0 1 49 106 0 48
- 6.592672 1 4 sctp 1500 -------D 0 1.0 4.0 1 52 109 0 51
r 6.616672 1 4 sctp 1500 -------D 0 1.0 4.0 1 50 107 0 49
+ 6.616672 4 1 sctp 48 -------S 0 4.0 1.0 1 50 111 65535 65535
- 6.616672 4 1 sctp 48 -------S 0 4.0 1.0 1 50 111 65535 65535
r 6.792672 1 4 sctp 1500 -------D 0 1.0 4.0 1 51 108 0 50
r 6.792672 4 1 sctp 48 -------S 0 4.0 1.0 1 48 110 65535 65535
+ 6.792672 1 4 sctp 1500 -------D 0 1.0 4.0 1 53 112 0 52
- 6.792672 1 4 sctp 1500 -------D 0 1.0 4.0 1 53 112 0 52
+ 6.792672 1 4 sctp 1500 -------D 0 1.0 4.0 1 54 113 0 53
r 6.816672 1 4 sctp 1500 -------D 0 1.0 4.0 1 52 109 0 51
+ 6.816672 4 1 sctp 48 -------S 0 4.0 1.0 1 52 114 65535 65535
- 6.816672 4 1 sctp 48 -------S 0 4.0 1.0 1 52 114 65535 65535
- 6.816672 1 4 sctp 1500 -------D 0 1.0 4.0 1 54 113 0 53
r 6.81744 4 1 sctp 48 -------S 0 4.0 1.0 1 50 111 65535 65535
+ 6.81744 1 4 sctp 1500 -------D 0 1.0 4.0 1 55 115 0 54
+ 6.81744 1 4 sctp 1500 -------D 0 1.0 4.0 1 56 116 0 55
- 6.840672 1 4 sctp 1500 -------D 0 1.0 4.0 1 55 115 0 54
- 6.864672 1 4 sctp 1500 -------D 0 1.0 4.0 1 56 116 0 55
r 7.016672 1 4 sctp 1500 -------D 0 1.0 4.0 1 53 112 0 52
r 7.01744 4 1 sctp 48 -------S 0 4.0 1.0 1 52 114 65535 65535
+ 7.01744 1 4 sctp 1500 -------D 0 1.0 4.0 1 57 117 0 56
- 7.01744 1 4 sctp 1500 -------D 0 1.0 4.0 1 57 117 0 56
+ 7.01744 1 4 sctp 1500 -------D 0 1.0 4.0 1 58 118 0 57
r 7.040672 1 4 sctp 1500 -------D 0 1.0 4.0 1 54 113 0 53
+ 7.040672 4 1 sctp 48 -------S 0 4.0 1.0 1 54 119 65535 65535
- 7.040672 4 1 sctp 48 -------S 0 4.0 1.0 1 54 119 65535 65535
- 7.04144 1 4 sctp 1500 -------D 0 1.0 4.0 1 58 118 0 57
r 7.064672 1 4 sctp 1500 -------D 0 1.0 4.0 1 55 115 0 54
r 7.088672 1 4 sctp 1500 -------D 0 1.0 4.0 1 56 116 0 55
+ 7.088672 4 1 sctp 48 -------S 0 4.0 1.0 1 56 120 65535 65535
- 7.088672 4 1 sctp 48 -------S 0 4.0 1.0 1 56 120 65535 65535
r 7.24144 1 4 sctp 1500 -------D 0 1.0 4.0 1 57 117 0 56
r 7.24144 4 1 sctp 48 -------S 0 4.0 1.0 1 54 119 65535 65535
+ 7.24144 1 4 sctp 1500 -------D 0 1.0 4.0 1 59 121 0 58
- 7.24144 1 4 sctp 1500 -------D 0 1.0 4.0 1 59 121 0 58
+ 7.24144 1 4 sctp 1500 -------D 0 1.0 4.0 1 60 122 0 59
+ 7.24144 1 4 sctp 1500 -------D 0 1.0 4.0 1 61 123 0 60
r 7.26544 1 4 sctp 1500 -------D 0 1.0 4.0 1 58 118 0 57
+ 7.26544 4 1 sctp 48 -------S 0 4.0 1.0 1 58 124 65535 65535
- 7.26544 4 1 sctp 48 -------S 0 4.0 1.0 1 58 124 65535 65535
- 7.26544 1 4 sctp 1500 -------D 0 1.0 4.0 1 60 122 0 59
r 7.28944 4 1 sctp 48 -------S 0 4.0 1.0 1 56 120 65535 65535
+ 7.28944 1 4 sctp 1500 -------D 0 1.0 4.0 1 62 125 0 61
+ 7.28944 1 4 sctp 1500 -------D 0 1.0 4.0 1 63 126 0 62
- 7.28944 1 4 sctp 1500 -------D 0 1.0 4.0 1 61 123 0 60
- 7.31344 1 4 sctp 1500 -------D 0 1.0 4.0 1 62 125 0 61
- 7.33744 1 4 sctp 1500 -------D 0 1.0 4.0 1 63 126 0 62
r 7.46544 1 4 sctp 1500 -------D 0 1.0 4.0 1 59 121 0 58
r 7.466208 4 1 sctp 48 -------S 0 4.0 1.0 1 58 124 65535 65535
+ 7.466208 1 4 sctp 1500 -------D 0 1.0 4.0 1 64 127 0 63
- 7.466208 1 4 sctp 1500 -------D 0 1.0 4.0 1 64 127 0 63
+ 7.466208 1 4 sctp 1500 -------D 0 1.0 4.0 1 65 128 0 64
r 7.48944 1 4 sctp 1500 -------D 0 1.0 4.0 1 60 122 0 59
+ 7.48944 4 1 sctp 48 -------S 0 4.0 1.0 1 60 129 65535 65535
- 7.48944 4 1 sctp 48 -------S 0 4.0 1.0 1 60 129 65535 65535
- 7.490208 1 4 sctp 1500 -------D 0 1.0 4.0 1 65 128 0 64
r 7.51344 1 4 sctp 1500 -------D 0 1.0 4.0 1 61 123 0 60
r 7.53744 1 4 sctp 1500 -------D 0 1.0 4.0 1 62 125 0 61
+ 7.53744 4 1 sctp 48 -------S 0 4.0 1.0 1 62 130 65535 65535
- 7.53744 4 1 sctp 48 -------S 0 4.0 1.0 1 62 130 65535 65535
r 7.56144 1 4 sctp 1500 -------D 0 1.0 4.0 1 63 126 0 62
r 7.690208 1 4 sctp 1500 -------D 0 1.0 4.0 1 64 127 0 63
+ 7.690208 4 1 sctp 48 -------S 0 4.0 1.0 1 64 131 65535 65535
- 7.690208 4 1 sctp 48 -------S 0 4.0 1.0 1 64 131 65535 65535
r 7.690208 4 1 sctp 48 -------S 0 4.0 1.0 1 60 129 65535 65535
+ 7.690208 1 4 sctp 1500 -------D 0 1.0 4.0 1 66 132 0 65
- 7.690208 1 4 sctp 1500 -------D 0 1.0 4.0 1 66 132 0 65
+ 7.690208 1 4 sctp 1500 -------D 0 1.0 4.0 1 67 133 0 66
r 7.714208 1 4 sctp 1500 -------D 0 1.0 4.0 1 65 128 0 64
- 7.714208 1 4 sctp 1500 -------D 0 1.0 4.0 1 67 133 0 66
r 7.738208 4 1 sctp 48 -------S 0 4.0 1.0 1 62 130 65535 65535
+ 7.738208 1 4 sctp 1500 -------D 0 1.0 4.0 1 68 134 0 67
+ 7.738208 1 4 sctp 1500 -------D 0 1.0 4.0 1 69 135 0 68
+ 7.738208 1 4 sctp 1500 -------D 0 1.0 4.0 1 70 136 0 69
- 7.738208 1 4 sctp 1500 -------D 0 1.0 4.0 1 68 134 0 67
- 7.762208 1 4 sctp 1500 -------D 0 1.0 4.0 1 69 135 0 68
- 7.786208 1 4 sctp 1500 -------D 0 1.0 4.0 1 70 136 0 69
r 7.890976 4 1 sctp 48 -------S 0 4.0 1.0 1 64 131 65535 65535
+ 7.890976 1 4 sctp 1500 -------D 0 1.0 4.0 1 71 137 0 70
- 7.890976 1 4 sctp 1500 -------D 0 1.0 4.0 1 71 137 0 70
+ 7.890976 1 4 sctp 1500 -------D 0 1.0 4.0 1 72 138 0 71
r 7.914208 1 4 sctp 1500 -------D 0 1.0 4.0 1 66 132 0 65
+ 7.914208 4 1 sctp 48 -------S 0 4.0 1.0 1 66 139 65535 65535
- 7.914208 4 1 sctp 48 -------S 0 4.0 1.0 1 66 139 65535 65535
- 7.914976 1 4 sctp 1500 -------D 0 1.0 4.0 1 72 138 0 71
r 7.938208 1 4 sctp 1500 -------D 0 1.0 4.0 1 67 133 0 66
r 7.962208 1 4 sctp 1500 -------D 0 1.0 4.0 1 68 134 0 67
+ 7.962208 4 1 sctp 48 -------S 0 4.0 1.0 1 68 140 65535 65535
- 7.962208 4 1 sctp 48 -------S 0 4.0 1.0 1 68 140 65535 65535
r 7.986208 1 4 sctp 1500 -------D 0 1.0 4.0 1 69 135 0 68
r 8.010208 1 4 sctp 1500 -------D 0 1.0 4.0 1 70 136 0 69
+ 8.010208 4 1 sctp 48 -------S 0 4.0 1.0 1 70 141 65535 65535
- 8.010208 4 1 sctp 48 -------S 0 4.0 1.0 1 70 141 65535 65535
r 8.114976 1 4 sctp 1500 -------D 0 1.0 4.0 1 71 137 0 70
r 8.114976 4 1 sctp 48 -------S 0 4.0 1.0 1 66 139 65535 65535
+ 8.114976 1 4 sctp 1500 -------D 0 1.0 4.0 1 73 142 0 72
- 8.114976 1 4 sctp 1500 -------D 0 1.0 4.0 1 73 142 0 72
+ 8.114976 1 4 sctp 1500 -------D 0 1.0 4.0 1 74 143 0 73
r 8.138976 1 4 sctp 1500 -------D 0 1.0 4.0 1 72 138 0 71
+ 8.138976 4 1 sctp 48 -------S 0 4.0 1.0 1 72 144 65535 65535
- 8.138976 4 1 sctp 48 -------S 0 4.0 1.0 1 72 144 65535 65535
- 8.138976 1 4 sctp 1500 -------D 0 1.0 4.0 1 74 143 0 73
r 8.162976 4 1 sctp 48 -------S 0 4.0 1.0 1 68 140 65535 65535
+ 8.162976 1 4 sctp 1500 -------D 0 1.0 4.0 1 75 145 0 74
- 8.162976 1 4 sctp 1500 -------D 0 1.0 4.0 1 75 145 0 74
+ 8.162976 1 4 sctp 1500 -------D 0 1.0 4.0 1 76 146 0 75
- 8.186976 1 4 sctp 1500 -------D 0 1.0 4.0 1 76 146 0 75
r 8.210976 4 1 sctp 48 -------S 0 4.0 1.0 1 70 141 65535 65535
+ 8.210976 1 4 sctp 1500 -------D 0 1.0 4.0 1 77 147 0 76
- 8.210976 1 4 sctp 1500 -------D 0 1.0 4.0 1 77 147 0 76
+ 8.210976 1 4 sctp 1500 -------D 0 1.0 4.0 1 78 148 0 77
+ 8.210976 1 4 sctp 1500 -------D 0 1.0 4.0 1 79 149 0 78
- 8.234976 1 4 sctp 1500 -------D 0 1.0 4.0 1 78 148 0 77
- 8.258976 1 4 sctp 1500 -------D 0 1.0 4.0 1 79 149 0 78
r 8.338976 1 4 sctp 1500 -------D 0 1.0 4.0 1 73 142 0 72
r 8.339744 4 1 sctp 48 -------S 0 4.0 1.0 1 72 144 65535 65535
+ 8.339744 1 4 sctp 1500 -------D 0 1.0 4.0 1 80 150 0 79
- 8.339744 1 4 sctp 1500 -------D 0 1.0 4.0 1 80 150 0 79
+ 8.339744 1 4 sctp 1500 -------D 0 1.0 4.0 1 81 151 0 80
r 8.362976 1 4 sctp 1500 -------D 0 1.0 4.0 1 74 143 0 73
+ 8.362976 4 1 sctp 48 -------S 0 4.0 1.0 1 74 152 65535 65535
- 8.362976 4 1 sctp 48 -------S 0 4.0 1.0 1 74 152 65535 65535
- 8.363744 1 4 sctp 1500 -------D 0 1.0 4.0 1 81 151 0 80
r 8.386976 1 4 sctp 1500 -------D 0 1.0 4.0 1 75 145 0 74
r 8.410976 1 4 sctp 1500 -------D 0 1.0 4.0 1 76 146 0 75
+ 8.410976 4 1 sctp 48 -------S 0 4.0 1.0 1 76 153 65535 65535
- 8.410976 4 1 sctp 48 -------S 0 4.0 1.0 1 76 153 65535 65535
r 8.434976 1 4 sctp 1500 -------D 0 1.0 4.0 1 77 147 0 76
r 8.458976 1 4 sctp 1500 -------D 0 1.0 4.0 1 78 148 0 77
+ 8.458976 4 1 sctp 48 -------S 0 4.0 1.0 1 78 154 65535 65535
- 8.458976 4 1 sctp 48 -------S 0 4.0 1.0 1 78 154 65535 65535
r 8.482976 1 4 sctp 1500 -------D 0 1.0 4.0 1 79 149 0 78
r 8.563744 1 4 sctp 1500 -------D 0 1.0 4.0 1 80 150 0 79
+ 8.563744 4 1 sctp 48 -------S 0 4.0 1.0 1 80 155 65535 65535
- 8.563744 4 1 sctp 48 -------S 0 4.0 1.0 1 80 155 65535 65535
r 8.563744 4 1 sctp 48 -------S 0 4.0 1.0 1 74 152 65535 65535
+ 8.563744 1 4 sctp 1500 -------D 0 1.0 4.0 1 82 156 0 81
- 8.563744 1 4 sctp 1500 -------D 0 1.0 4.0 1 82 156 0 81
+ 8.563744 1 4 sctp 1500 -------D 0 1.0 4.0 1 83 157 0 82
r 8.587744 1 4 sctp 1500 -------D 0 1.0 4.0 1 81 151 0 80
- 8.587744 1 4 sctp 1500 -------D 0 1.0 4.0 1 83 157 0 82
r 8.611744 4 1 sctp 48 -------S 0 4.0 1.0 1 76 153 65535 65535
+ 8.611744 1 4 sctp 1500 -------D 0 1.0 4.0 1 84 158 0 83
- 8.611744 1 4 sctp 1500 -------D 0 1.0 4.0 1 84 158 0 83
+ 8.611744 1 4 sctp 1500 -------D 0 1.0 4.0 1 85 159 0 84
- 8.635744 1 4 sctp 1500 -------D 0 1.0 4.0 1 85 159 0 84
r 8.659744 4 1 sctp 48 -------S 0 4.0 1.0 1 78 154 65535 65535
+ 8.659744 1 4 sctp 1500 -------D 0 1.0 4.0 1 86 160 0 85
- 8.659744 1 4 sctp 1500 -------D 0 1.0 4.0 1 86 160 0 85
+ 8.659744 1 4 sctp 1500 -------D 0 1.0 4.0 1 87 161 0 86
+ 8.659744 1 4 sctp 1500 -------D 0 1.0 4.0 1 88 162 0 87
- 8.683744 1 4 sctp 1500 -------D 0 1.0 4.0 1 87 161 0 86
- 8.707744 1 4 sctp 1500 -------D 0 1.0 4.0 1 88 162 0 87
r 8.764512 4 1 sctp 48 -------S 0 4.0 1.0 1 80 155 65535 65535
+ 8.764512 1 4 sctp 1500 -------D 0 1.0 4.0 1 89 163 0 88
- 8.764512 1 4 sctp 1500 -------D 0 1.0 4.0 1 89 163 0 88
+ 8.764512 1 4 sctp 1500 -------D 0 1.0 4.0 1 90 164 0 89
+ 8.787744 4 1 sctp 48 -------S 0 4.0 1.0 1 81 165 65535 65535
- 8.787744 4 1 sctp 48 -------S 0 4.0 1.0 1 81 165 65535 65535
r 8.787744 1 4 sctp 1500 -------D 0 1.0 4.0 1 82 156 0 81
- 8.788512 1 4 sctp 1500 -------D 0 1.0 4.0 1 90 164 0 89
r 8.811744 1 4 sctp 1500 -------D 0 1.0 4.0 1 83 157 0 82
+ 8.811744 4 1 sctp 48 -------S 0 4.0 1.0 1 83 166 65535 65535
- 8.811744 4 1 sctp 48 -------S 0 4.0 1.0 1 83 166 65535 65535
r 8.835744 1 4 sctp 1500 -------D 0 1.0 4.0 1 84 158 0 83
r 8.859744 1 4 sctp 1500 -------D 0 1.0 4.0 1 85 159 0 84
+ 8.859744 4 1 sctp 48 -------S 0 4.0 1.0 1 85 167 65535 65535
- 8.859744 4 1 sctp 48 -------S 0 4.0 1.0 1 85 167 65535 65535
r 8.883744 1 4 sctp 1500 -------D 0 1.0 4.0 1 86 160 0 85
r 8.907744 1 4 sctp 1500 -------D 0 1.0 4.0 1 87 161 0 86
+ 8.907744 4 1 sctp 48 -------S 0 4.0 1.0 1 87 168 65535 65535
- 8.907744 4 1 sctp 48 -------S 0 4.0 1.0 1 87 168 65535 65535
r 8.931744 1 4 sctp 1500 -------D 0 1.0 4.0 1 88 162 0 87
r 8.988512 4 1 sctp 48 -------S 0 4.0 1.0 1 81 165 65535 65535
+ 8.988512 1 4 sctp 1500 -------D 0 1.0 4.0 1 91 169 0 90
- 8.988512 1 4 sctp 1500 -------D 0 1.0 4.0 1 91 169 0 90
r 8.988512 1 4 sctp 1500 -------D 0 1.0 4.0 1 89 163 0 88
+ 8.988512 4 1 sctp 48 -------S 0 4.0 1.0 1 89 170 65535 65535
- 8.988512 4 1 sctp 48 -------S 0 4.0 1.0 1 89 170 65535 65535
r 9.012512 1 4 sctp 1500 -------D 0 1.0 4.0 1 90 164 0 89
r 9.012512 4 1 sctp 48 -------S 0 4.0 1.0 1 83 166 65535 65535
+ 9.012512 1 4 sctp 1500 -------D 0 1.0 4.0 1 92 171 0 91
- 9.012512 1 4 sctp 1500 -------D 0 1.0 4.0 1 92 171 0 91
+ 9.012512 1 4 sctp 1500 -------D 0 1.0 4.0 1 93 172 0 92
- 9.036512 1 4 sctp 1500 -------D 0 1.0 4.0 1 93 172 0 92
r 9.060512 4 1 sctp 48 -------S 0 4.0 1.0 1 85 167 65535 65535
+ 9.060512 1 4 sctp 1500 -------D 0 1.0 4.0 1 94 173 0 93
- 9.060512 1 4 sctp 1500 -------D 0 1.0 4.0 1 94 173 0 93
+ 9.060512 1 4 sctp 1500 -------D 0 1.0 4.0 1 95 174 0 94
- 9.084512 1 4 sctp 1500 -------D 0 1.0 4.0 1 95 174 0 94
r 9.108512 4 1 sctp 48 -------S 0 4.0 1.0 1 87 168 65535 65535
+ 9.108512 1 4 sctp 1500 -------D 0 1.0 4.0 1 96 175 0 95
- 9.108512 1 4 sctp 1500 -------D 0 1.0 4.0 1 96 175 0 95
+ 9.108512 1 4 sctp 1500 -------D 0 1.0 4.0 1 97 176 0 96
- 9.132512 1 4 sctp 1500 -------D 0 1.0 4.0 1 97 176 0 96
r 9.18928 4 1 sctp 48 -------S 0 4.0 1.0 1 89 170 65535 65535