+ 0.5 0 1 sctp 56 -------I 0 0.0 1.0 1 -1 2 65535 65535
- 0.5 0 1 sctp 56 -------I 0 0.0 1.0 1 -1 2 65535 65535
r 0.800896 0 1 sctp 56 -------I 0 0.0 1.0 1 -1 2 65535 65535
+ 0.800896 1 0 sctp 56 -------I 0 1.0 0.0 1 -1 3 65535 65535
- 0.800896 1 0 sctp 56 -------I 0 1.0 0.0 1 -1 3 65535 65535
r 1.101792 1 0 sctp 56 -------I 0 1.0 0.0 1 -1 3 65535 65535
+ 1.101792 0 1 sctp 36 -------I 0 0.0 1.0 1 -1 4 65535 65535
- 1.101792 0 1 sctp 36 -------I 0 0.0 1.0 1 -1 4 65535 65535
r 1.402368 0 1 sctp 36 -------I 0 0.0 1.0 1 -1 4 65535 65535
+ 1.402368 1 0 sctp 36 -------I 0 1.0 0.0 1 -1 5 65535 65535
- 1.402368 1 0 sctp 36 -------I 0 1.0 0.0 1 -1 5 65535 65535
r 1.702944 1 0 sctp 36 -------I 0 1.0 0.0 1 -1 5 65535 65535
+ 1.702944 0 1 sctp 56 -------H 0 0.0 1.0 1 -1 6 65535 65535
- 1.702944 0 1 sctp 56 -------H 0 0.0 1.0 1 -1 6 65535 65535
r 2.00384 0 1 sctp 56 -------H 0 0.0 1.0 1 -1 6 65535 65535
+ 2.00384 1 0 sctp 56 -------B 0 1.0 0.0 1 -1 7 65535 65535
- 2.00384 1 0 sctp 56 -------B 0 1.0 0.0 1 -1 7 65535 65535
r 2.304736 1 0 sctp 56 -------B 0 1.0 0.0 1 -1 7 65535 65535
+ 2.304736 0 1 sctp 1500 -------D 0 0.0 1.0 1 1 8 0 0
- 2.304736 0 1 sctp 1500 -------D 0 0.0 1.0 1 1 8 0 0
+ 2.304736 0 1 sctp 1500 -------D 0 0.0 1.0 1 2 9 0 0
+ 2.304736 0 1 sctp 1500 -------D 0 0.0 1.0 1 3 10 0 0
- 2.328736 0 1 sctp 1500 -------D 0 0.0 1.0 1 2 9 0 0
- 2.352736 0 1 sctp 1500 -------D 0 0.0 1.0 1 3 10 0 0
r 2.628736 0 1 sctp 1500 -------D 0 0.0 1.0 1 1 8 0 0
+ 2.628736 1 0 sctp 48 -------S 0 1.0 0.0 1 1 11 65535 65535
- 2.628736 1 0 sctp 48 -------S 0 1.0 0.0 1 1 11 65535 65535
r 2.652736 0 1 sctp 1500 -------D 0 0.0 1.0 1 2 9 0 0
+ 2.652736 1 0 sctp 48 -------S 0 1.0 0.0 1 2 12 65535 65535
- 2.652736 1 0 sctp 48 -------S 0 1.0 0.0 1 2 12 65535 65535
r 2.676736 0 1 sctp 1500 -------D 0 0.0 1.0 1 3 10 0 0
+ 2.676736 1 0 sctp 48 -------S 0 1.0 0.0 1 3 13 65535 65535
- 2.676736 1 0 sctp 48 -------S 0 1.0 0.0 1 3 13 65535 65535
r 2.929504 1 0 sctp 48 -------S 0 1.0 0.0 1 1 11 65535 65535
+ 2.929504 0 1 sctp 1500 -------D 0 0.0 1.0 1 4 14 0 0
- 2.929504 0 1 sctp 1500 -------D 0 0.0 1.0 1 4 14 0 0
+ 2.929504 0 1 sctp 1500 -------D 0 0.0 1.0 1 5 15 0 0
r 2.953504 1 0 sctp 48 -------S 0 1.0 0.0 1 2 12 65535 65535
+ 2.953504 0 1 sctp 1500 -------D 0 0.0 1.0 1 6 16 0 0
+ 2.953504 0 1 sctp 1500 -------D 0 0.0 1.0 1 7 17 0 0
- 2.953504 0 1 sctp 1500 -------D 0 0.0 1.0 1 5 15 0 0
r 2.977504 1 0 sctp 48 -------S 0 1.0 0.0 1 3 13 65535 65535
+ 2.977504 0 1 sctp 1500 -------D 0 0.0 1.0 1 8 18 0 0
+ 2.977504 0 1 sctp 1500 -------D 0 0.0 1.0 1 9 19 0 0
- 2.977504 0 1 sctp 1500 -------D 0 0.0 1.0 1 6 16 0 0
- 3.001504 0 1 sctp 1500 -------D 0 0.0 1.0 1 7 17 0 0
- 3.025504 0 1 sctp 1500 -------D 0 0.0 1.0 1 8 18 0 0
- 3.049504 0 1 sctp 1500 -------D 0 0.0 1.0 1 9 19 0 0
r 3.253504 0 1 sctp 1500 -------D 0 0.0 1.0 1 4 14 0 0
+ 3.253504 1 0 sctp 48 -------S 0 1.0 0.0 1 4 20 65535 65535
- 3.253504 1 0 sctp 48 -------S 0 1.0 0.0 1 4 20 65535 65535
r 3.277504 0 1 sctp 1500 -------D 0 0.0 1.0 1 5 15 0 0
+ 3.277504 1 0 sctp 48 -------S 0 1.0 0.0 1 5 21 65535 65535
- 3.277504 1 0 sctp 48 -------S 0 1.0 0.0 1 5 21 65535 65535
r 3.301504 0 1 sctp 1500 -------D 0 0.0 1.0 1 6 16 0 0
+ 3.301504 1 0 sctp 48 -------S 0 1.0 0.0 1 6 22 65535 65535
- 3.301504 1 0 sctp 48 -------S 0 1.0 0.0 1 6 22 65535 65535
r 3.325504 0 1 sctp 1500 -------D 0 0.0 1.0 1 7 17 0 0
+ 3.325504 1 0 sctp 48 -------S 0 1.0 0.0 1 7 23 65535 65535
- 3.325504 1 0 sctp 48 -------S 0 1.0 0.0 1 7 23 65535 65535
r 3.349504 0 1 sctp 1500 -------D 0 0.0 1.0 1 8 18 0 0
+ 3.349504 1 0 sctp 48 -------S 0 1.0 0.0 1 8 24 65535 65535
- 3.349504 1 0 sctp 48 -------S 0 1.0 0.0 1 8 24 65535 65535
r 3.373504 0 1 sctp 1500 -------D 0 0.0 1.0 1 9 19 0 0
+ 3.373504 1 0 sctp 48 -------S 0 1.0 0.0 1 9 25 65535 65535
- 3.373504 1 0 sctp 48 -------S 0 1.0 0.0 1 9 25 65535 65535
r 3.554272 1 0 sctp 48 -------S 0 1.0 0.0 1 4 20 65535 65535
+ 3.554272 0 1 sctp 1500 -------D 0 0.0 1.0 1 10 26 0 0
- 3.554272 0 1 sctp 1500 -------D 0 0.0 1.0 1 10 26 0 0
+ 3.554272 0 1 sctp 1500 -------D 0 0.0 1.0 1 11 27 0 0
r 3.578272 1 0 sctp 48 -------S 0 1.0 0.0 1 5 21 65535 65535
+ 3.578272 0 1 sctp 1500 -------D 0 0.0 1.0 1 12 28 0 0
+ 3.578272 0 1 sctp 1500 -------D 0 0.0 1.0 1 13 29 0 0
- 3.578272 0 1 sctp 1500 -------D 0 0.0 1.0 1 11 27 0 0
r 3.602272 1 0 sctp 48 -------S 0 1.0 0.0 1 6 22 65535 65535
+ 3.602272 0 1 sctp 1500 -------D 0 0.0 1.0 1 14 30 0 0
+ 3.602272 0 1 sctp 1500 -------D 0 0.0 1.0 1 15 31 0 0
- 3.602272 0 1 sctp 1500 -------D 0 0.0 1.0 1 12 28 0 0
r 3.626272 1 0 sctp 48 -------S 0 1.0 0.0 1 7 23 65535 65535
+ 3.626272 0 1 sctp 1500 -------D 0 0.0 1.0 1 16 32 0 0
+ 3.626272 0 1 sctp 1500 -------D 0 0.0 1.0 1 17 33 0 0
- 3.626272 0 1 sctp 1500 -------D 0 0.0 1.0 1 13 29 0 0
r 3.650272 1 0 sctp 48 -------S 0 1.0 0.0 1 8 24 65535 65535
+ 3.650272 0 1 sctp 1500 -------D 0 0.0 1.0 1 18 34 0 0
+ 3.650272 0 1 sctp 1500 -------D 0 0.0 1.0 1 19 35 0 0
- 3.650272 0 1 sctp 1500 -------D 0 0.0 1.0 1 14 30 0 0
r 3.674272 1 0 sctp 48 -------S 0 1.0 0.0 1 9 25 65535 65535
+ 3.674272 0 1 sctp 1500 -------D 0 0.0 1.0 1 20 36 0 0
- 3.674272 0 1 sctp 1500 -------D 0 0.0 1.0 1 15 31 0 0
- 3.698272 0 1 sctp 1500 -------D 0 0.0 1.0 1 16 32 0 0
- 3.722272 0 1 sctp 1500 -------D 0 0.0 1.0 1 17 33 0 0
- 3.746272 0 1 sctp 1500 -------D 0 0.0 1.0 1 18 34 0 0
- 3.770272 0 1 sctp 1500 -------D 0 0.0 1.0 1 19 35 0 0
- 3.794272 0 1 sctp 1500 -------D 0 0.0 1.0 1 20 36 0 0
r 3.878272 0 1 sctp 1500 -------D 0 0.0 1.0 1 10 26 0 0
+ 3.878272 1 0 sctp 48 -------S 0 1.0 0.0 1 10 37 65535 65535
- 3.878272 1 0 sctp 48 -------S 0 1.0 0.0 1 10 37 65535 65535
r 3.902272 0 1 sctp 1500 -------D 0 0.0 1.0 1 11 27 0 0
+ 3.902272 1 0 sctp 48 -------S 0 1.0 0.0 1 11 38 65535 65535
- 3.902272 1 0 sctp 48 -------S 0 1.0 0.0 1 11 38 65535 65535
r 3.926272 0 1 sctp 1500 -------D 0 0.0 1.0 1 12 28 0 0
+ 3.926272 1 0 sctp 48 -------S 0 1.0 0.0 1 12 39 65535 65535
- 3.926272 1 0 sctp 48 -------S 0 1.0 0.0 1 12 39 65535 65535
r 3.950272 0 1 sctp 1500 -------D 0 0.0 1.0 1 13 29 0 0
+ 3.950272 1 0 sctp 48 -------S 0 1.0 0.0 1 13 40 65535 65535
- 3.950272 1 0 sctp 48 -------S 0 1.0 0.0 1 13 40 65535 65535
r 3.974272 0 1 sctp 1500 -------D 0 0.0 1.0 1 14 30 0 0
+ 3.974272 1 0 sctp 48 -------S 0 1.0 0.0 1 14 41 65535 65535
- 3.974272 1 0 sctp 48 -------S 0 1.0 0.0 1 14 41 65535 65535
r 3.998272 0 1 sctp 1500 -------D 0 0.0 1.0 1 15 31 0 0
+ 3.998272 1 0 sctp 48 -------S 0 1.0 0.0 1 15 42 65535 65535
- 3.998272 1 0 sctp 48 -------S 0 1.0 0.0 1 15 42 65535 65535
r 4.022272 0 1 sctp 1500 -------D 0 0.0 1.0 1 16 32 0 0
+ 4.022272 1 0 sctp 48 -------S 0 1.0 0.0 1 16 43 65535 65535
- 4.022272 1 0 sctp 48 -------S 0 1.0 0.0 1 16 43 65535 65535
r 4.046272 0 1 sctp 1500 -------D 0 0.0 1.0 1 17 33 0 0
+ 4.046272 1 0 sctp 48 -------S 0 1.0 0.0 1 17 44 65535 65535
- 4.046272 1 0 sctp 48 -------S 0 1.0 0.0 1 17 44 65535 65535
r 4.070272 0 1 sctp 1500 -------D 0 0.0 1.0 1 18 34 0 0
+ 4.070272 1 0 sctp 48 -------S 0 1.0 0.0 1 18 45 65535 65535
- 4.070272 1 0 sctp 48 -------S 0 1.0 0.0 1 18 45 65535 65535
r 4.094272 0 1 sctp 1500 -------D 0 0.0 1.0 1 19 35 0 0
+ 4.094272 1 0 sctp 48 -------S 0 1.0 0.0 1 19 46 65535 65535
- 4.094272 1 0 sctp 48 -------S 0 1.0 0.0 1 19 46 65535 65535
r 4.118272 0 1 sctp 1500 -------D 0 0.0 1.0 1 20 36 0 0
+ 4.118272 1 0 sctp 48 -------S 0 1.0 0.0 1 20 47 65535 65535
- 4.118272 1 0 sctp 48 -------S 0 1.0 0.0 1 20 47 65535 65535
r 4.17904 1 0 sctp 48 -------S 0 1.0 0.0 1 10 37 65535 65535
+ 4.17904 0 1 sctp 1500 -------D 0 0.0 1.0 1 21 48 0 0
- 4.17904 0 1 sctp 1500 -------D 0 0.0 1.0 1 21 48 0 0
r 4.20304 1 0 sctp 48 -------S 0 1.0 0.0 1 11 38 65535 65535
+ 4.20304 0 1 sctp 1500 -------D 0 0.0 1.0 1 22 49 0 0
- 4.20304 0 1 sctp 1500 -------D 0 0.0 1.0 1 22 49 0 0
r 4.22704 1 0 sctp 48 -------S 0 1.0 0.0 1 12 39 65535 65535
+ 4.22704 0 1 sctp 1500 -------D 0 0.0 1.0 1 23 50 0 0
- 4.22704 0 1 sctp 1500 -------D 0 0.0 1.0 1 23 50 0 0
r 4.25104 1 0 sctp 48 -------S 0 1.0 0.0 1 13 40 65535 65535
+ 4.25104 0 1 sctp 1500 -------D 0 0.0 1.0 1 24 51 0 0
- 4.25104 0 1 sctp 1500 -------D 0 0.0 1.0 1 24 51 0 0
r 4.27504 1 0 sctp 48 -------S 0 1.0 0.0 1 14 41 65535 65535
+ 4.27504 0 1 sctp 1500 -------D 0 0.0 1.0 1 25 52 0 0
- 4.27504 0 1 sctp 1500 -------D 0 0.0 1.0 1 25 52 0 0
r 4.29904 1 0 sctp 48 -------S 0 1.0 0.0 1 15 42 65535 65535
+ 4.29904 0 1 sctp 1500 -------D 0 0.0 1.0 1 26 53 0 0
- 4.29904 0 1 sctp 1500 -------D 0 0.0 1.0 1 26 53 0 0
r 4.32304 1 0 sctp 48 -------S 0 1.0 0.0 1 16 43 65535 65535
+ 4.32304 0 1 sctp 1500 -------D 0 0.0 1.0 1 27 54 0 0
- 4.32304 0 1 sctp 1500 -------D 0 0.0 1.0 1 27 54 0 0
r 4.34704 1 0 sctp 48 -------S 0 1.0 0.0 1 17 44 65535 65535
+ 4.34704 0 1 sctp 1500 -------D 0 0.0 1.0 1 28 55 0 0
- 4.34704 0 1 sctp 1500 -------D 0 0.0 1.0 1 28 55 0 0
r 4.37104 1 0 sctp 48 -------S 0 1.0 0.0 1 18 45 65535 65535
+ 4.37104 0 1 sctp 1500 -------D 0 0.0 1.0 1 29 56 0 0
- 4.37104 0 1 sctp 1500 -------D 0 0.0 1.0 1 29 56 0 0
r 4.39504 1 0 sctp 48 -------S 0 1.0 0.0 1 19 46 65535 65535
+ 4.39504 0 1 sctp 1500 -------D 0 0.0 1.0 1 30 57 0 0
- 4.39504 0 1 sctp 1500 -------D 0 0.0 1.0 1 30 57 0 0
r 4.41904 1 0 sctp 48 -------S 0 1.0 0.0 1 20 47 65535 65535
+ 4.41904 0 1 sctp 1500 -------D 0 0.0 1.0 1 31 58 0 0
- 4.41904 0 1 sctp 1500 -------D 0 0.0 1.0 1 31 58 0 0
r 4.50304 0 1 sctp 1500 -------D 0 0.0 1.0 1 21 48 0 0
+ 4.50304 1 0 sctp 48 -------S 0 1.0 0.0 1 21 59 65535 65535
- 4.50304 1 0 sctp 48 -------S 0 1.0 0.0 1 21 59 65535 65535
r 4.52704 0 1 sctp 1500 -------D 0 0.0 1.0 1 22 49 0 0
+ 4.52704 1 0 sctp 48 -------S 0 1.0 0.0 1 22 60 65535 65535
- 4.52704 1 0 sctp 48 -------S 0 1.0 0.0 1 22 60 65535 65535
r 4.55104 0 1 sctp 1500 -------D 0 0.0 1.0 1 23 50 0 0
+ 4.55104 1 0 sctp 48 -------S 0 1.0 0.0 1 23 61 65535 65535
- 4.55104 1 0 sctp 48 -------S 0 1.0 0.0 1 23 61 65535 65535
r 4.57504 0 1 sctp 1500 -------D 0 0.0 1.0 1 24 51 0 0
+ 4.57504 1 0 sctp 48 -------S 0 1.0 0.0 1 24 62 65535 65535
- 4.57504 1 0 sctp 48 -------S 0 1.0 0.0 1 24 62 65535 65535
r 4.59904 0 1 sctp 1500 -------D 0 0.0 1.0 1 25 52 0 0
+ 4.59904 1 0 sctp 48 -------S 0 1.0 0.0 1 25 63 65535 65535
- 4.59904 1 0 sctp 48 -------S 0 1.0 0.0 1 25 63 65535 65535
r 4.62304 0 1 sctp 1500 -------D 0 0.0 1.0 1 26 53 0 0
+ 4.62304 1 0 sctp 48 -------S 0 1.0 0.0 1 26 64 65535 65535
- 4.62304 1 0 sctp 48 -------S 0 1.0 0.0 1 26 64 65535 65535
r 4.64704 0 1 sctp 1500 -------D 0 0.0 1.0 1 27 54 0 0
+ 4.64704 1 0 sctp 48 -------S 0 1.0 0.0 1 27 65 65535 65535
- 4.64704 1 0 sctp 48 -------S 0 1.0 0.0 1 27 65 65535 65535
r 4.67104 0 1 sctp 1500 -------D 0 0.0 1.0 1 28 55 0 0
+ 4.67104 1 0 sctp 48 -------S 0 1.0 0.0 1 28 66 65535 65535
- 4.67104 1 0 sctp 48 -------S 0 1.0 0.0 1 28 66 65535 65535
r 4.69504 0 1 sctp 1500 -------D 0 0.0 1.0 1 29 56 0 0
+ 4.69504 1 0 sctp 48 -------S 0 1.0 0.0 1 29 67 65535 65535
- 4.69504 1 0 sctp 48 -------S 0 1.0 0.0 1 29 67 65535 65535
r 4.71904 0 1 sctp 1500 -------D 0 0.0 1.0 1 30 57 0 0
+ 4.71904 1 0 sctp 48 -------S 0 1.0 0.0 1 30 68 65535 65535
- 4.71904 1 0 sctp 48 -------S 0 1.0 0.0 1 30 68 65535 65535
r 4.74304 0 1 sctp 1500 -------D 0 0.0 1.0 1 31 58 0 0
+ 4.74304 1 0 sctp 48 -------S 0 1.0 0.0 1 31 69 65535 65535
- 4.74304 1 0 sctp 48 -------S 0 1.0 0.0 1 31 69 65535 65535
r 4.803808 1 0 sctp 48 -------S 0 1.0 0.0 1 21 59 65535 65535
d 4.803808 0 1 sctp 1500 -------D 0 0.0 1.0 1 32 70 0 0
r 4.827808 1 0 sctp 48 -------S 0 1.0 0.0 1 22 60 65535 65535
+ 4.827808 0 1 sctp 1500 -------D 0 0.0 1.0 1 33 71 0 0
- 4.827808 0 1 sctp 1500 -------D 0 0.0 1.0 1 33 71 0 0
r 4.851808 1 0 sctp 48 -------S 0 1.0 0.0 1 23 61 65535 65535
+ 4.851808 0 1 sctp 1500 -------D 0 0.0 1.0 1 34 72 0 0
- 4.851808 0 1 sctp 1500 -------D 0 0.0 1.0 1 34 72 0 0
r 4.875808 1 0 sctp 48 -------S 0 1.0 0.0 1 24 62 65535 65535
+ 4.875808 0 1 sctp 1500 -------D 0 0.0 1.0 1 35 73 0 0
- 4.875808 0 1 sctp 1500 -------D 0 0.0 1.0 1 35 73 0 0
r 4.899808 1 0 sctp 48 -------S 0 1.0 0.0 1 25 63 65535 65535
+ 4.899808 0 1 sctp 1500 -------D 0 0.0 1.0 1 36 74 0 0
- 4.899808 0 1 sctp 1500 -------D 0 0.0 1.0 1 36 74 0 0
r 4.923808 1 0 sctp 48 -------S 0 1.0 0.0 1 26 64 65535 65535
+ 4.923808 0 1 sctp 1500 -------D 0 0.0 1.0 1 37 75 0 0
- 4.923808 0 1 sctp 1500 -------D 0 0.0 1.0 1 37 75 0 0
r 4.947808 1 0 sctp 48 -------S 0 1.0 0.0 1 27 65 65535 65535
+ 4.947808 0 1 sctp 1500 -------D 0 0.0 1.0 1 38 76 0 0
- 4.947808 0 1 sctp 1500 -------D 0 0.0 1.0 1 38 76 0 0
r 4.971808 1 0 sctp 48 -------S 0 1.0 0.0 1 28 66 65535 65535
+ 4.971808 0 1 sctp 1500 -------D 0 0.0 1.0 1 39 77 0 0
- 4.971808 0 1 sctp 1500 -------D 0 0.0 1.0 1 39 77 0 0
r 4.995808 1 0 sctp 48 -------S 0 1.0 0.0 1 29 67 65535 65535
+ 4.995808 0 1 sctp 1500 -------D 0 0.0 1.0 1 40 78 0 0
- 4.995808 0 1 sctp 1500 -------D 0 0.0 1.0 1 40 78 0 0
r 5.019808 1 0 sctp 48 -------S 0 1.0 0.0 1 30 68 65535 65535
+ 5.019808 0 1 sctp 1500 -------D 0 0.0 1.0 1 41 79 0 0
- 5.019808 0 1 sctp 1500 -------D 0 0.0 1.0 1 41 79 0 0
r 5.043808 1 0 sctp 48 -------S 0 1.0 0.0 1 31 69 65535 65535
+ 5.043808 0 1 sctp 1500 -------D 0 0.0 1.0 1 42 80 0 0
- 5.043808 0 1 sctp 1500 -------D 0 0.0 1.0 1 42 80 0 0
r 5.151808 0 1 sctp 1500 -------D 0 0.0 1.0 1 33 71 0 0
+ 5.151808 1 0 sctp 52 -------S 0 1.0 0.0 1 31 81 65535 65535
- 5.151808 1 0 sctp 52 -------S 0 1.0 0.0 1 31 81 65535 65535
r 5.175808 0 1 sctp 1500 -------D 0 0.0 1.0 1 34 72 0 0
+ 5.175808 1 0 sctp 52 -------S 0 1.0 0.0 1 31 82 65535 65535
- 5.175808 1 0 sctp 52 -------S 0 1.0 0.0 1 31 82 65535 65535
r 5.199808 0 1 sctp 1500 -------D 0 0.0 1.0 1 35 73 0 0
+ 5.199808 1 0 sctp 52 -------S 0 1.0 0.0 1 31 83 65535 65535
- 5.199808 1 0 sctp 52 -------S 0 1.0 0.0 1 31 83 65535 65535
r 5.223808 0 1 sctp 1500 -------D 0 0.0 1.0 1 36 74 0 0
+ 5.223808 1 0 sctp 52 -------S 0 1.0 0.0 1 31 84 65535 65535
- 5.223808 1 0 sctp 52 -------S 0 1.0 0.0 1 31 84 65535 65535
r 5.247808 0 1 sctp 1500 -------D 0 0.0 1.0 1 37 75 0 0
+ 5.247808 1 0 sctp 52 -------S 0 1.0 0.0 1 31 85 65535 65535
- 5.247808 1 0 sctp 52 -------S 0 1.0 0.0 1 31 85 65535 65535
r 5.271808 0 1 sctp 1500 -------D 0 0.0 1.0 1 38 76 0 0
+ 5.271808 1 0 sctp 52 -------S 0 1.0 0.0 1 31 86 65535 65535
- 5.271808 1 0 sctp 52 -------S 0 1.0 0.0 1 31 86 65535 65535
r 5.295808 0 1 sctp 1500 -------D 0 0.0 1.0 1 39 77 0 0
+ 5.295808 1 0 sctp 52 -------S 0 1.0 0.0 1 31 87 65535 65535
- 5.295808 1 0 sctp 52 -------S 0 1.0 0.0 1 31 87 65535 65535
r 5.319808 0 1 sctp 1500 -------D 0 0.0 1.0 1 40 78 0 0
+ 5.319808 1 0 sctp 52 -------S 0 1.0 0.0 1 31 88 65535 65535
- 5.319808 1 0 sctp 52 -------S 0 1.0 0.0 1 31 88 65535 65535
r 5.343808 0 1 sctp 1500 -------D 0 0.0 1.0 1 41 79 0 0
+ 5.343808 1 0 sctp 52 -------S 0 1.0 0.0 1 31 89 65535 65535
- 5.343808 1 0 sctp 52 -------S 0 1.0 0.0 1 31 89 65535 65535
r 5.367808 0 1 sctp 1500 -------D 0 0.0 1.0 1 42 80 0 0
+ 5.367808 1 0 sctp 52 -------S 0 1.0 0.0 1 31 90 65535 65535
- 5.367808 1 0 sctp 52 -------S 0 1.0 0.0 1 31 90 65535 65535
r 5.45264 1 0 sctp 52 -------S 0 1.0 0.0 1 31 81 65535 65535
r 5.47664 1 0 sctp 52 -------S 0 1.0 0.0 1 31 82 65535 65535
r 5.50064 1 0 sctp 52 -------S 0 1.0 0.0 1 31 83 65535 65535
d 5.50064 0 1 sctp 1500 -------D 0 0.0 1.0 1 32 91 0 0
r 5.52464 1 0 sctp 52 -------S 0 1.0 0.0 1 31 84 65535 65535
r 5.54864 1 0 sctp 52 -------S 0 1.0 0.0 1 31 85 65535 65535
r 5.57264 1 0 sctp 52 -------S 0 1.0 0.0 1 31 86 65535 65535
r 5.59664 1 0 sctp 52 -------S 0 1.0 0.0 1 31 87 65535 65535
r 5.62064 1 0 sctp 52 -------S 0 1.0 0.0 1 31 88 65535 65535
r 5.64464 1 0 sctp 52 -------S 0 1.0 0.0 1 31 89 65535 65535
r 5.66864 1 0 sctp 52 -------S 0 1.0 0.0 1 31 90 65535 65535
d 6.542348 0 1 sctp 1500 -------D 0 0.0 1.0 1 32 92 0 0
+ 8.625765 0 1 sctp 1500 -------D 0 0.0 1.0 1 32 93 0 0
- 8.625765 0 1 sctp 1500 -------D 0 0.0 1.0 1 32 93 0 0
r 8.949765 0 1 sctp 1500 -------D 0 0.0 1.0 1 32 93 0 0
+ 8.949765 1 0 sctp 48 -------S 0 1.0 0.0 1 42 94 65535 65535
- 8.949765 1 0 sctp 48 -------S 0 1.0 0.0 1 42 94 65535 65535
r 9.250533 1 0 sctp 48 -------S 0 1.0 0.0 1 42 94 65535 65535
+ 9.250533 0 1 sctp 1500 -------D 0 0.0 1.0 1 43 95 0 0
- 9.250533 0 1 sctp 1500 -------D 0 0.0 1.0 1 43 95 0 0
+ 9.250533 0 1 sctp 1500 -------D 0 0.0 1.0 1 44 96 0 0
- 9.274533 0 1 sctp 1500 -------D 0 0.0 1.0 1 44 96 0 0
r 9.574533 0 1 sctp 1500 -------D 0 0.0 1.0 1 43 95 0 0
+ 9.574533 1 0 sctp 48 -------S 0 1.0 0.0 1 43 97 65535 65535
- 9.574533 1 0 sctp 48 -------S 0 1.0 0.0 1 43 97 65535 65535
r 9.598533 0 1 sctp 1500 -------D 0 0.0 1.0 1 44 96 0 0
+ 9.598533 1 0 sctp 48 -------S 0 1.0 0.0 1 44 98 65535 65535
- 9.598533 1 0 sctp 48 -------S 0 1.0 0.0 1 44 98 65535 65535
r 9.875301 1 0 sctp 48 -------S 0 1.0 0.0 1 43 97 65535 65535
+ 9.875301 0 1 sctp 1500 -------D 0 0.0 1.0 1 45 99 0 0
- 9.875301 0 1 sctp 1500 -------D 0 0.0 1.0 1 45 99 0 0
+ 9.875301 0 1 sctp 1500 -------D 0 0.0 1.0 1 46 100 0 0
r 9.899301 1 0 sctp 48 -------S 0 1.0 0.0 1 44 98 65535 65535
+ 9.899301 0 1 sctp 1500 -------D 0 0.0 1.0 1 47 101 0 0
+ 9.899301 0 1 sctp 1500 -------D 0 0.0 1.0 1 48 102 0 0
- 9.899301 0 1 sctp 1500 -------D 0 0.0 1.0 1 46 100 0 0
- 9.923301 0 1 sctp 1500 -------D 0 0.0 1.0 1 47 101 0 0
- 9.947301 0 1 sctp 1500 -------D 0 0.0 1.0 1 48 102 0 0
r 10.199301 0 1 sctp 1500 -------D 0 0.0 1.0 1 45 99 0 0
+ 10.199301 1 0 sctp 48 -------S 0 1.0 0.0 1 45 103 65535 65535
- 10.199301 1 0 sctp 48 -------S 0 1.0 0.0 1 45 103 65535 65535
r 10.223301 0 1 sctp 1500 -------D 0 0.0 1.0 1 46 100 0 0
+ 10.223301 1 0 sctp 48 -------S 0 1.0 0.0 1 46 104 65535 65535
- 10.223301 1 0 sctp 48 -------S 0 1.0 0.0 1 46 104 65535 65535
r 10.247301 0 1 sctp 1500 -------D 0 0.0 1.0 1 47 101 0 0
+ 10.247301 1 0 sctp 48 -------S 0 1.0 0.0 1 47 105 65535 65535
- 10.247301 1 0 sctp 48 -------S 0 1.0 0.0 1 47 105 65535 65535
r 10.271301 0 1 sctp 1500 -------D 0 0.0 1.0 1 48 102 0 0
+ 10.271301 1 0 sctp 48 -------S 0 1.0 0.0 1 48 106 65535 65535
- 10.271301 1 0 sctp 48 -------S 0 1.0 0.0 1 48 106 65535 65535
r 10.500069 1 0 sctp 48 -------S 0 1.0 0.0 1 45 103 65535 65535
+ 10.500069 0 1 sctp 1500 -------D 0 0.0 1.0 1 49 107 0 0
- 10.500069 0 1 sctp 1500 -------D 0 0.0 1.0 1 49 107 0 0
+ 10.500069 0 1 sctp 1500 -------D 0 0.0 1.0 1 50 108 0 0
r 10.524069 1 0 sctp 48 -------S 0 1.0 0.0 1 46 104 65535 65535
+ 10.524069 0 1 sctp 1500 -------D 0 0.0 1.0 1 51 109 0 0
- 10.524069 0 1 sctp 1500 -------D 0 0.0 1.0 1 50 108 0 0
r 10.548069 1 0 sctp 48 -------S 0 1.0 0.0 1 47 105 65535 65535
+ 10.548069 0 1 sctp 1500 -------D 0 0.0 1.0 1 52 110 0 0
- 10.548069 0 1 sctp 1500 -------D 0 0.0 1.0 1 51 109 0 0
r 10.572069 1 0 sctp 48 -------S 0 1.0 0.0 1 48 106 65535 65535
+ 10.572069 0 1 sctp 1500 -------D 0 0.0 1.0 1 53 111 0 0
- 10.572069 0 1 sctp 1500 -------D 0 0.0 1.0 1 52 110 0 0
- 10.596069 0 1 sctp 1500 -------D 0 0.0 1.0 1 53 111 0 0
r 10.824069 0 1 sctp 1500 -------D 0 0.0 1.0 1 49 107 0 0
+ 10.824069 1 0 sctp 48 -------S 0 1.0 0.0 1 49 112 65535 65535
- 10.824069 1 0 sctp 48 -------S 0 1.0 0.0 1 49 112 65535 65535
r 10.848069 0 1 sctp 1500 -------D 0 0.0 1.0 1 50 108 0 0
+ 10.848069 1 0 sctp 48 -------S 0 1.0 0.0 1 50 113 65535 65535
- 10.848069 1 0 sctp 48 -------S 0 1.0 0.0 1 50 113 65535 65535
r 10.872069 0 1 sctp 1500 -------D 0 0.0 1.0 1 51 109 0 0
+ 10.872069 1 0 sctp 48 -------S 0 1.0 0.0 1 51 114 65535 65535
- 10.872069 1 0 sctp 48 -------S 0 1.0 0.0 1 51 114 65535 65535
r 10.896069 0 1 sctp 1500 -------D 0 0.0 1.0 1 52 110 0 0
+ 10.896069 1 0 sctp 48 -------S 0 1.0 0.0 1 52 115 65535 65535
- 10.896069 1 0 sctp 48 -------S 0 1.0 0.0 1 52 115 65535 65535
r 10.920069 0 1 sctp 1500 -------D 0 0.0 1.0 1 53 111 0 0
+ 10.920069 1 0 sctp 48 -------S 0 1.0 0.0 1 53 116 65535 65535
- 10.920069 1 0 sctp 48 -------S 0 1.0 0.0 1 53 116 65535 65535
r 11.124837 1 0 sctp 48 -------S 0 1.0 0.0 1 49 112 65535 65535
+ 11.124837 0 1 sctp 1500 -------D 0 0.0 1.0 1 54 117 0 0
- 11.124837 0 1 sctp 1500 -------D 0 0.0 1.0 1 54 117 0 0
r 11.148837 1 0 sctp 48 -------S 0 1.0 0.0 1 50 113 65535 65535
+ 11.148837 0 1 sctp 1500 -------D 0 0.0 1.0 1 55 118 0 0
+ 11.148837 0 1 sctp 1500 -------D 0 0.0 1.0 1 56 119 0 0
- 11.148837 0 1 sctp 1500 -------D 0 0.0 1.0 1 55 118 0 0
r 11.172837 1 0 sctp 48 -------S 0 1.0 0.0 1 51 114 65535 65535
+ 11.172837 0 1 sctp 1500 -------D 0 0.0 1.0 1 57 120 0 0
- 11.172837 0 1 sctp 1500 -------D 0 0.0 1.0 1 56 119 0 0
r 11.196837 1 0 sctp 48 -------S 0 1.0 0.0 1 52 115 65535 65535
+ 11.196837 0 1 sctp 1500 -------D 0 0.0 1.0 1 58 121 0 0
- 11.196837 0 1 sctp 1500 -------D 0 0.0 1.0 1 57 120 0 0
r 11.220837 1 0 sctp 48 -------S 0 1.0 0.0 1 53 116 65535 65535
+ 11.220837 0 1 sctp 1500 -------D 0 0.0 1.0 1 59 122 0 0
- 11.220837 0 1 sctp 1500 -------D 0 0.0 1.0 1 58 121 0 0
- 11.244837 0 1 sctp 1500 -------D 0 0.0 1.0 1 59 122 0 0
r 11.448837 0 1 sctp 1500 -------D 0 0.0 1.0 1 54 117 0 0
+ 11.448837 1 0 sctp 48 -------S 0 1.0 0.0 1 54 123 65535 65535
- 11.448837 1 0 sctp 48 -------S 0 1.0 0.0 1 54 123 65535 65535
r 11.472837 0 1 sctp 1500 -------D 0 0.0 1.0 1 55 118 0 0
+ 11.472837 1 0 sctp 48 -------S 0 1.0 0.0 1 55 124 65535 65535
- 11.472837 1 0 sctp 48 -------S 0 1.0 0.0 1 55 124 65535 65535
r 11.496837 0 1 sctp 1500 -------D 0 0.0 1.0 1 56 119 0 0
+ 11.496837 1 0 sctp 48 -------S 0 1.0 0.0 1 56 125 65535 65535
- 11.496837 1 0 sctp 48 -------S 0 1.0 0.0 1 56 125 65535 65535
r 11.520837 0 1 sctp 1500 -------D 0 0.0 1.0 1 57 120 0 0
+ 11.520837 1 0 sctp 48 -------S 0 1.0 0.0 1 57 126 65535 65535
- 11.520837 1 0 sctp 48 -------S 0 1.0 0.0 1 57 126 65535 65535
r 11.544837 0 1 sctp 1500 -------D 0 0.0 1.0 1 58 121 0 0
+ 11.544837 1 0 sctp 48 -------S 0 1.0 0.0 1 58 127 65535 65535
- 11.544837 1 0 sctp 48 -------S 0 1.0 0.0 1 58 127 65535 65535
r 11.568837 0 1 sctp 1500 -------D 0 0.0 1.0 1 59 122 0 0
+ 11.568837 1 0 sctp 48 -------S 0 1.0 0.0 1 59 128 65535 65535
- 11.568837 1 0 sctp 48 -------S 0 1.0 0.0 1 59 128 65535 65535
r 11.749605 1 0 sctp 48 -------S 0 1.0 0.0 1 54 123 65535 65535
+ 11.749605 0 1 sctp 1500 -------D 0 0.0 1.0 1 60 129 0 0
- 11.749605 0 1 sctp 1500 -------D 0 0.0 1.0 1 60 129 0 0
r 11.773605 1 0 sctp 48 -------S 0 1.0 0.0 1 55 124 65535 65535
+ 11.773605 0 1 sctp 1500 -------D 0 0.0 1.0 1 61 130 0 0
- 11.773605 0 1 sctp 1500 -------D 0 0.0 1.0 1 61 130 0 0
r 11.797605 1 0 sctp 48 -------S 0 1.0 0.0 1 56 125 65535 65535
+ 11.797605 0 1 sctp 1500 -------D 0 0.0 1.0 1 62 131 0 0
+ 11.797605 0 1 sctp 1500 -------D 0 0.0 1.0 1 63 132 0 0
- 11.797605 0 1 sctp 1500 -------D 0 0.0 1.0 1 62 131 0 0
r 11.821605 1 0 sctp 48 -------S 0 1.0 0.0 1 57 126 65535 65535
+ 11.821605 0 1 sctp 1500 -------D 0 0.0 1.0 1 64 133 0 0
- 11.821605 0 1 sctp 1500 -------D 0 0.0 1.0 1 63 132 0 0
r 11.845605 1 0 sctp 48 -------S 0 1.0 0.0 1 58 127 65535 65535
+ 11.845605 0 1 sctp 1500 -------D 0 0.0 1.0 1 65 134 0 0
- 11.845605 0 1 sctp 1500 -------D 0 0.0 1.0 1 64 133 0 0
r 11.869605 1 0 sctp 48 -------S 0 1.0 0.0 1 59 128 65535 65535
+ 11.869605 0 1 sctp 1500 -------D 0 0.0 1.0 1 66 135 0 0
- 11.869605 0 1 sctp 1500 -------D 0 0.0 1.0 1 65 134 0 0
- 11.893605 0 1 sctp 1500 -------D 0 0.0 1.0 1 66 135 0 0
r 12.073605 0 1 sctp 1500 -------D 0 0.0 1.0 1 60 129 0 0
+ 12.073605 1 0 sctp 48 -------S 0 1.0 0.0 1 60 136 65535 65535
- 12.073605 1 0 sctp 48 -------S 0 1.0 0.0 1 60 136 65535 65535
r 12.097605 0 1 sctp 1500 -------D 0 0.0 1.0 1 61 130 0 0
+ 12.097605 1 0 sctp 48 -------S 0 1.0 0.0 1 61 137 65535 65535
- 12.097605 1 0 sctp 48 -------S 0 1.0 0.0 1 61 137 65535 65535
r 12.121605 0 1 sctp 1500 -------D 0 0.0 1.0 1 62 131 0 0
+ 12.121605 1 0 sctp 48 -------S 0 1.0 0.0 1 62 138 65535 65535
- 12.121605 1 0 sctp 48 -------S 0 1.0 0.0 1 62 138 65535 65535
r 12.145605 0 1 sctp 1500 -------D 0 0.0 1.0 1 63 132 0 0
+ 12.145605 1 0 sctp 48 -------S 0 1.0 0.0 1 63 139 65535 65535
- 12.145605 1 0 sctp 48 -------S 0 1.0 0.0 1 63 139 65535 65535
r 12.169605 0 1 sctp 1500 -------D 0 0.0 1.0 1 64 133 0 0
+ 12.169605 1 0 sctp 48 -------S 0 1.0 0.0 1 64 140 65535 65535
- 12.169605 1 0 sctp 48 -------S 0 1.0 0.0 1 64 140 65535 65535
r 12.193605 0 1 sctp 1500 -------D 0 0.0 1.0 1 65 134 0 0
+ 12.193605 1 0 sctp 48 -------S 0 1.0 0.0 1 65 141 65535 65535
- 12.193605 1 0 sctp 48 -------S 0 1.0 0.0 1 65 141 65535 65535
r 12.217605 0 1 sctp 1500 -------D 0 0.0 1.0 1 66 135 0 0
+ 12.217605 1 0 sctp 48 -------S 0 1.0 0.0 1 66 142 65535 65535
- 12.217605 1 0 sctp 48 -------S 0 1.0 0.0 1 66 142 65535 65535
r 12.374373 1 0 sctp 48 -------S 0 1.0 0.0 1 60 136 65535 65535
+ 12.374373 0 1 sctp 1500 -------D 0 0.0 1.0 1 67 143 0 0
- 12.374373 0 1 sctp 1500 -------D 0 0.0 1.0 1 67 143 0 0
r 12.398373 1 0 sctp 48 -------S 0 1.0 0.0 1 61 137 65535 65535
+ 12.398373 0 1 sctp 1500 -------D 0 0.0 1.0 1 68 144 0 0
- 12.398373 0 1 sctp 1500 -------D 0 0.0 1.0 1 68 144 0 0
r 12.422373 1 0 sctp 48 -------S 0 1.0 0.0 1 62 138 65535 65535
+ 12.422373 0 1 sctp 1500 -------D 0 0.0 1.0 1 69 145 0 0
- 12.422373 0 1 sctp 1500 -------D 0 0.0 1.0 1 69 145 0 0
r 12.446373 1 0 sctp 48 -------S 0 1.0 0.0 1 63 139 65535 65535
+ 12.446373 0 1 sctp 1500 -------D 0 0.0 1.0 1 70 146 0 0
+ 12.446373 0 1 sctp 1500 -------D 0 0.0 1.0 1 71 147 0 0
- 12.446373 0 1 sctp 1500 -------D 0 0.0 1.0 1 70 146 0 0
r 12.470373 1 0 sctp 48 -------S 0 1.0 0.0 1 64 140 65535 65535
+ 12.470373 0 1 sctp 1500 -------D 0 0.0 1.0 1 72 148 0 0
- 12.470373 0 1 sctp 1500 -------D 0 0.0 1.0 1 71 147 0 0
r 12.494373 1 0 sctp 48 -------S 0 1.0 0.0 1 65 141 65535 65535
+ 12.494373 0 1 sctp 1500 -------D 0 0.0 1.0 1 73 149 0 0
- 12.494373 0 1 sctp 1500 -------D 0 0.0 1.0 1 72 148 0 0
r 12.518373 1 0 sctp 48 -------S 0 1.0 0.0 1 66 142 65535 65535
+ 12.518373 0 1 sctp 1500 -------D 0 0.0 1.0 1 74 150 0 0
- 12.518373 0 1 sctp 1500 -------D 0 0.0 1.0 1 73 149 0 0
- 12.542373 0 1 sctp 1500 -------D 0 0.0 1.0 1 74 150 0 0
r 12.698373 0 1 sctp 1500 -------D 0 0.0 1.0 1 67 143 0 0
+ 12.698373 1 0 sctp 48 -------S 0 1.0 0.0 1 67 151 65535 65535
- 12.698373 1 0 sctp 48 -------S 0 1.0 0.0 1 67 151 65535 65535
r 12.722373 0 1 sctp 1500 -------D 0 0.0 1.0 1 68 144 0 0
+ 12.722373 1 0 sctp 48 -------S 0 1.0 0.0 1 68 152 65535 65535
- 12.722373 1 0 sctp 48 -------S 0 1.0 0.0 1 68 152 65535 65535
r 12.746373 0 1 sctp 1500 -------D 0 0.0 1.0 1 69 145 0 0
+ 12.746373 1 0 sctp 48 -------S 0 1.0 0.0 1 69 153 65535 65535
- 12.746373 1 0 sctp 48 -------S 0 1.0 0.0 1 69 153 65535 65535
r 12.770373 0 1 sctp 1500 -------D 0 0.0 1.0 1 70 146 0 0
+ 12.770373 1 0 sctp 48 -------S 0 1.0 0.0 1 70 154 65535 65535
- 12.770373 1 0 sctp 48 -------S 0 1.0 0.0 1 70 154 65535 65535
r 12.794373 0 1 sctp 1500 -------D 0 0.0 1.0 1 71 147 0 0
+ 12.794373 1 0 sctp 48 -------S 0 1.0 0.0 1 71 155 65535 65535
- 12.794373 1 0 sctp 48 -------S 0 1.0 0.0 1 71 155 65535 65535
r 12.818373 0 1 sctp 1500 -------D 0 0.0 1.0 1 72 148 0 0
+ 12.818373 1 0 sctp 48 -------S 0 1.0 0.0 1 72 156 65535 65535
- 12.818373 1 0 sctp 48 -------S 0 1.0 0.0 1 72 156 65535 65535
r 12.842373 0 1 sctp 1500 -------D 0 0.0 1.0 1 73 149 0 0
+ 12.842373 1 0 sctp 48 -------S 0 1.0 0.0 1 73 157 65535 65535
- 12.842373 1 0 sctp 48 -------S 0 1.0 0.0 1 73 157 65535 65535
r 12.866373 0 1 sctp 1500 -------D 0 0.0 1.0 1 74 150 0 0
+ 12.866373 1 0 sctp 48 -------S 0 1.0 0.0 1 74 158 65535 65535
- 12.866373 1 0 sctp 48 -------S 0 1.0 0.0 1 74 158 65535 65535
r 12.999141 1 0 sctp 48 -------S 0 1.0 0.0 1 67 151 65535 65535
+ 12.999141 0 1 sctp 1500 -------D 0 0.0 1.0 1 75 159 0 0
- 12.999141 0 1 sctp 1500 -------D 0 0.0 1.0 1 75 159 0 0
r 13.023141 1 0 sctp 48 -------S 0 1.0 0.0 1 68 152 65535 65535
+ 13.023141 0 1 sctp 1500 -------D 0 0.0 1.0 1 76 160 0 0
- 13.023141 0 1 sctp 1500 -------D 0 0.0 1.0 1 76 160 0 0
r 13.047141 1 0 sctp 48 -------S 0 1.0 0.0 1 69 153 65535 65535
+ 13.047141 0 1 sctp 1500 -------D 0 0.0 1.0 1 77 161 0 0
- 13.047141 0 1 sctp 1500 -------D 0 0.0 1.0 1 77 161 0 0
r 13.071141 1 0 sctp 48 -------S 0 1.0 0.0 1 70 154 65535 65535
+ 13.071141 0 1 sctp 1500 -------D 0 0.0 1.0 1 78 162 0 0
- 13.071141 0 1 sctp 1500 -------D 0 0.0 1.0 1 78 162 0 0
r 13.095141 1 0 sctp 48 -------S 0 1.0 0.0 1 71 155 65535 65535
+ 13.095141 0 1 sctp 1500 -------D 0 0.0 1.0 1 79 163 0 0
+ 13.095141 0 1 sctp 1500 -------D 0 0.0 1.0 1 80 164 0 0
- 13.095141 0 1 sctp 1500 -------D 0 0.0 1.0 1 79 163 0 0
r 13.119141 1 0 sctp 48 -------S 0 1.0 0.0 1 72 156 65535 65535
+ 13.119141 0 1 sctp 1500 -------D 0 0.0 1.0 1 81 165 0 0
- 13.119141 0 1 sctp 1500 -------D 0 0.0 1.0 1 80 164 0 0
r 13.143141 1 0 sctp 48 -------S 0 1.0 0.0 1 73 157 65535 65535
+ 13.143141 0 1 sctp 1500 -------D 0 0.0 1.0 1 82 166 0 0
- 13.143141 0 1 sctp 1500 -------D 0 0.0 1.0 1 81 165 0 0
r 13.167141 1 0 sctp 48 -------S 0 1.0 0.0 1 74 158 65535 65535
+ 13.167141 0 1 sctp 1500 -------D 0 0.0 1.0 1 83 167 0 0
- 13.167141 0 1 sctp 1500 -------D 0 0.0 1.0 1 82 166 0 0
- 13.191141 0 1 sctp 1500 -------D 0 0.0 1.0 1 83 167 0 0
r 13.323141 0 1 sctp 1500 -------D 0 0.0 1.0 1 75 159 0 0
+ 13.323141 1 0 sctp 48 -------S 0 1.0 0.0 1 75 168 65535 65535
- 13.323141 1 0 sctp 48 -------S 0 1.0 0.0 1 75 168 65535 65535
r 13.347141 0 1 sctp 1500 -------D 0 0.0 1.0 1 76 160 0 0
+ 13.347141 1 0 sctp 48 -------S 0 1.0 0.0 1 76 169 65535 65535
- 13.347141 1 0 sctp 48 -------S 0 1.0 0.0 1 76 169 65535 65535
r 13.371141 0 1 sctp 1500 -------D 0 0.0 1.0 1 77 161 0 0
+ 13.371141 1 0 sctp 48 -------S 0 1.0 0.0 1 77 170 65535 65535
- 13.371141 1 0 sctp 48 -------S 0 1.0 0.0 1 77 170 65535 65535
r 13.395141 0 1 sctp 1500 -------D 0 0.0 1.0 1 78 162 0 0
+ 13.395141 1 0 sctp 48 -------S 0 1.0 0.0 1 78 171 65535 65535
- 13.395141 1 0 sctp 48 -------S 0 1.0 0.0 1 78 171 65535 65535
r 13.419141 0 1 sctp 1500 -------D 0 0.0 1.0 1 79 163 0 0
+ 13.419141 1 0 sctp 48 -------S 0 1.0 0.0 1 79 172 65535 65535
- 13.419141 1 0 sctp 48 -------S 0 1.0 0.0 1 79 172 65535 65535
r 13.443141 0 1 sctp 1500 -------D 0 0.0 1.0 1 80 164 0 0
+ 13.443141 1 0 sctp 48 -------S 0 1.0 0.0 1 80 173 65535 65535
- 13.443141 1 0 sctp 48 -------S 0 1.0 0.0 1 80 173 65535 65535
r 13.467141 0 1 sctp 1500 -------D 0 0.0 1.0 1 81 165 0 0
+ 13.467141 1 0 sctp 48 -------S 0 1.0 0.0 1 81 174 65535 65535