+ 0.5 0 1 sctp 56 -------I 0 0.0 1.0 1 -1 2 65535 65535
- 0.5 0 1 sctp 56 -------I 0 0.0 1.0 1 -1 2 65535 65535
r 0.800896 0 1 sctp 56 -------I 0 0.0 1.0 1 -1 2 65535 65535
+ 0.800896 1 0 sctp 56 -------I 0 1.0 0.0 1 -1 3 65535 65535
- 0.800896 1 0 sctp 56 -------I 0 1.0 0.0 1 -1 3 65535 65535
r 1.101792 1 0 sctp 56 -------I 0 1.0 0.0 1 -1 3 65535 65535
+ 1.101792 0 1 sctp 36 -------I 0 0.0 1.0 1 -1 4 65535 65535
- 1.101792 0 1 sctp 36 -------I 0 0.0 1.0 1 -1 4 65535 65535
r 1.402368 0 1 sctp 36 -------I 0 0.0 1.0 1 -1 4 65535 65535
+ 1.402368 1 0 sctp 36 -------I 0 1.0 0.0 1 -1 5 65535 65535
- 1.402368 1 0 sctp 36 -------I 0 1.0 0.0 1 -1 5 65535 65535
r 1.702944 1 0 sctp 36 -------I 0 1.0 0.0 1 -1 5 65535 65535
+ 1.702944 0 1 sctp 56 -------H 0 0.0 1.0 1 -1 6 65535 65535
- 1.702944 0 1 sctp 56 -------H 0 0.0 1.0 1 -1 6 65535 65535
r 2.00384 0 1 sctp 56 -------H 0 0.0 1.0 1 -1 6 65535 65535
+ 2.00384 1 0 sctp 56 -------B 0 1.0 0.0 1 -1 7 65535 65535
- 2.00384 1 0 sctp 56 -------B 0 1.0 0.0 1 -1 7 65535 65535
r 2.304736 1 0 sctp 56 -------B 0 1.0 0.0 1 -1 7 65535 65535
+ 2.304736 0 1 sctp 1480 -------D 0 0.0 1.0 2 1 8 0 0
+ 2.304736 0 1 sctp 1480 -------D 0 0.0 1.0 2 2 8 1 0
- 2.304736 0 1 sctp 1480 -------D 0 0.0 1.0 2 1 8 0 0
- 2.304736 0 1 sctp 1480 -------D 0 0.0 1.0 2 2 8 1 0
+ 2.304736 0 1 sctp 1480 -------D 0 0.0 1.0 2 3 9 2 0
+ 2.304736 0 1 sctp 1480 -------D 0 0.0 1.0 2 4 9 3 0
+ 2.304736 0 1 sctp 1480 -------D 0 0.0 1.0 2 5 10 4 0
+ 2.304736 0 1 sctp 1480 -------D 0 0.0 1.0 2 6 10 5 0
- 2.328416 0 1 sctp 1480 -------D 0 0.0 1.0 2 3 9 2 0
- 2.328416 0 1 sctp 1480 -------D 0 0.0 1.0 2 4 9 3 0
- 2.352096 0 1 sctp 1480 -------D 0 0.0 1.0 2 5 10 4 0
- 2.352096 0 1 sctp 1480 -------D 0 0.0 1.0 2 6 10 5 0
r 2.628416 0 1 sctp 1480 -------D 0 0.0 1.0 2 1 8 0 0
r 2.628416 0 1 sctp 1480 -------D 0 0.0 1.0 2 2 8 1 0
+ 2.628416 1 0 sctp 52 -------N 0 1.0 0.0 1 2 11 65535 65535
- 2.628416 1 0 sctp 52 -------N 0 1.0 0.0 1 2 11 65535 65535
r 2.652096 0 1 sctp 1480 -------D 0 0.0 1.0 2 3 9 2 0
r 2.652096 0 1 sctp 1480 -------D 0 0.0 1.0 2 4 9 3 0
+ 2.652096 1 0 sctp 52 -------N 0 1.0 0.0 1 4 12 65535 65535
- 2.652096 1 0 sctp 52 -------N 0 1.0 0.0 1 4 12 65535 65535
r 2.675776 0 1 sctp 1480 -------D 0 0.0 1.0 2 5 10 4 0
r 2.675776 0 1 sctp 1480 -------D 0 0.0 1.0 2 6 10 5 0
+ 2.675776 1 0 sctp 52 -------N 0 1.0 0.0 1 6 13 65535 65535
- 2.675776 1 0 sctp 52 -------N 0 1.0 0.0 1 6 13 65535 65535
r 2.929248 1 0 sctp 52 -------N 0 1.0 0.0 1 2 11 65535 65535
+ 2.929248 0 1 sctp 1480 -------D 0 0.0 1.0 2 7 14 6 0
+ 2.929248 0 1 sctp 1480 -------D 0 0.0 1.0 2 8 14 7 0
- 2.929248 0 1 sctp 1480 -------D 0 0.0 1.0 2 7 14 6 0
- 2.929248 0 1 sctp 1480 -------D 0 0.0 1.0 2 8 14 7 0
r 2.952928 1 0 sctp 52 -------N 0 1.0 0.0 1 4 12 65535 65535
+ 2.952928 0 1 sctp 1480 -------D 0 0.0 1.0 2 9 15 8 0
+ 2.952928 0 1 sctp 1480 -------D 0 0.0 1.0 2 10 15 9 0
- 2.952928 0 1 sctp 1480 -------D 0 0.0 1.0 2 9 15 8 0
- 2.952928 0 1 sctp 1480 -------D 0 0.0 1.0 2 10 15 9 0
r 2.976608 1 0 sctp 52 -------N 0 1.0 0.0 1 6 13 65535 65535
+ 2.976608 0 1 sctp 1480 -------D 0 0.0 1.0 2 11 16 0 1
+ 2.976608 0 1 sctp 1480 -------D 0 0.0 1.0 2 12 16 1 1
- 2.976608 0 1 sctp 1480 -------D 0 0.0 1.0 2 11 16 0 1
- 2.976608 0 1 sctp 1480 -------D 0 0.0 1.0 2 12 16 1 1
r 3.252928 0 1 sctp 1480 -------D 0 0.0 1.0 2 7 14 6 0
r 3.252928 0 1 sctp 1480 -------D 0 0.0 1.0 2 8 14 7 0
+ 3.252928 1 0 sctp 52 -------N 0 1.0 0.0 1 8 17 65535 65535
- 3.252928 1 0 sctp 52 -------N 0 1.0 0.0 1 8 17 65535 65535
r 3.276608 0 1 sctp 1480 -------D 0 0.0 1.0 2 9 15 8 0
r 3.276608 0 1 sctp 1480 -------D 0 0.0 1.0 2 10 15 9 0
+ 3.276608 1 0 sctp 52 -------N 0 1.0 0.0 1 10 18 65535 65535
- 3.276608 1 0 sctp 52 -------N 0 1.0 0.0 1 10 18 65535 65535
r 3.300288 0 1 sctp 1480 -------D 0 0.0 1.0 2 11 16 0 1
r 3.300288 0 1 sctp 1480 -------D 0 0.0 1.0 2 12 16 1 1
+ 3.300288 1 0 sctp 52 -------N 0 1.0 0.0 1 12 19 65535 65535
- 3.300288 1 0 sctp 52 -------N 0 1.0 0.0 1 12 19 65535 65535
r 3.55376 1 0 sctp 52 -------N 0 1.0 0.0 1 8 17 65535 65535
+ 3.55376 0 1 sctp 1480 -------D 0 0.0 1.0 2 13 20 2 1
+ 3.55376 0 1 sctp 1480 -------D 0 0.0 1.0 2 14 20 3 1
- 3.55376 0 1 sctp 1480 -------D 0 0.0 1.0 2 13 20 2 1
- 3.55376 0 1 sctp 1480 -------D 0 0.0 1.0 2 14 20 3 1
r 3.57744 1 0 sctp 52 -------N 0 1.0 0.0 1 10 18 65535 65535
+ 3.57744 0 1 sctp 1480 -------D 0 0.0 1.0 2 15 21 4 1
+ 3.57744 0 1 sctp 1480 -------D 0 0.0 1.0 2 16 21 5 1
- 3.57744 0 1 sctp 1480 -------D 0 0.0 1.0 2 15 21 4 1
- 3.57744 0 1 sctp 1480 -------D 0 0.0 1.0 2 16 21 5 1
r 3.60112 1 0 sctp 52 -------N 0 1.0 0.0 1 12 19 65535 65535
+ 3.60112 0 1 sctp 1480 -------D 0 0.0 1.0 2 17 22 6 1
+ 3.60112 0 1 sctp 1480 -------D 0 0.0 1.0 2 18 22 7 1
- 3.60112 0 1 sctp 1480 -------D 0 0.0 1.0 2 17 22 6 1
- 3.60112 0 1 sctp 1480 -------D 0 0.0 1.0 2 18 22 7 1
r 3.87744 0 1 sctp 1480 -------D 0 0.0 1.0 2 13 20 2 1
r 3.87744 0 1 sctp 1480 -------D 0 0.0 1.0 2 14 20 3 1
+ 3.87744 1 0 sctp 52 -------N 0 1.0 0.0 1 14 23 65535 65535
- 3.87744 1 0 sctp 52 -------N 0 1.0 0.0 1 14 23 65535 65535
r 3.90112 0 1 sctp 1480 -------D 0 0.0 1.0 2 15 21 4 1
r 3.90112 0 1 sctp 1480 -------D 0 0.0 1.0 2 16 21 5 1
+ 3.90112 1 0 sctp 52 -------N 0 1.0 0.0 1 16 24 65535 65535
- 3.90112 1 0 sctp 52 -------N 0 1.0 0.0 1 16 24 65535 65535
r 3.9248 0 1 sctp 1480 -------D 0 0.0 1.0 2 17 22 6 1
r 3.9248 0 1 sctp 1480 -------D 0 0.0 1.0 2 18 22 7 1
+ 3.9248 1 0 sctp 52 -------N 0 1.0 0.0 1 18 25 65535 65535
- 3.9248 1 0 sctp 52 -------N 0 1.0 0.0 1 18 25 65535 65535
r 4.178272 1 0 sctp 52 -------N 0 1.0 0.0 1 14 23 65535 65535
d 4.178272 0 1 sctp 1480 -------D 0 0.0 1.0 2 19 26 8 1
d 4.178272 0 1 sctp 1480 -------D 0 0.0 1.0 2 20 26 9 1
r 4.201952 1 0 sctp 52 -------N 0 1.0 0.0 1 16 24 65535 65535
+ 4.201952 0 1 sctp 1480 -------D 0 0.0 1.0 2 21 27 0 2
+ 4.201952 0 1 sctp 1480 -------D 0 0.0 1.0 2 22 27 1 2
- 4.201952 0 1 sctp 1480 -------D 0 0.0 1.0 2 21 27 0 2
- 4.201952 0 1 sctp 1480 -------D 0 0.0 1.0 2 22 27 1 2
r 4.225632 1 0 sctp 52 -------N 0 1.0 0.0 1 18 25 65535 65535
+ 4.225632 0 1 sctp 1480 -------D 0 0.0 1.0 2 23 28 2 2
+ 4.225632 0 1 sctp 1480 -------D 0 0.0 1.0 2 24 28 3 2
- 4.225632 0 1 sctp 1480 -------D 0 0.0 1.0 2 23 28 2 2
- 4.225632 0 1 sctp 1480 -------D 0 0.0 1.0 2 24 28 3 2
r 4.525632 0 1 sctp 1480 -------D 0 0.0 1.0 2 21 27 0 2
r 4.525632 0 1 sctp 1480 -------D 0 0.0 1.0 2 22 27 1 2
+ 4.525632 1 0 sctp 56 -------N 0 1.0 0.0 1 18 29 65535 65535
- 4.525632 1 0 sctp 56 -------N 0 1.0 0.0 1 18 29 65535 65535
r 4.549312 0 1 sctp 1480 -------D 0 0.0 1.0 2 23 28 2 2
r 4.549312 0 1 sctp 1480 -------D 0 0.0 1.0 2 24 28 3 2
+ 4.549312 1 0 sctp 56 -------N 0 1.0 0.0 1 18 30 65535 65535
- 4.549312 1 0 sctp 56 -------N 0 1.0 0.0 1 18 30 65535 65535
r 4.826528 1 0 sctp 56 -------N 0 1.0 0.0 1 18 29 65535 65535
+ 4.826528 0 1 sctp 1480 -------D 0 0.0 1.0 2 25 31 4 2
+ 4.826528 0 1 sctp 1480 -------D 0 0.0 1.0 2 26 31 5 2
- 4.826528 0 1 sctp 1480 -------D 0 0.0 1.0 2 25 31 4 2
- 4.826528 0 1 sctp 1480 -------D 0 0.0 1.0 2 26 31 5 2
r 4.850208 1 0 sctp 56 -------N 0 1.0 0.0 1 18 30 65535 65535
+ 4.850208 0 1 sctp 1480 -------D 0 0.0 1.0 2 27 32 6 2
+ 4.850208 0 1 sctp 1480 -------D 0 0.0 1.0 2 28 32 7 2
- 4.850208 0 1 sctp 1480 -------D 0 0.0 1.0 2 27 32 6 2
- 4.850208 0 1 sctp 1480 -------D 0 0.0 1.0 2 28 32 7 2
r 5.150208 0 1 sctp 1480 -------D 0 0.0 1.0 2 25 31 4 2
r 5.150208 0 1 sctp 1480 -------D 0 0.0 1.0 2 26 31 5 2
+ 5.150208 1 0 sctp 56 -------N 0 1.0 0.0 1 18 33 65535 65535
- 5.150208 1 0 sctp 56 -------N 0 1.0 0.0 1 18 33 65535 65535
r 5.173888 0 1 sctp 1480 -------D 0 0.0 1.0 2 27 32 6 2
r 5.173888 0 1 sctp 1480 -------D 0 0.0 1.0 2 28 32 7 2
+ 5.173888 1 0 sctp 56 -------N 0 1.0 0.0 1 18 34 65535 65535
- 5.173888 1 0 sctp 56 -------N 0 1.0 0.0 1 18 34 65535 65535
d 5.38777 0 1 sctp 1480 -------D 0 0.0 1.0 2 19 35 8 1
d 5.38777 0 1 sctp 1480 -------D 0 0.0 1.0 2 20 35 9 1
r 5.451104 1 0 sctp 56 -------N 0 1.0 0.0 1 18 33 65535 65535
+ 5.451104 0 1 sctp 1480 -------D 0 0.0 1.0 2 27 36 6 2
+ 5.451104 0 1 sctp 1480 -------D 0 0.0 1.0 2 28 36 7 2
- 5.451104 0 1 sctp 1480 -------D 0 0.0 1.0 2 27 36 6 2
- 5.451104 0 1 sctp 1480 -------D 0 0.0 1.0 2 28 36 7 2
r 5.474784 1 0 sctp 56 -------N 0 1.0 0.0 1 18 34 65535 65535
+ 5.474784 0 1 sctp 1480 -------D 0 0.0 1.0 2 29 37 8 2
+ 5.474784 0 1 sctp 1480 -------D 0 0.0 1.0 2 30 37 9 2
- 5.474784 0 1 sctp 1480 -------D 0 0.0 1.0 2 29 37 8 2
- 5.474784 0 1 sctp 1480 -------D 0 0.0 1.0 2 30 37 9 2
r 5.774784 0 1 sctp 1480 -------D 0 0.0 1.0 2 27 36 6 2
r 5.774784 0 1 sctp 1480 -------D 0 0.0 1.0 2 28 36 7 2
+ 5.774784 1 0 sctp 64 -------N 0 1.0 0.0 1 18 38 65535 65535
- 5.774784 1 0 sctp 64 -------N 0 1.0 0.0 1 18 38 65535 65535
r 5.798464 0 1 sctp 1480 -------D 0 0.0 1.0 2 29 37 8 2
r 5.798464 0 1 sctp 1480 -------D 0 0.0 1.0 2 30 37 9 2
+ 5.798464 1 0 sctp 60 -------N 0 1.0 0.0 1 18 39 65535 65535
- 5.798464 1 0 sctp 60 -------N 0 1.0 0.0 1 18 39 65535 65535
r 6.075808 1 0 sctp 64 -------N 0 1.0 0.0 1 18 38 65535 65535
+ 6.075808 0 1 sctp 1480 -------D 0 0.0 1.0 2 19 40 8 1
+ 6.075808 0 1 sctp 1480 -------D 0 0.0 1.0 2 20 40 9 1
- 6.075808 0 1 sctp 1480 -------D 0 0.0 1.0 2 19 40 8 1
- 6.075808 0 1 sctp 1480 -------D 0 0.0 1.0 2 20 40 9 1
+ 6.075808 0 1 sctp 1480 -------D 0 0.0 1.0 2 31 41 0 3
+ 6.075808 0 1 sctp 1480 -------D 0 0.0 1.0 2 32 41 1 3
r 6.099424 1 0 sctp 60 -------N 0 1.0 0.0 1 18 39 65535 65535
- 6.099488 0 1 sctp 1480 -------D 0 0.0 1.0 2 31 41 0 3
- 6.099488 0 1 sctp 1480 -------D 0 0.0 1.0 2 32 41 1 3
r 6.399488 0 1 sctp 1480 -------D 0 0.0 1.0 2 19 40 8 1
r 6.399488 0 1 sctp 1480 -------D 0 0.0 1.0 2 20 40 9 1
+ 6.399488 1 0 sctp 52 -------N 0 1.0 0.0 1 30 42 65535 65535
- 6.399488 1 0 sctp 52 -------N 0 1.0 0.0 1 30 42 65535 65535
r 6.423168 0 1 sctp 1480 -------D 0 0.0 1.0 2 31 41 0 3
r 6.423168 0 1 sctp 1480 -------D 0 0.0 1.0 2 32 41 1 3
+ 6.423168 1 0 sctp 52 -------N 0 1.0 0.0 1 32 43 65535 65535
- 6.423168 1 0 sctp 52 -------N 0 1.0 0.0 1 32 43 65535 65535
r 6.70032 1 0 sctp 52 -------N 0 1.0 0.0 1 30 42 65535 65535
+ 6.70032 0 1 sctp 1480 -------D 0 0.0 1.0 2 33 44 2 3
+ 6.70032 0 1 sctp 1480 -------D 0 0.0 1.0 2 34 44 3 3
- 6.70032 0 1 sctp 1480 -------D 0 0.0 1.0 2 33 44 2 3
- 6.70032 0 1 sctp 1480 -------D 0 0.0 1.0 2 34 44 3 3
+ 6.70032 0 1 sctp 1480 -------D 0 0.0 1.0 2 35 45 4 3
+ 6.70032 0 1 sctp 1480 -------D 0 0.0 1.0 2 36 45 5 3
- 6.724 0 1 sctp 1480 -------D 0 0.0 1.0 2 35 45 4 3
- 6.724 0 1 sctp 1480 -------D 0 0.0 1.0 2 36 45 5 3
r 6.724 1 0 sctp 52 -------N 0 1.0 0.0 1 32 43 65535 65535
+ 6.724 0 1 sctp 1480 -------D 0 0.0 1.0 2 37 46 6 3
+ 6.724 0 1 sctp 1480 -------D 0 0.0 1.0 2 38 46 7 3
- 6.74768 0 1 sctp 1480 -------D 0 0.0 1.0 2 37 46 6 3
- 6.74768 0 1 sctp 1480 -------D 0 0.0 1.0 2 38 46 7 3
r 7.024 0 1 sctp 1480 -------D 0 0.0 1.0 2 33 44 2 3
r 7.024 0 1 sctp 1480 -------D 0 0.0 1.0 2 34 44 3 3
+ 7.024 1 0 sctp 52 -------N 0 1.0 0.0 1 34 47 65535 65535
- 7.024 1 0 sctp 52 -------N 0 1.0 0.0 1 34 47 65535 65535
r 7.04768 0 1 sctp 1480 -------D 0 0.0 1.0 2 35 45 4 3
r 7.04768 0 1 sctp 1480 -------D 0 0.0 1.0 2 36 45 5 3
+ 7.04768 1 0 sctp 52 -------N 0 1.0 0.0 1 36 48 65535 65535
- 7.04768 1 0 sctp 52 -------N 0 1.0 0.0 1 36 48 65535 65535
r 7.07136 0 1 sctp 1480 -------D 0 0.0 1.0 2 37 46 6 3
r 7.07136 0 1 sctp 1480 -------D 0 0.0 1.0 2 38 46 7 3
+ 7.07136 1 0 sctp 52 -------N 0 1.0 0.0 1 38 49 65535 65535
- 7.07136 1 0 sctp 52 -------N 0 1.0 0.0 1 38 49 65535 65535
r 7.324832 1 0 sctp 52 -------N 0 1.0 0.0 1 34 47 65535 65535
+ 7.324832 0 1 sctp 1480 -------D 0 0.0 1.0 2 39 50 8 3
+ 7.324832 0 1 sctp 1480 -------D 0 0.0 1.0 2 40 50 9 3
- 7.324832 0 1 sctp 1480 -------D 0 0.0 1.0 2 39 50 8 3
- 7.324832 0 1 sctp 1480 -------D 0 0.0 1.0 2 40 50 9 3
r 7.348512 1 0 sctp 52 -------N 0 1.0 0.0 1 36 48 65535 65535
+ 7.348512 0 1 sctp 1480 -------D 0 0.0 1.0 2 41 51 0 4
+ 7.348512 0 1 sctp 1480 -------D 0 0.0 1.0 2 42 51 1 4
- 7.348512 0 1 sctp 1480 -------D 0 0.0 1.0 2 41 51 0 4
- 7.348512 0 1 sctp 1480 -------D 0 0.0 1.0 2 42 51 1 4
r 7.372192 1 0 sctp 52 -------N 0 1.0 0.0 1 38 49 65535 65535
+ 7.372192 0 1 sctp 1480 -------D 0 0.0 1.0 2 43 52 2 4
+ 7.372192 0 1 sctp 1480 -------D 0 0.0 1.0 2 44 52 3 4
- 7.372192 0 1 sctp 1480 -------D 0 0.0 1.0 2 43 52 2 4
- 7.372192 0 1 sctp 1480 -------D 0 0.0 1.0 2 44 52 3 4
r 7.648512 0 1 sctp 1480 -------D 0 0.0 1.0 2 39 50 8 3
r 7.648512 0 1 sctp 1480 -------D 0 0.0 1.0 2 40 50 9 3
+ 7.648512 1 0 sctp 52 -------N 0 1.0 0.0 1 40 53 65535 65535
- 7.648512 1 0 sctp 52 -------N 0 1.0 0.0 1 40 53 65535 65535
r 7.672192 0 1 sctp 1480 -------D 0 0.0 1.0 2 41 51 0 4
r 7.672192 0 1 sctp 1480 -------D 0 0.0 1.0 2 42 51 1 4
+ 7.672192 1 0 sctp 52 -------N 0 1.0 0.0 1 42 54 65535 65535
- 7.672192 1 0 sctp 52 -------N 0 1.0 0.0 1 42 54 65535 65535
r 7.695872 0 1 sctp 1480 -------D 0 0.0 1.0 2 43 52 2 4
r 7.695872 0 1 sctp 1480 -------D 0 0.0 1.0 2 44 52 3 4
+ 7.695872 1 0 sctp 52 -------N 0 1.0 0.0 1 44 55 65535 65535
- 7.695872 1 0 sctp 52 -------N 0 1.0 0.0 1 44 55 65535 65535
r 7.949344 1 0 sctp 52 -------N 0 1.0 0.0 1 40 53 65535 65535
+ 7.949344 0 1 sctp 1480 -------D 0 0.0 1.0 2 45 56 4 4
+ 7.949344 0 1 sctp 1480 -------D 0 0.0 1.0 2 46 56 5 4
- 7.949344 0 1 sctp 1480 -------D 0 0.0 1.0 2 45 56 4 4
- 7.949344 0 1 sctp 1480 -------D 0 0.0 1.0 2 46 56 5 4
r 7.973024 1 0 sctp 52 -------N 0 1.0 0.0 1 42 54 65535 65535
+ 7.973024 0 1 sctp 1480 -------D 0 0.0 1.0 2 47 57 6 4
+ 7.973024 0 1 sctp 1480 -------D 0 0.0 1.0 2 48 57 7 4
- 7.973024 0 1 sctp 1480 -------D 0 0.0 1.0 2 47 57 6 4
- 7.973024 0 1 sctp 1480 -------D 0 0.0 1.0 2 48 57 7 4
r 7.996704 1 0 sctp 52 -------N 0 1.0 0.0 1 44 55 65535 65535
+ 7.996704 0 1 sctp 1480 -------D 0 0.0 1.0 2 49 58 8 4
+ 7.996704 0 1 sctp 1480 -------D 0 0.0 1.0 2 50 58 9 4
- 7.996704 0 1 sctp 1480 -------D 0 0.0 1.0 2 49 58 8 4
- 7.996704 0 1 sctp 1480 -------D 0 0.0 1.0 2 50 58 9 4
r 8.273024 0 1 sctp 1480 -------D 0 0.0 1.0 2 45 56 4 4
r 8.273024 0 1 sctp 1480 -------D 0 0.0 1.0 2 46 56 5 4
+ 8.273024 1 0 sctp 52 -------N 0 1.0 0.0 1 46 59 65535 65535
- 8.273024 1 0 sctp 52 -------N 0 1.0 0.0 1 46 59 65535 65535
r 8.296704 0 1 sctp 1480 -------D 0 0.0 1.0 2 47 57 6 4
r 8.296704 0 1 sctp 1480 -------D 0 0.0 1.0 2 48 57 7 4
+ 8.296704 1 0 sctp 52 -------N 0 1.0 0.0 1 48 60 65535 65535
- 8.296704 1 0 sctp 52 -------N 0 1.0 0.0 1 48 60 65535 65535
r 8.320384 0 1 sctp 1480 -------D 0 0.0 1.0 2 49 58 8 4
r 8.320384 0 1 sctp 1480 -------D 0 0.0 1.0 2 50 58 9 4
+ 8.320384 1 0 sctp 52 -------N 0 1.0 0.0 1 50 61 65535 65535
- 8.320384 1 0 sctp 52 -------N 0 1.0 0.0 1 50 61 65535 65535
r 8.573856 1 0 sctp 52 -------N 0 1.0 0.0 1 46 59 65535 65535
+ 8.573856 0 1 sctp 1480 -------D 0 0.0 1.0 2 51 62 0 5
+ 8.573856 0 1 sctp 1480 -------D 0 0.0 1.0 2 52 62 1 5
- 8.573856 0 1 sctp 1480 -------D 0 0.0 1.0 2 51 62 0 5
- 8.573856 0 1 sctp 1480 -------D 0 0.0 1.0 2 52 62 1 5
r 8.597536 1 0 sctp 52 -------N 0 1.0 0.0 1 48 60 65535 65535
+ 8.597536 0 1 sctp 1480 -------D 0 0.0 1.0 2 53 63 2 5
+ 8.597536 0 1 sctp 1480 -------D 0 0.0 1.0 2 54 63 3 5
- 8.597536 0 1 sctp 1480 -------D 0 0.0 1.0 2 53 63 2 5
- 8.597536 0 1 sctp 1480 -------D 0 0.0 1.0 2 54 63 3 5
r 8.621216 1 0 sctp 52 -------N 0 1.0 0.0 1 50 61 65535 65535
+ 8.621216 0 1 sctp 1480 -------D 0 0.0 1.0 2 55 64 4 5
+ 8.621216 0 1 sctp 1480 -------D 0 0.0 1.0 2 56 64 5 5
- 8.621216 0 1 sctp 1480 -------D 0 0.0 1.0 2 55 64 4 5
- 8.621216 0 1 sctp 1480 -------D 0 0.0 1.0 2 56 64 5 5
r 8.897536 0 1 sctp 1480 -------D 0 0.0 1.0 2 51 62 0 5
r 8.897536 0 1 sctp 1480 -------D 0 0.0 1.0 2 52 62 1 5
+ 8.897536 1 0 sctp 52 -------N 0 1.0 0.0 1 52 65 65535 65535
- 8.897536 1 0 sctp 52 -------N 0 1.0 0.0 1 52 65 65535 65535
r 8.921216 0 1 sctp 1480 -------D 0 0.0 1.0 2 53 63 2 5
r 8.921216 0 1 sctp 1480 -------D 0 0.0 1.0 2 54 63 3 5
+ 8.921216 1 0 sctp 52 -------N 0 1.0 0.0 1 54 66 65535 65535
- 8.921216 1 0 sctp 52 -------N 0 1.0 0.0 1 54 66 65535 65535
r 8.944896 0 1 sctp 1480 -------D 0 0.0 1.0 2 55 64 4 5
r 8.944896 0 1 sctp 1480 -------D 0 0.0 1.0 2 56 64 5 5
+ 8.944896 1 0 sctp 52 -------N 0 1.0 0.0 1 56 67 65535 65535
- 8.944896 1 0 sctp 52 -------N 0 1.0 0.0 1 56 67 65535 65535
r 9.198368 1 0 sctp 52 -------N 0 1.0 0.0 1 52 65 65535 65535
+ 9.198368 0 1 sctp 1480 -------D 0 0.0 1.0 2 57 68 6 5
+ 9.198368 0 1 sctp 1480 -------D 0 0.0 1.0 2 58 68 7 5
- 9.198368 0 1 sctp 1480 -------D 0 0.0 1.0 2 57 68 6 5
- 9.198368 0 1 sctp 1480 -------D 0 0.0 1.0 2 58 68 7 5
r 9.222048 1 0 sctp 52 -------N 0 1.0 0.0 1 54 66 65535 65535
+ 9.222048 0 1 sctp 1480 -------D 0 0.0 1.0 2 59 69 8 5
+ 9.222048 0 1 sctp 1480 -------D 0 0.0 1.0 2 60 69 9 5
- 9.222048 0 1 sctp 1480 -------D 0 0.0 1.0 2 59 69 8 5
- 9.222048 0 1 sctp 1480 -------D 0 0.0 1.0 2 60 69 9 5
r 9.245728 1 0 sctp 52 -------N 0 1.0 0.0 1 56 67 65535 65535
+ 9.245728 0 1 sctp 1480 -------D 0 0.0 1.0 2 61 70 0 6
+ 9.245728 0 1 sctp 1480 -------D 0 0.0 1.0 2 62 70 1 6
- 9.245728 0 1 sctp 1480 -------D 0 0.0 1.0 2 61 70 0 6
- 9.245728 0 1 sctp 1480 -------D 0 0.0 1.0 2 62 70 1 6
r 9.522048 0 1 sctp 1480 -------D 0 0.0 1.0 2 57 68 6 5
r 9.522048 0 1 sctp 1480 -------D 0 0.0 1.0 2 58 68 7 5
+ 9.522048 1 0 sctp 52 -------N 0 1.0 0.0 1 58 71 65535 65535
- 9.522048 1 0 sctp 52 -------N 0 1.0 0.0 1 58 71 65535 65535
r 9.545728 0 1 sctp 1480 -------D 0 0.0 1.0 2 59 69 8 5
r 9.545728 0 1 sctp 1480 -------D 0 0.0 1.0 2 60 69 9 5
+ 9.545728 1 0 sctp 52 -------N 0 1.0 0.0 1 60 72 65535 65535
- 9.545728 1 0 sctp 52 -------N 0 1.0 0.0 1 60 72 65535 65535
r 9.569408 0 1 sctp 1480 -------D 0 0.0 1.0 2 61 70 0 6
r 9.569408 0 1 sctp 1480 -------D 0 0.0 1.0 2 62 70 1 6
+ 9.569408 1 0 sctp 52 -------N 0 1.0 0.0 1 62 73 65535 65535
- 9.569408 1 0 sctp 52 -------N 0 1.0 0.0 1 62 73 65535 65535
r 9.82288 1 0 sctp 52 -------N 0 1.0 0.0 1 58 71 65535 65535
+ 9.82288 0 1 sctp 1480 -------D 0 0.0 1.0 2 63 74 2 6
+ 9.82288 0 1 sctp 1480 -------D 0 0.0 1.0 2 64 74 3 6
- 9.82288 0 1 sctp 1480 -------D 0 0.0 1.0 2 63 74 2 6
- 9.82288 0 1 sctp 1480 -------D 0 0.0 1.0 2 64 74 3 6
r 9.84656 1 0 sctp 52 -------N 0 1.0 0.0 1 60 72 65535 65535
+ 9.84656 0 1 sctp 1480 -------D 0 0.0 1.0 2 65 75 4 6
+ 9.84656 0 1 sctp 1480 -------D 0 0.0 1.0 2 66 75 5 6
- 9.84656 0 1 sctp 1480 -------D 0 0.0 1.0 2 65 75 4 6
- 9.84656 0 1 sctp 1480 -------D 0 0.0 1.0 2 66 75 5 6
r 9.87024 1 0 sctp 52 -------N 0 1.0 0.0 1 62 73 65535 65535
+ 9.87024 0 1 sctp 1480 -------D 0 0.0 1.0 2 67 76 6 6
+ 9.87024 0 1 sctp 1480 -------D 0 0.0 1.0 2 68 76 7 6
- 9.87024 0 1 sctp 1480 -------D 0 0.0 1.0 2 67 76 6 6
- 9.87024 0 1 sctp 1480 -------D 0 0.0 1.0 2 68 76 7 6
