+ 0.5 0 1 sctp 56 -------I 0 0.0 1.0 1 -1 2 65535 65535
- 0.5 0 1 sctp 56 -------I 0 0.0 1.0 1 -1 2 65535 65535
r 0.700896 0 1 sctp 56 -------I 0 0.0 1.0 1 -1 2 65535 65535
+ 0.700896 1 0 sctp 56 -------I 0 1.0 0.0 1 -1 3 65535 65535
- 0.700896 1 0 sctp 56 -------I 0 1.0 0.0 1 -1 3 65535 65535
r 0.901792 1 0 sctp 56 -------I 0 1.0 0.0 1 -1 3 65535 65535
+ 0.901792 0 1 sctp 36 -------I 0 0.0 1.0 1 -1 4 65535 65535
- 0.901792 0 1 sctp 36 -------I 0 0.0 1.0 1 -1 4 65535 65535
r 1.102368 0 1 sctp 36 -------I 0 0.0 1.0 1 -1 4 65535 65535
+ 1.102368 1 0 sctp 36 -------I 0 1.0 0.0 1 -1 5 65535 65535
- 1.102368 1 0 sctp 36 -------I 0 1.0 0.0 1 -1 5 65535 65535
r 1.302944 1 0 sctp 36 -------I 0 1.0 0.0 1 -1 5 65535 65535
+ 1.302944 0 1 sctp 56 -------H 0 0.0 1.0 1 -1 6 65535 65535
- 1.302944 0 1 sctp 56 -------H 0 0.0 1.0 1 -1 6 65535 65535
r 1.50384 0 1 sctp 56 -------H 0 0.0 1.0 1 -1 6 65535 65535
+ 1.50384 1 0 sctp 56 -------B 0 1.0 0.0 1 -1 7 65535 65535
- 1.50384 1 0 sctp 56 -------B 0 1.0 0.0 1 -1 7 65535 65535
r 1.704736 1 0 sctp 56 -------B 0 1.0 0.0 1 -1 7 65535 65535
+ 1.704736 0 1 sctp 1500 -------D 0 0.0 1.0 1 1 8 0 0
- 1.704736 0 1 sctp 1500 -------D 0 0.0 1.0 1 1 8 0 0
+ 1.704736 0 1 sctp 1500 -------D 0 0.0 1.0 1 2 9 1 0
+ 1.704736 0 1 sctp 1500 -------D 0 0.0 1.0 1 3 10 2 0
- 1.728736 0 1 sctp 1500 -------D 0 0.0 1.0 1 2 9 1 0
- 1.752736 0 1 sctp 1500 -------D 0 0.0 1.0 1 3 10 2 0
r 1.928736 0 1 sctp 1500 -------D 0 0.0 1.0 1 1 8 0 0
+ 1.928736 1 0 sctp 48 -------S 0 1.0 0.0 1 1 11 65535 65535
- 1.928736 1 0 sctp 48 -------S 0 1.0 0.0 1 1 11 65535 65535
r 1.952736 0 1 sctp 1500 -------D 0 0.0 1.0 1 2 9 1 0
r 1.976736 0 1 sctp 1500 -------D 0 0.0 1.0 1 3 10 2 0
+ 1.976736 1 0 sctp 48 -------S 0 1.0 0.0 1 3 12 65535 65535
- 1.976736 1 0 sctp 48 -------S 0 1.0 0.0 1 3 12 65535 65535
r 2.129504 1 0 sctp 48 -------S 0 1.0 0.0 1 1 11 65535 65535
+ 2.129504 0 1 sctp 1500 -------D 0 0.0 1.0 1 4 13 3 0
- 2.129504 0 1 sctp 1500 -------D 0 0.0 1.0 1 4 13 3 0
+ 2.129504 0 1 sctp 1500 -------D 0 0.0 1.0 1 5 14 4 0
- 2.153504 0 1 sctp 1500 -------D 0 0.0 1.0 1 5 14 4 0
r 2.177504 1 0 sctp 48 -------S 0 1.0 0.0 1 3 12 65535 65535
+ 2.177504 0 1 sctp 1500 -------D 0 0.0 1.0 1 6 15 0 1
+ 2.177504 0 1 sctp 1500 -------D 0 0.0 1.0 1 7 16 1 1
+ 2.177504 0 1 sctp 1500 -------D 0 0.0 1.0 1 8 17 2 1
- 2.177504 0 1 sctp 1500 -------D 0 0.0 1.0 1 6 15 0 1
- 2.201504 0 1 sctp 1500 -------D 0 0.0 1.0 1 7 16 1 1
- 2.225504 0 1 sctp 1500 -------D 0 0.0 1.0 1 8 17 2 1
r 2.353504 0 1 sctp 1500 -------D 0 0.0 1.0 1 4 13 3 0
r 2.377504 0 1 sctp 1500 -------D 0 0.0 1.0 1 5 14 4 0
+ 2.377504 1 0 sctp 48 -------S 0 1.0 0.0 1 5 18 65535 65535
- 2.377504 1 0 sctp 48 -------S 0 1.0 0.0 1 5 18 65535 65535
r 2.401504 0 1 sctp 1500 -------D 0 0.0 1.0 1 6 15 0 1
r 2.425504 0 1 sctp 1500 -------D 0 0.0 1.0 1 7 16 1 1
+ 2.425504 1 0 sctp 48 -------S 0 1.0 0.0 1 7 19 65535 65535
- 2.425504 1 0 sctp 48 -------S 0 1.0 0.0 1 7 19 65535 65535
r 2.449504 0 1 sctp 1500 -------D 0 0.0 1.0 1 8 17 2 1
r 2.578272 1 0 sctp 48 -------S 0 1.0 0.0 1 5 18 65535 65535
+ 2.578272 0 1 sctp 1500 -------D 0 0.0 1.0 1 9 20 3 1
- 2.578272 0 1 sctp 1500 -------D 0 0.0 1.0 1 9 20 3 1
+ 2.578272 0 1 sctp 1500 -------D 0 0.0 1.0 1 10 21 4 1
+ 2.578272 0 1 sctp 1500 -------D 0 0.0 1.0 1 11 22 0 2
- 2.602272 0 1 sctp 1500 -------D 0 0.0 1.0 1 10 21 4 1
r 2.626272 1 0 sctp 48 -------S 0 1.0 0.0 1 7 19 65535 65535
+ 2.626272 0 1 sctp 1500 -------D 0 0.0 1.0 1 12 23 1 2
+ 2.626272 0 1 sctp 1500 -------D 0 0.0 1.0 1 13 24 2 2
d 2.626272 0 1 sctp 1500 -------D 0 0.0 1.0 1 14 25 3 2
- 2.626272 0 1 sctp 1500 -------D 0 0.0 1.0 1 11 22 0 2
+ 2.649504 1 0 sctp 48 -------S 0 1.0 0.0 1 8 26 65535 65535
- 2.649504 1 0 sctp 48 -------S 0 1.0 0.0 1 8 26 65535 65535
- 2.650272 0 1 sctp 1500 -------D 0 0.0 1.0 1 12 23 1 2
- 2.674272 0 1 sctp 1500 -------D 0 0.0 1.0 1 13 24 2 2
r 2.802272 0 1 sctp 1500 -------D 0 0.0 1.0 1 9 20 3 1
r 2.826272 0 1 sctp 1500 -------D 0 0.0 1.0 1 10 21 4 1
+ 2.826272 1 0 sctp 48 -------S 0 1.0 0.0 1 10 27 65535 65535
- 2.826272 1 0 sctp 48 -------S 0 1.0 0.0 1 10 27 65535 65535
r 2.850272 0 1 sctp 1500 -------D 0 0.0 1.0 1 11 22 0 2
r 2.850272 1 0 sctp 48 -------S 0 1.0 0.0 1 8 26 65535 65535
+ 2.850272 0 1 sctp 1500 -------D 0 0.0 1.0 1 15 28 4 2
- 2.850272 0 1 sctp 1500 -------D 0 0.0 1.0 1 15 28 4 2
+ 2.850272 0 1 sctp 1500 -------D 0 0.0 1.0 1 16 29 0 3
r 2.874272 0 1 sctp 1500 -------D 0 0.0 1.0 1 12 23 1 2
+ 2.874272 1 0 sctp 48 -------S 0 1.0 0.0 1 12 30 65535 65535
- 2.874272 1 0 sctp 48 -------S 0 1.0 0.0 1 12 30 65535 65535
- 2.874272 0 1 sctp 1500 -------D 0 0.0 1.0 1 16 29 0 3
r 2.898272 0 1 sctp 1500 -------D 0 0.0 1.0 1 13 24 2 2
r 3.02704 1 0 sctp 48 -------S 0 1.0 0.0 1 10 27 65535 65535
+ 3.02704 0 1 sctp 1500 -------D 0 0.0 1.0 1 17 31 1 3
- 3.02704 0 1 sctp 1500 -------D 0 0.0 1.0 1 17 31 1 3
+ 3.02704 0 1 sctp 1500 -------D 0 0.0 1.0 1 18 32 2 3
+ 3.02704 0 1 sctp 1500 -------D 0 0.0 1.0 1 19 33 3 3
- 3.05104 0 1 sctp 1500 -------D 0 0.0 1.0 1 18 32 2 3
r 3.074272 0 1 sctp 1500 -------D 0 0.0 1.0 1 15 28 4 2
+ 3.074272 1 0 sctp 52 -------S 0 1.0 0.0 1 13 34 65535 65535
- 3.074272 1 0 sctp 52 -------S 0 1.0 0.0 1 13 34 65535 65535
r 3.07504 1 0 sctp 48 -------S 0 1.0 0.0 1 12 30 65535 65535
+ 3.07504 0 1 sctp 1500 -------D 0 0.0 1.0 1 20 35 4 3
+ 3.07504 0 1 sctp 1500 -------D 0 0.0 1.0 1 21 36 0 4
+ 3.07504 0 1 sctp 1500 -------D 0 0.0 1.0 1 22 37 1 4
- 3.07504 0 1 sctp 1500 -------D 0 0.0 1.0 1 19 33 3 3
r 3.098272 0 1 sctp 1500 -------D 0 0.0 1.0 1 16 29 0 3
+ 3.098272 1 0 sctp 52 -------S 0 1.0 0.0 1 13 38 65535 65535
- 3.098272 1 0 sctp 52 -------S 0 1.0 0.0 1 13 38 65535 65535
- 3.09904 0 1 sctp 1500 -------D 0 0.0 1.0 1 20 35 4 3
- 3.12304 0 1 sctp 1500 -------D 0 0.0 1.0 1 21 36 0 4
- 3.14704 0 1 sctp 1500 -------D 0 0.0 1.0 1 22 37 1 4
r 3.25104 0 1 sctp 1500 -------D 0 0.0 1.0 1 17 31 1 3
+ 3.25104 1 0 sctp 52 -------S 0 1.0 0.0 1 13 39 65535 65535
- 3.25104 1 0 sctp 52 -------S 0 1.0 0.0 1 13 39 65535 65535
r 3.27504 0 1 sctp 1500 -------D 0 0.0 1.0 1 18 32 2 3
+ 3.27504 1 0 sctp 52 -------S 0 1.0 0.0 1 13 40 65535 65535
- 3.27504 1 0 sctp 52 -------S 0 1.0 0.0 1 13 40 65535 65535
r 3.275104 1 0 sctp 52 -------S 0 1.0 0.0 1 13 34 65535 65535
+ 3.275104 0 1 sctp 1500 -------D 0 0.0 1.0 1 23 41 2 4
- 3.275104 0 1 sctp 1500 -------D 0 0.0 1.0 1 23 41 2 4
+ 3.275104 0 1 sctp 1500 -------D 0 0.0 1.0 1 24 42 3 4
+ 3.275104 0 1 sctp 1500 -------D 0 0.0 1.0 1 25 43 4 4
r 3.29904 0 1 sctp 1500 -------D 0 0.0 1.0 1 19 33 3 3
+ 3.29904 1 0 sctp 52 -------S 0 1.0 0.0 1 13 44 65535 65535
- 3.29904 1 0 sctp 52 -------S 0 1.0 0.0 1 13 44 65535 65535
r 3.299104 1 0 sctp 52 -------S 0 1.0 0.0 1 13 38 65535 65535
+ 3.299104 0 1 sctp 1500 -------D 0 0.0 1.0 1 26 45 0 5
- 3.299104 0 1 sctp 1500 -------D 0 0.0 1.0 1 24 42 3 4
r 3.32304 0 1 sctp 1500 -------D 0 0.0 1.0 1 20 35 4 3
+ 3.32304 1 0 sctp 52 -------S 0 1.0 0.0 1 13 46 65535 65535
- 3.32304 1 0 sctp 52 -------S 0 1.0 0.0 1 13 46 65535 65535
- 3.323104 0 1 sctp 1500 -------D 0 0.0 1.0 1 25 43 4 4
r 3.34704 0 1 sctp 1500 -------D 0 0.0 1.0 1 21 36 0 4
+ 3.34704 1 0 sctp 52 -------S 0 1.0 0.0 1 13 47 65535 65535
- 3.34704 1 0 sctp 52 -------S 0 1.0 0.0 1 13 47 65535 65535
- 3.347104 0 1 sctp 1500 -------D 0 0.0 1.0 1 26 45 0 5
r 3.37104 0 1 sctp 1500 -------D 0 0.0 1.0 1 22 37 1 4
+ 3.37104 1 0 sctp 52 -------S 0 1.0 0.0 1 13 48 65535 65535
- 3.37104 1 0 sctp 52 -------S 0 1.0 0.0 1 13 48 65535 65535
r 3.451872 1 0 sctp 52 -------S 0 1.0 0.0 1 13 39 65535 65535
+ 3.451872 0 1 sctp 1500 -------D 0 0.0 1.0 1 14 49 3 2
- 3.451872 0 1 sctp 1500 -------D 0 0.0 1.0 1 14 49 3 2
r 3.475872 1 0 sctp 52 -------S 0 1.0 0.0 1 13 40 65535 65535
r 3.499104 0 1 sctp 1500 -------D 0 0.0 1.0 1 23 41 2 4
+ 3.499104 1 0 sctp 52 -------S 0 1.0 0.0 1 13 50 65535 65535
- 3.499104 1 0 sctp 52 -------S 0 1.0 0.0 1 13 50 65535 65535
r 3.499872 1 0 sctp 52 -------S 0 1.0 0.0 1 13 44 65535 65535
r 3.523104 0 1 sctp 1500 -------D 0 0.0 1.0 1 24 42 3 4
+ 3.523104 1 0 sctp 52 -------S 0 1.0 0.0 1 13 51 65535 65535
- 3.523104 1 0 sctp 52 -------S 0 1.0 0.0 1 13 51 65535 65535
r 3.523872 1 0 sctp 52 -------S 0 1.0 0.0 1 13 46 65535 65535
r 3.547104 0 1 sctp 1500 -------D 0 0.0 1.0 1 25 43 4 4
+ 3.547104 1 0 sctp 52 -------S 0 1.0 0.0 1 13 52 65535 65535
- 3.547104 1 0 sctp 52 -------S 0 1.0 0.0 1 13 52 65535 65535
r 3.547872 1 0 sctp 52 -------S 0 1.0 0.0 1 13 47 65535 65535
r 3.571104 0 1 sctp 1500 -------D 0 0.0 1.0 1 26 45 0 5
+ 3.571104 1 0 sctp 52 -------S 0 1.0 0.0 1 13 53 65535 65535
- 3.571104 1 0 sctp 52 -------S 0 1.0 0.0 1 13 53 65535 65535
r 3.571872 1 0 sctp 52 -------S 0 1.0 0.0 1 13 48 65535 65535
+ 3.571872 0 1 sctp 1500 -------D 0 0.0 1.0 1 27 54 1 5
- 3.571872 0 1 sctp 1500 -------D 0 0.0 1.0 1 27 54 1 5
r 3.675872 0 1 sctp 1500 -------D 0 0.0 1.0 1 14 49 3 2
r 3.699936 1 0 sctp 52 -------S 0 1.0 0.0 1 13 50 65535 65535
+ 3.699936 0 1 sctp 1500 -------D 0 0.0 1.0 1 28 55 2 5
- 3.699936 0 1 sctp 1500 -------D 0 0.0 1.0 1 28 55 2 5
r 3.723936 1 0 sctp 52 -------S 0 1.0 0.0 1 13 51 65535 65535
+ 3.723936 0 1 sctp 1500 -------D 0 0.0 1.0 1 29 56 3 5
- 3.723936 0 1 sctp 1500 -------D 0 0.0 1.0 1 29 56 3 5
r 3.747936 1 0 sctp 52 -------S 0 1.0 0.0 1 13 52 65535 65535
+ 3.747936 0 1 sctp 1500 -------D 0 0.0 1.0 1 30 57 4 5
- 3.747936 0 1 sctp 1500 -------D 0 0.0 1.0 1 30 57 4 5
r 3.771936 1 0 sctp 52 -------S 0 1.0 0.0 1 13 53 65535 65535
+ 3.771936 0 1 sctp 1500 -------D 0 0.0 1.0 1 31 58 0 6
- 3.771936 0 1 sctp 1500 -------D 0 0.0 1.0 1 31 58 0 6
r 3.795872 0 1 sctp 1500 -------D 0 0.0 1.0 1 27 54 1 5
+ 3.795872 1 0 sctp 48 -------S 0 1.0 0.0 1 27 59 65535 65535
- 3.795872 1 0 sctp 48 -------S 0 1.0 0.0 1 27 59 65535 65535
r 3.923936 0 1 sctp 1500 -------D 0 0.0 1.0 1 28 55 2 5
r 3.947936 0 1 sctp 1500 -------D 0 0.0 1.0 1 29 56 3 5
+ 3.947936 1 0 sctp 48 -------S 0 1.0 0.0 1 29 60 65535 65535
- 3.947936 1 0 sctp 48 -------S 0 1.0 0.0 1 29 60 65535 65535
r 3.971936 0 1 sctp 1500 -------D 0 0.0 1.0 1 30 57 4 5
r 3.995936 0 1 sctp 1500 -------D 0 0.0 1.0 1 31 58 0 6
+ 3.995936 1 0 sctp 48 -------S 0 1.0 0.0 1 31 61 65535 65535
- 3.995936 1 0 sctp 48 -------S 0 1.0 0.0 1 31 61 65535 65535
r 3.99664 1 0 sctp 48 -------S 0 1.0 0.0 1 27 59 65535 65535
+ 3.99664 0 1 sctp 1500 -------D 0 0.0 1.0 1 32 62 1 6
- 3.99664 0 1 sctp 1500 -------D 0 0.0 1.0 1 32 62 1 6
+ 3.99664 0 1 sctp 1500 -------D 0 0.0 1.0 1 33 63 2 6
+ 3.99664 0 1 sctp 1500 -------D 0 0.0 1.0 1 34 64 3 6
- 4.02064 0 1 sctp 1500 -------D 0 0.0 1.0 1 33 63 2 6
- 4.04464 0 1 sctp 1500 -------D 0 0.0 1.0 1 34 64 3 6
r 4.148704 1 0 sctp 48 -------S 0 1.0 0.0 1 29 60 65535 65535
+ 4.148704 0 1 sctp 1500 -------D 0 0.0 1.0 1 35 65 4 6
- 4.148704 0 1 sctp 1500 -------D 0 0.0 1.0 1 35 65 4 6
+ 4.148704 0 1 sctp 1500 -------D 0 0.0 1.0 1 36 66 0 7
- 4.172704 0 1 sctp 1500 -------D 0 0.0 1.0 1 36 66 0 7
r 4.196704 1 0 sctp 48 -------S 0 1.0 0.0 1 31 61 65535 65535
+ 4.196704 0 1 sctp 1500 -------D 0 0.0 1.0 1 37 67 1 7
+ 4.196704 0 1 sctp 1500 -------D 0 0.0 1.0 1 38 68 2 7
- 4.196704 0 1 sctp 1500 -------D 0 0.0 1.0 1 37 67 1 7
r 4.22064 0 1 sctp 1500 -------D 0 0.0 1.0 1 32 62 1 6
- 4.220704 0 1 sctp 1500 -------D 0 0.0 1.0 1 38 68 2 7
r 4.24464 0 1 sctp 1500 -------D 0 0.0 1.0 1 33 63 2 6
+ 4.24464 1 0 sctp 48 -------S 0 1.0 0.0 1 33 69 65535 65535
- 4.24464 1 0 sctp 48 -------S 0 1.0 0.0 1 33 69 65535 65535
r 4.26864 0 1 sctp 1500 -------D 0 0.0 1.0 1 34 64 3 6
r 4.372704 0 1 sctp 1500 -------D 0 0.0 1.0 1 35 65 4 6
+ 4.372704 1 0 sctp 48 -------S 0 1.0 0.0 1 35 70 65535 65535
- 4.372704 1 0 sctp 48 -------S 0 1.0 0.0 1 35 70 65535 65535
r 4.396704 0 1 sctp 1500 -------D 0 0.0 1.0 1 36 66 0 7
r 4.420704 0 1 sctp 1500 -------D 0 0.0 1.0 1 37 67 1 7
+ 4.420704 1 0 sctp 48 -------S 0 1.0 0.0 1 37 71 65535 65535
- 4.420704 1 0 sctp 48 -------S 0 1.0 0.0 1 37 71 65535 65535
r 4.444704 0 1 sctp 1500 -------D 0 0.0 1.0 1 38 68 2 7
r 4.445408 1 0 sctp 48 -------S 0 1.0 0.0 1 33 69 65535 65535
+ 4.445408 0 1 sctp 1500 -------D 0 0.0 1.0 1 39 72 3 7
- 4.445408 0 1 sctp 1500 -------D 0 0.0 1.0 1 39 72 3 7
+ 4.445408 0 1 sctp 1500 -------D 0 0.0 1.0 1 40 73 4 7
- 4.469408 0 1 sctp 1500 -------D 0 0.0 1.0 1 40 73 4 7
r 4.573472 1 0 sctp 48 -------S 0 1.0 0.0 1 35 70 65535 65535
+ 4.573472 0 1 sctp 1500 -------D 0 0.0 1.0 1 41 74 0 8
- 4.573472 0 1 sctp 1500 -------D 0 0.0 1.0 1 41 74 0 8
+ 4.573472 0 1 sctp 1500 -------D 0 0.0 1.0 1 42 75 1 8
+ 4.573472 0 1 sctp 1500 -------D 0 0.0 1.0 1 43 76 2 8
- 4.597472 0 1 sctp 1500 -------D 0 0.0 1.0 1 42 75 1 8
r 4.621472 1 0 sctp 48 -------S 0 1.0 0.0 1 37 71 65535 65535
+ 4.621472 0 1 sctp 1500 -------D 0 0.0 1.0 1 44 77 3 8
+ 4.621472 0 1 sctp 1500 -------D 0 0.0 1.0 1 45 78 4 8
- 4.621472 0 1 sctp 1500 -------D 0 0.0 1.0 1 43 76 2 8
+ 4.644704 1 0 sctp 48 -------S 0 1.0 0.0 1 38 79 65535 65535
- 4.644704 1 0 sctp 48 -------S 0 1.0 0.0 1 38 79 65535 65535
- 4.645472 0 1 sctp 1500 -------D 0 0.0 1.0 1 44 77 3 8
r 4.669408 0 1 sctp 1500 -------D 0 0.0 1.0 1 39 72 3 7
- 4.669472 0 1 sctp 1500 -------D 0 0.0 1.0 1 45 78 4 8
r 4.693408 0 1 sctp 1500 -------D 0 0.0 1.0 1 40 73 4 7
+ 4.693408 1 0 sctp 48 -------S 0 1.0 0.0 1 40 80 65535 65535
- 4.693408 1 0 sctp 48 -------S 0 1.0 0.0 1 40 80 65535 65535
r 4.797472 0 1 sctp 1500 -------D 0 0.0 1.0 1 41 74 0 8
r 4.821472 0 1 sctp 1500 -------D 0 0.0 1.0 1 42 75 1 8
+ 4.821472 1 0 sctp 48 -------S 0 1.0 0.0 1 42 81 65535 65535
- 4.821472 1 0 sctp 48 -------S 0 1.0 0.0 1 42 81 65535 65535
r 4.845472 0 1 sctp 1500 -------D 0 0.0 1.0 1 43 76 2 8
r 4.845472 1 0 sctp 48 -------S 0 1.0 0.0 1 38 79 65535 65535
+ 4.845472 0 1 sctp 1500 -------D 0 0.0 1.0 1 46 82 0 9
- 4.845472 0 1 sctp 1500 -------D 0 0.0 1.0 1 46 82 0 9
r 4.869472 0 1 sctp 1500 -------D 0 0.0 1.0 1 44 77 3 8
+ 4.869472 1 0 sctp 48 -------S 0 1.0 0.0 1 44 83 65535 65535
- 4.869472 1 0 sctp 48 -------S 0 1.0 0.0 1 44 83 65535 65535
r 4.893472 0 1 sctp 1500 -------D 0 0.0 1.0 1 45 78 4 8
r 4.894176 1 0 sctp 48 -------S 0 1.0 0.0 1 40 80 65535 65535
+ 4.894176 0 1 sctp 1500 -------D 0 0.0 1.0 1 47 84 1 9
- 4.894176 0 1 sctp 1500 -------D 0 0.0 1.0 1 47 84 1 9
+ 4.894176 0 1 sctp 1500 -------D 0 0.0 1.0 1 48 85 2 9
- 4.918176 0 1 sctp 1500 -------D 0 0.0 1.0 1 48 85 2 9
r 5.02224 1 0 sctp 48 -------S 0 1.0 0.0 1 42 81 65535 65535
+ 5.02224 0 1 sctp 1500 -------D 0 0.0 1.0 1 49 86 3 9
- 5.02224 0 1 sctp 1500 -------D 0 0.0 1.0 1 49 86 3 9
+ 5.02224 0 1 sctp 1500 -------D 0 0.0 1.0 1 50 87 4 9
+ 5.02224 0 1 sctp 1500 -------D 0 0.0 1.0 1 51 88 0 10
- 5.04624 0 1 sctp 1500 -------D 0 0.0 1.0 1 50 87 4 9
r 5.069472 0 1 sctp 1500 -------D 0 0.0 1.0 1 46 82 0 9
+ 5.069472 1 0 sctp 48 -------S 0 1.0 0.0 1 46 89 65535 65535
- 5.069472 1 0 sctp 48 -------S 0 1.0 0.0 1 46 89 65535 65535
r 5.07024 1 0 sctp 48 -------S 0 1.0 0.0 1 44 83 65535 65535
+ 5.07024 0 1 sctp 1500 -------D 0 0.0 1.0 1 52 90 1 10
+ 5.07024 0 1 sctp 1500 -------D 0 0.0 1.0 1 53 91 2 10
- 5.07024 0 1 sctp 1500 -------D 0 0.0 1.0 1 51 88 0 10
- 5.09424 0 1 sctp 1500 -------D 0 0.0 1.0 1 52 90 1 10
r 5.118176 0 1 sctp 1500 -------D 0 0.0 1.0 1 47 84 1 9
- 5.11824 0 1 sctp 1500 -------D 0 0.0 1.0 1 53 91 2 10
r 5.142176 0 1 sctp 1500 -------D 0 0.0 1.0 1 48 85 2 9
+ 5.142176 1 0 sctp 48 -------S 0 1.0 0.0 1 48 92 65535 65535
- 5.142176 1 0 sctp 48 -------S 0 1.0 0.0 1 48 92 65535 65535
r 5.24624 0 1 sctp 1500 -------D 0 0.0 1.0 1 49 86 3 9
r 5.27024 0 1 sctp 1500 -------D 0 0.0 1.0 1 50 87 4 9
+ 5.27024 1 0 sctp 48 -------S 0 1.0 0.0 1 50 93 65535 65535
- 5.27024 1 0 sctp 48 -------S 0 1.0 0.0 1 50 93 65535 65535
r 5.27024 1 0 sctp 48 -------S 0 1.0 0.0 1 46 89 65535 65535
+ 5.27024 0 1 sctp 1500 -------D 0 0.0 1.0 1 54 94 3 10
- 5.27024 0 1 sctp 1500 -------D 0 0.0 1.0 1 54 94 3 10
+ 5.27024 0 1 sctp 1500 -------D 0 0.0 1.0 1 55 95 4 10
r 5.29424 0 1 sctp 1500 -------D 0 0.0 1.0 1 51 88 0 10
- 5.29424 0 1 sctp 1500 -------D 0 0.0 1.0 1 55 95 4 10
r 5.31824 0 1 sctp 1500 -------D 0 0.0 1.0 1 52 90 1 10
+ 5.31824 1 0 sctp 48 -------S 0 1.0 0.0 1 52 96 65535 65535
- 5.31824 1 0 sctp 48 -------S 0 1.0 0.0 1 52 96 65535 65535
r 5.34224 0 1 sctp 1500 -------D 0 0.0 1.0 1 53 91 2 10
r 5.342944 1 0 sctp 48 -------S 0 1.0 0.0 1 48 92 65535 65535
+ 5.342944 0 1 sctp 1500 -------D 0 0.0 1.0 1 56 97 0 11
- 5.342944 0 1 sctp 1500 -------D 0 0.0 1.0 1 56 97 0 11
+ 5.342944 0 1 sctp 1500 -------D 0 0.0 1.0 1 57 98 1 11
- 5.366944 0 1 sctp 1500 -------D 0 0.0 1.0 1 57 98 1 11
r 5.471008 1 0 sctp 48 -------S 0 1.0 0.0 1 50 93 65535 65535
+ 5.471008 0 1 sctp 1500 -------D 0 0.0 1.0 1 58 99 2 11
- 5.471008 0 1 sctp 1500 -------D 0 0.0 1.0 1 58 99 2 11
+ 5.471008 0 1 sctp 1500 -------D 0 0.0 1.0 1 59 100 3 11
+ 5.471008 0 1 sctp 1500 -------D 0 0.0 1.0 1 60 101 4 11
r 5.49424 0 1 sctp 1500 -------D 0 0.0 1.0 1 54 94 3 10
+ 5.49424 1 0 sctp 48 -------S 0 1.0 0.0 1 54 102 65535 65535
- 5.49424 1 0 sctp 48 -------S 0 1.0 0.0 1 54 102 65535 65535
- 5.495008 0 1 sctp 1500 -------D 0 0.0 1.0 1 59 100 3 11
r 5.51824 0 1 sctp 1500 -------D 0 0.0 1.0 1 55 95 4 10
r 5.519008 1 0 sctp 48 -------S 0 1.0 0.0 1 52 96 65535 65535
+ 5.519008 0 1 sctp 1500 -------D 0 0.0 1.0 1 61 103 0 12
+ 5.519008 0 1 sctp 1500 -------D 0 0.0 1.0 1 62 104 1 12
- 5.519008 0 1 sctp 1500 -------D 0 0.0 1.0 1 60 101 4 11
- 5.543008 0 1 sctp 1500 -------D 0 0.0 1.0 1 61 103 0 12
r 5.566944 0 1 sctp 1500 -------D 0 0.0 1.0 1 56 97 0 11
+ 5.566944 1 0 sctp 48 -------S 0 1.0 0.0 1 56 105 65535 65535
- 5.566944 1 0 sctp 48 -------S 0 1.0 0.0 1 56 105 65535 65535
- 5.567008 0 1 sctp 1500 -------D 0 0.0 1.0 1 62 104 1 12
r 5.590944 0 1 sctp 1500 -------D 0 0.0 1.0 1 57 98 1 11
r 5.695008 0 1 sctp 1500 -------D 0 0.0 1.0 1 58 99 2 11
+ 5.695008 1 0 sctp 48 -------S 0 1.0 0.0 1 58 106 65535 65535
- 5.695008 1 0 sctp 48 -------S 0 1.0 0.0 1 58 106 65535 65535
r 5.695008 1 0 sctp 48 -------S 0 1.0 0.0 1 54 102 65535 65535
+ 5.695008 0 1 sctp 1500 -------D 0 0.0 1.0 1 63 107 2 12
- 5.695008 0 1 sctp 1500 -------D 0 0.0 1.0 1 63 107 2 12
+ 5.695008 0 1 sctp 1500 -------D 0 0.0 1.0 1 64 108 3 12
r 5.719008 0 1 sctp 1500 -------D 0 0.0 1.0 1 59 100 3 11
- 5.719008 0 1 sctp 1500 -------D 0 0.0 1.0 1 64 108 3 12
r 5.743008 0 1 sctp 1500 -------D 0 0.0 1.0 1 60 101 4 11
+ 5.743008 1 0 sctp 48 -------S 0 1.0 0.0 1 60 109 65535 65535
- 5.743008 1 0 sctp 48 -------S 0 1.0 0.0 1 60 109 65535 65535
r 5.767008 0 1 sctp 1500 -------D 0 0.0 1.0 1 61 103 0 12
r 5.767712 1 0 sctp 48 -------S 0 1.0 0.0 1 56 105 65535 65535
+ 5.767712 0 1 sctp 1500 -------D 0 0.0 1.0 1 65 110 4 12
- 5.767712 0 1 sctp 1500 -------D 0 0.0 1.0 1 65 110 4 12
+ 5.767712 0 1 sctp 1500 -------D 0 0.0 1.0 1 66 111 0 13
r 5.791008 0 1 sctp 1500 -------D 0 0.0 1.0 1 62 104 1 12
+ 5.791008 1 0 sctp 48 -------S 0 1.0 0.0 1 62 112 65535 65535
- 5.791008 1 0 sctp 48 -------S 0 1.0 0.0 1 62 112 65535 65535
- 5.791712 0 1 sctp 1500 -------D 0 0.0 1.0 1 66 111 0 13
r 5.895776 1 0 sctp 48 -------S 0 1.0 0.0 1 58 106 65535 65535
+ 5.895776 0 1 sctp 1500 -------D 0 0.0 1.0 1 67 113 1 13
- 5.895776 0 1 sctp 1500 -------D 0 0.0 1.0 1 67 113 1 13
+ 5.895776 0 1 sctp 1500 -------D 0 0.0 1.0 1 68 114 2 13
r 5.919008 0 1 sctp 1500 -------D 0 0.0 1.0 1 63 107 2 12
- 5.919776 0 1 sctp 1500 -------D 0 0.0 1.0 1 68 114 2 13
r 5.943008 0 1 sctp 1500 -------D 0 0.0 1.0 1 64 108 3 12
+ 5.943008 1 0 sctp 48 -------S 0 1.0 0.0 1 64 115 65535 65535
- 5.943008 1 0 sctp 48 -------S 0 1.0 0.0 1 64 115 65535 65535
r 5.943776 1 0 sctp 48 -------S 0 1.0 0.0 1 60 109 65535 65535
+ 5.943776 0 1 sctp 1500 -------D 0 0.0 1.0 1 69 116 3 13
+ 5.943776 0 1 sctp 1500 -------D 0 0.0 1.0 1 70 117 4 13
+ 5.943776 0 1 sctp 1500 -------D 0 0.0 1.0 1 71 118 0 14
- 5.943776 0 1 sctp 1500 -------D 0 0.0 1.0 1 69 116 3 13
- 5.967776 0 1 sctp 1500 -------D 0 0.0 1.0 1 70 117 4 13
r 5.991712 0 1 sctp 1500 -------D 0 0.0 1.0 1 65 110 4 12
r 5.991776 1 0 sctp 48 -------S 0 1.0 0.0 1 62 112 65535 65535
+ 5.991776 0 1 sctp 1500 -------D 0 0.0 1.0 1 72 119 1 14
+ 5.991776 0 1 sctp 1500 -------D 0 0.0 1.0 1 73 120 2 14
- 5.991776 0 1 sctp 1500 -------D 0 0.0 1.0 1 71 118 0 14
r 6.015712 0 1 sctp 1500 -------D 0 0.0 1.0 1 66 111 0 13
+ 6.015712 1 0 sctp 48 -------S 0 1.0 0.0 1 66 121 65535 65535
- 6.015712 1 0 sctp 48 -------S 0 1.0 0.0 1 66 121 65535 65535
- 6.015776 0 1 sctp 1500 -------D 0 0.0 1.0 1 72 119 1 14
- 6.039776 0 1 sctp 1500 -------D 0 0.0 1.0 1 73 120 2 14
r 6.119776 0 1 sctp 1500 -------D 0 0.0 1.0 1 67 113 1 13
r 6.143776 0 1 sctp 1500 -------D 0 0.0 1.0 1 68 114 2 13
+ 6.143776 1 0 sctp 48 -------S 0 1.0 0.0 1 68 122 65535 65535
- 6.143776 1 0 sctp 48 -------S 0 1.0 0.0 1 68 122 65535 65535
r 6.143776 1 0 sctp 48 -------S 0 1.0 0.0 1 64 115 65535 65535
+ 6.143776 0 1 sctp 1500 -------D 0 0.0 1.0 1 74 123 3 14
- 6.143776 0 1 sctp 1500 -------D 0 0.0 1.0 1 74 123 3 14
+ 6.143776 0 1 sctp 1500 -------D 0 0.0 1.0 1 75 124 4 14
r 6.167776 0 1 sctp 1500 -------D 0 0.0 1.0 1 69 116 3 13
- 6.167776 0 1 sctp 1500 -------D 0 0.0 1.0 1 75 124 4 14
r 6.191776 0 1 sctp 1500 -------D 0 0.0 1.0 1 70 117 4 13
+ 6.191776 1 0 sctp 48 -------S 0 1.0 0.0 1 70 125 65535 65535
- 6.191776 1 0 sctp 48 -------S 0 1.0 0.0 1 70 125 65535 65535
r 6.215776 0 1 sctp 1500 -------D 0 0.0 1.0 1 71 118 0 14
r 6.21648 1 0 sctp 48 -------S 0 1.0 0.0 1 66 121 65535 65535
+ 6.21648 0 1 sctp 1500 -------D 0 0.0 1.0 1 76 126 0 15
- 6.21648 0 1 sctp 1500 -------D 0 0.0 1.0 1 76 126 0 15
+ 6.21648 0 1 sctp 1500 -------D 0 0.0 1.0 1 77 127 1 15
r 6.239776 0 1 sctp 1500 -------D 0 0.0 1.0 1 72 119 1 14
+ 6.239776 1 0 sctp 48 -------S 0 1.0 0.0 1 72 128 65535 65535
- 6.239776 1 0 sctp 48 -------S 0 1.0 0.0 1 72 128 65535 65535
- 6.24048 0 1 sctp 1500 -------D 0 0.0 1.0 1 77 127 1 15
r 6.263776 0 1 sctp 1500 -------D 0 0.0 1.0 1 73 120 2 14
r 6.344544 1 0 sctp 48 -------S 0 1.0 0.0 1 68 122 65535 65535
+ 6.344544 0 1 sctp 1500 -------D 0 0.0 1.0 1 78 129 2 15
- 6.344544 0 1 sctp 1500 -------D 0 0.0 1.0 1 78 129 2 15
+ 6.344544 0 1 sctp 1500 -------D 0 0.0 1.0 1 79 130 3 15
r 6.367776 0 1 sctp 1500 -------D 0 0.0 1.0 1 74 123 3 14
+ 6.367776 1 0 sctp 48 -------S 0 1.0 0.0 1 74 131 65535 65535
- 6.367776 1 0 sctp 48 -------S 0 1.0 0.0 1 74 131 65535 65535
- 6.368544 0 1 sctp 1500 -------D 0 0.0 1.0 1 79 130 3 15
r 6.391776 0 1 sctp 1500 -------D 0 0.0 1.0 1 75 124 4 14
r 6.392544 1 0 sctp 48 -------S 0 1.0 0.0 1 70 125 65535 65535
+ 6.392544 0 1 sctp 1500 -------D 0 0.0 1.0 1 80 132 4 15
+ 6.392544 0 1 sctp 1500 -------D 0 0.0 1.0 1 81 133 0 16
+ 6.392544 0 1 sctp 1500 -------D 0 0.0 1.0 1 82 134 1 16
- 6.392544 0 1 sctp 1500 -------D 0 0.0 1.0 1 80 132 4 15
- 6.416544 0 1 sctp 1500 -------D 0 0.0 1.0 1 81 133 0 16
r 6.44048 0 1 sctp 1500 -------D 0 0.0 1.0 1 76 126 0 15
+ 6.44048 1 0 sctp 48 -------S 0 1.0 0.0 1 76 135 65535 65535
- 6.44048 1 0 sctp 48 -------S 0 1.0 0.0 1 76 135 65535 65535
r 6.440544 1 0 sctp 48 -------S 0 1.0 0.0 1 72 128 65535 65535
+ 6.440544 0 1 sctp 1500 -------D 0 0.0 1.0 1 83 136 2 16
+ 6.440544 0 1 sctp 1500 -------D 0 0.0 1.0 1 84 137 3 16
- 6.440544 0 1 sctp 1500 -------D 0 0.0 1.0 1 82 134 1 16
r 6.46448 0 1 sctp 1500 -------D 0 0.0 1.0 1 77 127 1 15
- 6.464544 0 1 sctp 1500 -------D 0 0.0 1.0 1 83 136 2 16
- 6.488544 0 1 sctp 1500 -------D 0 0.0 1.0 1 84 137 3 16
r 6.568544 0 1 sctp 1500 -------D 0 0.0 1.0 1 78 129 2 15
+ 6.568544 1 0 sctp 48 -------S 0 1.0 0.0 1 78 138 65535 65535
- 6.568544 1 0 sctp 48 -------S 0 1.0 0.0 1 78 138 65535 65535
r 6.568544 1 0 sctp 48 -------S 0 1.0 0.0 1 74 131 65535 65535
+ 6.568544 0 1 sctp 1500 -------D 0 0.0 1.0 1 85 139 4 16
- 6.568544 0 1 sctp 1500 -------D 0 0.0 1.0 1 85 139 4 16
+ 6.568544 0 1 sctp 1500 -------D 0 0.0 1.0 1 86 140 0 17
r 6.592544 0 1 sctp 1500 -------D 0 0.0 1.0 1 79 130 3 15
- 6.592544 0 1 sctp 1500 -------D 0 0.0 1.0 1 86 140 0 17
r 6.616544 0 1 sctp 1500 -------D 0 0.0 1.0 1 80 132 4 15
+ 6.616544 1 0 sctp 48 -------S 0 1.0 0.0 1 80 141 65535 65535
- 6.616544 1 0 sctp 48 -------S 0 1.0 0.0 1 80 141 65535 65535
r 6.640544 0 1 sctp 1500 -------D 0 0.0 1.0 1 81 133 0 16
r 6.641248 1 0 sctp 48 -------S 0 1.0 0.0 1 76 135 65535 65535
+ 6.641248 0 1 sctp 1500 -------D 0 0.0 1.0 1 87 142 1 17
- 6.641248 0 1 sctp 1500 -------D 0 0.0 1.0 1 87 142 1 17
+ 6.641248 0 1 sctp 1500 -------D 0 0.0 1.0 1 88 143 2 17
r 6.664544 0 1 sctp 1500 -------D 0 0.0 1.0 1 82 134 1 16
+ 6.664544 1 0 sctp 48 -------S 0 1.0 0.0 1 82 144 65535 65535
- 6.664544 1 0 sctp 48 -------S 0 1.0 0.0 1 82 144 65535 65535
- 6.665248 0 1 sctp 1500 -------D 0 0.0 1.0 1 88 143 2 17
r 6.688544 0 1 sctp 1500 -------D 0 0.0 1.0 1 83 136 2 16
r 6.712544 0 1 sctp 1500 -------D 0 0.0 1.0 1 84 137 3 16
+ 6.712544 1 0 sctp 48 -------S 0 1.0 0.0 1 84 145 65535 65535
- 6.712544 1 0 sctp 48 -------S 0 1.0 0.0 1 84 145 65535 65535
r 6.769312 1 0 sctp 48 -------S 0 1.0 0.0 1 78 138 65535 65535
+ 6.769312 0 1 sctp 1500 -------D 0 0.0 1.0 1 89 146 3 17
- 6.769312 0 1 sctp 1500 -------D 0 0.0 1.0 1 89 146 3 17
+ 6.769312 0 1 sctp 1500 -------D 0 0.0 1.0 1 90 147 4 17
r 6.792544 0 1 sctp 1500 -------D 0 0.0 1.0 1 85 139 4 16
- 6.793312 0 1 sctp 1500 -------D 0 0.0 1.0 1 90 147 4 17
r 6.816544 0 1 sctp 1500 -------D 0 0.0 1.0 1 86 140 0 17
+ 6.816544 1 0 sctp 48 -------S 0 1.0 0.0 1 86 148 65535 65535
- 6.816544 1 0 sctp 48 -------S 0 1.0 0.0 1 86 148 65535 65535
r 6.817312 1 0 sctp 48 -------S 0 1.0 0.0 1 80 141 65535 65535
+ 6.817312 0 1 sctp 1500 -------D 0 0.0 1.0 1 91 149 0 18
+ 6.817312 0 1 sctp 1500 -------D 0 0.0 1.0 1 92 150 1 18
- 6.817312 0 1 sctp 1500 -------D 0 0.0 1.0 1 91 149 0 18
- 6.841312 0 1 sctp 1500 -------D 0 0.0 1.0 1 92 150 1 18
r 6.865248 0 1 sctp 1500 -------D 0 0.0 1.0 1 87 142 1 17
r 6.865312 1 0 sctp 48 -------S 0 1.0 0.0 1 82 144 65535 65535
+ 6.865312 0 1 sctp 1500 -------D 0 0.0 1.0 1 93 151 2 18
+ 6.865312 0 1 sctp 1500 -------D 0 0.0 1.0 1 94 152 3 18
+ 6.865312 0 1 sctp 1500 -------D 0 0.0 1.0 1 95 153 4 18
- 6.865312 0 1 sctp 1500 -------D 0 0.0 1.0 1 93 151 2 18
r 6.889248 0 1 sctp 1500 -------D 0 0.0 1.0 1 88 143 2 17
+ 6.889248 1 0 sctp 48 -------S 0 1.0 0.0 1 88 154 65535 65535
- 6.889248 1 0 sctp 48 -------S 0 1.0 0.0 1 88 154 65535 65535
- 6.889312 0 1 sctp 1500 -------D 0 0.0 1.0 1 94 152 3 18
r 6.913312 1 0 sctp 48 -------S 0 1.0 0.0 1 84 145 65535 65535
+ 6.913312 0 1 sctp 1500 -------D 0 0.0 1.0 1 96 155 0 19
+ 6.913312 0 1 sctp 1500 -------D 0 0.0 1.0 1 97 156 1 19
- 6.913312 0 1 sctp 1500 -------D 0 0.0 1.0 1 95 153 4 18
- 6.937312 0 1 sctp 1500 -------D 0 0.0 1.0 1 96 155 0 19
- 6.961312 0 1 sctp 1500 -------D 0 0.0 1.0 1 97 156 1 19
r 6.993312 0 1 sctp 1500 -------D 0 0.0 1.0 1 89 146 3 17
r 7.017312 0 1 sctp 1500 -------D 0 0.0 1.0 1 90 147 4 17
+ 7.017312 1 0 sctp 48 -------S 0 1.0 0.0 1 90 157 65535 65535
- 7.017312 1 0 sctp 48 -------S 0 1.0 0.0 1 90 157 65535 65535
r 7.017312 1 0 sctp 48 -------S 0 1.0 0.0 1 86 148 65535 65535
+ 7.017312 0 1 sctp 1500 -------D 0 0.0 1.0 1 98 158 2 19
- 7.017312 0 1 sctp 1500 -------D 0 0.0 1.0 1 98 158 2 19
+ 7.017312 0 1 sctp 1500 -------D 0 0.0 1.0 1 99 159 3 19
r 7.041312 0 1 sctp 1500 -------D 0 0.0 1.0 1 91 149 0 18
- 7.041312 0 1 sctp 1500 -------D 0 0.0 1.0 1 99 159 3 19
r 7.065312 0 1 sctp 1500 -------D 0 0.0 1.0 1 92 150 1 18
+ 7.065312 1 0 sctp 48 -------S 0 1.0 0.0 1 92 160 65535 65535
- 7.065312 1 0 sctp 48 -------S 0 1.0 0.0 1 92 160 65535 65535
r 7.089312 0 1 sctp 1500 -------D 0 0.0 1.0 1 93 151 2 18
r 7.090016 1 0 sctp 48 -------S 0 1.0 0.0 1 88 154 65535 65535
+ 7.090016 0 1 sctp 1500 -------D 0 0.0 1.0 1 100 161 4 19
- 7.090016 0 1 sctp 1500 -------D 0 0.0 1.0 1 100 161 4 19
+ 7.090016 0 1 sctp 1500 -------D 0 0.0 1.0 1 101 162 0 20
r 7.113312 0 1 sctp 1500 -------D 0 0.0 1.0 1 94 152 3 18
+ 7.113312 1 0 sctp 48 -------S 0 1.0 0.0 1 94 163 65535 65535
- 7.113312 1 0 sctp 48 -------S 0 1.0 0.0 1 94 163 65535 65535
- 7.114016 0 1 sctp 1500 -------D 0 0.0 1.0 1 101 162 0 20
r 7.137312 0 1 sctp 1500 -------D 0 0.0 1.0 1 95 153 4 18
r 7.161312 0 1 sctp 1500 -------D 0 0.0 1.0 1 96 155 0 19
+ 7.161312 1 0 sctp 48 -------S 0 1.0 0.0 1 96 164 65535 65535
- 7.161312 1 0 sctp 48 -------S 0 1.0 0.0 1 96 164 65535 65535
r 7.185312 0 1 sctp 1500 -------D 0 0.0 1.0 1 97 156 1 19
r 7.21808 1 0 sctp 48 -------S 0 1.0 0.0 1 90 157 65535 65535
+ 7.21808 0 1 sctp 1500 -------D 0 0.0 1.0 1 102 165 1 20
- 7.21808 0 1 sctp 1500 -------D 0 0.0 1.0 1 102 165 1 20
+ 7.21808 0 1 sctp 1500 -------D 0 0.0 1.0 1 103 166 2 20
r 7.241312 0 1 sctp 1500 -------D 0 0.0 1.0 1 98 158 2 19
+ 7.241312 1 0 sctp 48 -------S 0 1.0 0.0 1 98 167 65535 65535
- 7.241312 1 0 sctp 48 -------S 0 1.0 0.0 1 98 167 65535 65535
- 7.24208 0 1 sctp 1500 -------D 0 0.0 1.0 1 103 166 2 20
r 7.265312 0 1 sctp 1500 -------D 0 0.0 1.0 1 99 159 3 19
r 7.26608 1 0 sctp 48 -------S 0 1.0 0.0 1 92 160 65535 65535
+ 7.26608 0 1 sctp 1500 -------D 0 0.0 1.0 1 104 168 3 20
+ 7.26608 0 1 sctp 1500 -------D 0 0.0 1.0 1 105 169 4 20
- 7.26608 0 1 sctp 1500 -------D 0 0.0 1.0 1 104 168 3 20
- 7.29008 0 1 sctp 1500 -------D 0 0.0 1.0 1 105 169 4 20
r 7.314016 0 1 sctp 1500 -------D 0 0.0 1.0 1 100 161 4 19
+ 7.314016 1 0 sctp 48 -------S 0 1.0 0.0 1 100 170 65535 65535
- 7.314016 1 0 sctp 48 -------S 0 1.0 0.0 1 100 170 65535 65535
r 7.31408 1 0 sctp 48 -------S 0 1.0 0.0 1 94 163 65535 65535
+ 7.31408 0 1 sctp 1500 -------D 0 0.0 1.0 1 106 171 0 21
+ 7.31408 0 1 sctp 1500 -------D 0 0.0 1.0 1 107 172 1 21
+ 7.31408 0 1 sctp 1500 -------D 0 0.0 1.0 1 108 173 2 21
- 7.31408 0 1 sctp 1500 -------D 0 0.0 1.0 1 106 171 0 21
r 7.338016 0 1 sctp 1500 -------D 0 0.0 1.0 1 101 162 0 20
- 7.33808 0 1 sctp 1500 -------D 0 0.0 1.0 1 107 172 1 21
r 7.36208 1 0 sctp 48 -------S 0 1.0 0.0 1 96 164 65535 65535
+ 7.36208 0 1 sctp 1500 -------D 0 0.0 1.0 1 109 174 3 21
+ 7.36208 0 1 sctp 1500 -------D 0 0.0 1.0 1 110 175 4 21
- 7.36208 0 1 sctp 1500 -------D 0 0.0 1.0 1 108 173 2 21
- 7.38608 0 1 sctp 1500 -------D 0 0.0 1.0 1 109 174 3 21
- 7.41008 0 1 sctp 1500 -------D 0 0.0 1.0 1 110 175 4 21
r 7.44208 0 1 sctp 1500 -------D 0 0.0 1.0 1 102 165 1 20
+ 7.44208 1 0 sctp 48 -------S 0 1.0 0.0 1 102 176 65535 65535