+ 0.5 0 1 sctp 56 -------I 0 0.0 1.0 1 -1 2 65535 65535
- 0.5 0 1 sctp 56 -------I 0 0.0 1.0 1 -1 2 65535 65535
r 0.800896 0 1 sctp 56 -------I 0 0.0 1.0 1 -1 2 65535 65535
+ 0.800896 1 0 sctp 56 -------I 0 1.0 0.0 1 -1 3 65535 65535
- 0.800896 1 0 sctp 56 -------I 0 1.0 0.0 1 -1 3 65535 65535
r 1.101792 1 0 sctp 56 -------I 0 1.0 0.0 1 -1 3 65535 65535
+ 1.101792 0 1 sctp 36 -------I 0 0.0 1.0 1 -1 4 65535 65535
- 1.101792 0 1 sctp 36 -------I 0 0.0 1.0 1 -1 4 65535 65535
r 1.402368 0 1 sctp 36 -------I 0 0.0 1.0 1 -1 4 65535 65535
+ 1.402368 1 0 sctp 36 -------I 0 1.0 0.0 1 -1 5 65535 65535
- 1.402368 1 0 sctp 36 -------I 0 1.0 0.0 1 -1 5 65535 65535
r 1.702944 1 0 sctp 36 -------I 0 1.0 0.0 1 -1 5 65535 65535
+ 1.702944 0 1 sctp 56 -------H 0 0.0 1.0 1 -1 6 65535 65535
- 1.702944 0 1 sctp 56 -------H 0 0.0 1.0 1 -1 6 65535 65535
r 2.00384 0 1 sctp 56 -------H 0 0.0 1.0 1 -1 6 65535 65535
+ 2.00384 1 0 sctp 56 -------B 0 1.0 0.0 1 -1 7 65535 65535
- 2.00384 1 0 sctp 56 -------B 0 1.0 0.0 1 -1 7 65535 65535
r 2.304736 1 0 sctp 56 -------B 0 1.0 0.0 1 -1 7 65535 65535
+ 2.304736 0 1 sctp 1500 -------D 0 0.0 1.0 1 1 8 0 0
- 2.304736 0 1 sctp 1500 -------D 0 0.0 1.0 1 1 8 0 0
+ 2.304736 0 1 sctp 1500 -------D 0 0.0 1.0 1 2 9 0 1
d 2.304736 0 1 sctp 1500 -------D 0 0.0 1.0 1 3 10 0 2
- 2.328736 0 1 sctp 1500 -------D 0 0.0 1.0 1 2 9 0 1
r 2.628736 0 1 sctp 1500 -------D 0 0.0 1.0 1 1 8 0 0
+ 2.628736 1 0 sctp 48 -------S 0 1.0 0.0 1 1 11 65535 65535
- 2.628736 1 0 sctp 48 -------S 0 1.0 0.0 1 1 11 65535 65535
r 2.652736 0 1 sctp 1500 -------D 0 0.0 1.0 1 2 9 0 1
+ 2.652736 1 0 sctp 48 -------S 0 1.0 0.0 1 2 12 65535 65535
- 2.652736 1 0 sctp 48 -------S 0 1.0 0.0 1 2 12 65535 65535
r 2.929504 1 0 sctp 48 -------S 0 1.0 0.0 1 1 11 65535 65535
+ 2.929504 0 1 sctp 1500 -------D 0 0.0 1.0 1 4 13 0 3
- 2.929504 0 1 sctp 1500 -------D 0 0.0 1.0 1 4 13 0 3
+ 2.929504 0 1 sctp 1500 -------D 0 0.0 1.0 1 5 14 0 4
r 2.953504 1 0 sctp 48 -------S 0 1.0 0.0 1 2 12 65535 65535
+ 2.953504 0 1 sctp 1500 -------D 0 0.0 1.0 1 6 15 0 5
+ 2.953504 0 1 sctp 1500 -------D 0 0.0 1.0 1 7 16 0 6
- 2.953504 0 1 sctp 1500 -------D 0 0.0 1.0 1 5 14 0 4
- 2.977504 0 1 sctp 1500 -------D 0 0.0 1.0 1 6 15 0 5
- 3.001504 0 1 sctp 1500 -------D 0 0.0 1.0 1 7 16 0 6
r 3.253504 0 1 sctp 1500 -------D 0 0.0 1.0 1 4 13 0 3
+ 3.253504 1 0 sctp 52 -------S 0 1.0 0.0 1 2 17 65535 65535
- 3.253504 1 0 sctp 52 -------S 0 1.0 0.0 1 2 17 65535 65535
r 3.277504 0 1 sctp 1500 -------D 0 0.0 1.0 1 5 14 0 4
+ 3.277504 1 0 sctp 52 -------S 0 1.0 0.0 1 2 18 65535 65535
- 3.277504 1 0 sctp 52 -------S 0 1.0 0.0 1 2 18 65535 65535
r 3.301504 0 1 sctp 1500 -------D 0 0.0 1.0 1 6 15 0 5
+ 3.301504 1 0 sctp 52 -------S 0 1.0 0.0 1 2 19 65535 65535
- 3.301504 1 0 sctp 52 -------S 0 1.0 0.0 1 2 19 65535 65535
r 3.325504 0 1 sctp 1500 -------D 0 0.0 1.0 1 7 16 0 6
+ 3.325504 1 0 sctp 52 -------S 0 1.0 0.0 1 2 20 65535 65535
- 3.325504 1 0 sctp 52 -------S 0 1.0 0.0 1 2 20 65535 65535
r 3.554336 1 0 sctp 52 -------S 0 1.0 0.0 1 2 17 65535 65535
+ 3.554336 0 1 sctp 1500 -------D 0 0.0 1.0 1 8 21 0 7
- 3.554336 0 1 sctp 1500 -------D 0 0.0 1.0 1 8 21 0 7
r 3.578336 1 0 sctp 52 -------S 0 1.0 0.0 1 2 18 65535 65535
+ 3.578336 0 1 sctp 1500 -------D 0 0.0 1.0 1 9 22 0 8
- 3.578336 0 1 sctp 1500 -------D 0 0.0 1.0 1 9 22 0 8
r 3.602336 1 0 sctp 52 -------S 0 1.0 0.0 1 2 19 65535 65535
d 3.602336 0 1 sctp 1500 -------D 0 0.0 1.0 1 3 23 0 2
r 3.626336 1 0 sctp 52 -------S 0 1.0 0.0 1 2 20 65535 65535
+ 3.626336 0 1 sctp 1500 -------D 0 0.0 1.0 1 10 24 0 9
- 3.626336 0 1 sctp 1500 -------D 0 0.0 1.0 1 10 24 0 9
r 3.878336 0 1 sctp 1500 -------D 0 0.0 1.0 1 8 21 0 7
+ 3.878336 1 0 sctp 52 -------S 0 1.0 0.0 1 2 25 65535 65535
- 3.878336 1 0 sctp 52 -------S 0 1.0 0.0 1 2 25 65535 65535
r 3.902336 0 1 sctp 1500 -------D 0 0.0 1.0 1 9 22 0 8
+ 3.902336 1 0 sctp 52 -------S 0 1.0 0.0 1 2 26 65535 65535
- 3.902336 1 0 sctp 52 -------S 0 1.0 0.0 1 2 26 65535 65535
r 3.950336 0 1 sctp 1500 -------D 0 0.0 1.0 1 10 24 0 9
+ 3.950336 1 0 sctp 52 -------S 0 1.0 0.0 1 2 27 65535 65535
- 3.950336 1 0 sctp 52 -------S 0 1.0 0.0 1 2 27 65535 65535
r 4.179168 1 0 sctp 52 -------S 0 1.0 0.0 1 2 25 65535 65535
+ 4.179168 0 1 sctp 1500 -------D 0 0.0 1.0 1 11 28 0 10
- 4.179168 0 1 sctp 1500 -------D 0 0.0 1.0 1 11 28 0 10
r 4.203168 1 0 sctp 52 -------S 0 1.0 0.0 1 2 26 65535 65535
+ 4.203168 0 1 sctp 1500 -------D 0 0.0 1.0 1 12 29 0 11
- 4.203168 0 1 sctp 1500 -------D 0 0.0 1.0 1 12 29 0 11
r 4.251168 1 0 sctp 52 -------S 0 1.0 0.0 1 2 27 65535 65535
+ 4.251168 0 1 sctp 1500 -------D 0 0.0 1.0 1 13 30 0 12
- 4.251168 0 1 sctp 1500 -------D 0 0.0 1.0 1 13 30 0 12
r 4.503168 0 1 sctp 1500 -------D 0 0.0 1.0 1 11 28 0 10
+ 4.503168 1 0 sctp 52 -------S 0 1.0 0.0 1 2 31 65535 65535
- 4.503168 1 0 sctp 52 -------S 0 1.0 0.0 1 2 31 65535 65535
r 4.527168 0 1 sctp 1500 -------D 0 0.0 1.0 1 12 29 0 11
+ 4.527168 1 0 sctp 52 -------S 0 1.0 0.0 1 2 32 65535 65535
- 4.527168 1 0 sctp 52 -------S 0 1.0 0.0 1 2 32 65535 65535
r 4.575168 0 1 sctp 1500 -------D 0 0.0 1.0 1 13 30 0 12
+ 4.575168 1 0 sctp 52 -------S 0 1.0 0.0 1 2 33 65535 65535
- 4.575168 1 0 sctp 52 -------S 0 1.0 0.0 1 2 33 65535 65535
r 4.804 1 0 sctp 52 -------S 0 1.0 0.0 1 2 31 65535 65535
+ 4.804 0 1 sctp 1500 -------D 0 0.0 1.0 1 14 34 0 13
- 4.804 0 1 sctp 1500 -------D 0 0.0 1.0 1 14 34 0 13
r 4.828 1 0 sctp 52 -------S 0 1.0 0.0 1 2 32 65535 65535
+ 4.828 0 1 sctp 1500 -------D 0 0.0 1.0 1 15 35 0 14
- 4.828 0 1 sctp 1500 -------D 0 0.0 1.0 1 15 35 0 14
r 4.876 1 0 sctp 52 -------S 0 1.0 0.0 1 2 33 65535 65535
+ 4.876 0 1 sctp 1500 -------D 0 0.0 1.0 1 16 36 0 15
- 4.876 0 1 sctp 1500 -------D 0 0.0 1.0 1 16 36 0 15
+ 4.923937 0 1 sctp 1500 -------D 0 0.0 1.0 1 3 37 0 2
- 4.923937 0 1 sctp 1500 -------D 0 0.0 1.0 1 3 37 0 2
r 5.128 0 1 sctp 1500 -------D 0 0.0 1.0 1 14 34 0 13
+ 5.128 1 0 sctp 52 -------S 0 1.0 0.0 1 2 38 65535 65535
- 5.128 1 0 sctp 52 -------S 0 1.0 0.0 1 2 38 65535 65535
r 5.152 0 1 sctp 1500 -------D 0 0.0 1.0 1 15 35 0 14
+ 5.152 1 0 sctp 52 -------S 0 1.0 0.0 1 2 39 65535 65535
- 5.152 1 0 sctp 52 -------S 0 1.0 0.0 1 2 39 65535 65535
r 5.2 0 1 sctp 1500 -------D 0 0.0 1.0 1 16 36 0 15
+ 5.2 1 0 sctp 52 -------S 0 1.0 0.0 1 2 40 65535 65535
- 5.2 1 0 sctp 52 -------S 0 1.0 0.0 1 2 40 65535 65535
r 5.247937 0 1 sctp 1500 -------D 0 0.0 1.0 1 3 37 0 2
+ 5.247937 1 0 sctp 48 -------S 0 1.0 0.0 1 16 41 65535 65535
- 5.247937 1 0 sctp 48 -------S 0 1.0 0.0 1 16 41 65535 65535
r 5.428832 1 0 sctp 52 -------S 0 1.0 0.0 1 2 38 65535 65535
r 5.452832 1 0 sctp 52 -------S 0 1.0 0.0 1 2 39 65535 65535
r 5.500832 1 0 sctp 52 -------S 0 1.0 0.0 1 2 40 65535 65535
r 5.548705 1 0 sctp 48 -------S 0 1.0 0.0 1 16 41 65535 65535
+ 5.548705 0 1 sctp 1500 -------D 0 0.0 1.0 1 17 42 0 16
- 5.548705 0 1 sctp 1500 -------D 0 0.0 1.0 1 17 42 0 16
+ 5.548705 0 1 sctp 1500 -------D 0 0.0 1.0 1 18 43 0 17
- 5.572705 0 1 sctp 1500 -------D 0 0.0 1.0 1 18 43 0 17
r 5.872705 0 1 sctp 1500 -------D 0 0.0 1.0 1 17 42 0 16
+ 5.872705 1 0 sctp 48 -------S 0 1.0 0.0 1 17 44 65535 65535
- 5.872705 1 0 sctp 48 -------S 0 1.0 0.0 1 17 44 65535 65535
r 5.896705 0 1 sctp 1500 -------D 0 0.0 1.0 1 18 43 0 17
+ 5.896705 1 0 sctp 48 -------S 0 1.0 0.0 1 18 45 65535 65535
- 5.896705 1 0 sctp 48 -------S 0 1.0 0.0 1 18 45 65535 65535
r 6.173473 1 0 sctp 48 -------S 0 1.0 0.0 1 17 44 65535 65535
+ 6.173473 0 1 sctp 1500 -------D 0 0.0 1.0 1 19 46 0 18
- 6.173473 0 1 sctp 1500 -------D 0 0.0 1.0 1 19 46 0 18
+ 6.173473 0 1 sctp 1500 -------D 0 0.0 1.0 1 20 47 0 19
r 6.197473 1 0 sctp 48 -------S 0 1.0 0.0 1 18 45 65535 65535
+ 6.197473 0 1 sctp 1500 -------D 0 0.0 1.0 1 21 48 0 20
+ 6.197473 0 1 sctp 1500 -------D 0 0.0 1.0 1 22 49 0 21
- 6.197473 0 1 sctp 1500 -------D 0 0.0 1.0 1 20 47 0 19
- 6.221473 0 1 sctp 1500 -------D 0 0.0 1.0 1 21 48 0 20
- 6.245473 0 1 sctp 1500 -------D 0 0.0 1.0 1 22 49 0 21
r 6.497473 0 1 sctp 1500 -------D 0 0.0 1.0 1 19 46 0 18
+ 6.497473 1 0 sctp 48 -------S 0 1.0 0.0 1 19 50 65535 65535
- 6.497473 1 0 sctp 48 -------S 0 1.0 0.0 1 19 50 65535 65535
r 6.521473 0 1 sctp 1500 -------D 0 0.0 1.0 1 20 47 0 19
+ 6.521473 1 0 sctp 48 -------S 0 1.0 0.0 1 20 51 65535 65535
- 6.521473 1 0 sctp 48 -------S 0 1.0 0.0 1 20 51 65535 65535
r 6.545473 0 1 sctp 1500 -------D 0 0.0 1.0 1 21 48 0 20
+ 6.545473 1 0 sctp 48 -------S 0 1.0 0.0 1 21 52 65535 65535
- 6.545473 1 0 sctp 48 -------S 0 1.0 0.0 1 21 52 65535 65535
r 6.569473 0 1 sctp 1500 -------D 0 0.0 1.0 1 22 49 0 21
+ 6.569473 1 0 sctp 48 -------S 0 1.0 0.0 1 22 53 65535 65535
- 6.569473 1 0 sctp 48 -------S 0 1.0 0.0 1 22 53 65535 65535
r 6.798241 1 0 sctp 48 -------S 0 1.0 0.0 1 19 50 65535 65535
+ 6.798241 0 1 sctp 1500 -------D 0 0.0 1.0 1 23 54 0 22
- 6.798241 0 1 sctp 1500 -------D 0 0.0 1.0 1 23 54 0 22
+ 6.798241 0 1 sctp 1500 -------D 0 0.0 1.0 1 24 55 0 23
r 6.822241 1 0 sctp 48 -------S 0 1.0 0.0 1 20 51 65535 65535
+ 6.822241 0 1 sctp 1500 -------D 0 0.0 1.0 1 25 56 0 24
- 6.822241 0 1 sctp 1500 -------D 0 0.0 1.0 1 24 55 0 23
r 6.846241 1 0 sctp 48 -------S 0 1.0 0.0 1 21 52 65535 65535
+ 6.846241 0 1 sctp 1500 -------D 0 0.0 1.0 1 26 57 0 25
- 6.846241 0 1 sctp 1500 -------D 0 0.0 1.0 1 25 56 0 24
r 6.870241 1 0 sctp 48 -------S 0 1.0 0.0 1 22 53 65535 65535
+ 6.870241 0 1 sctp 1500 -------D 0 0.0 1.0 1 27 58 0 26
- 6.870241 0 1 sctp 1500 -------D 0 0.0 1.0 1 26 57 0 25
- 6.894241 0 1 sctp 1500 -------D 0 0.0 1.0 1 27 58 0 26
r 7.122241 0 1 sctp 1500 -------D 0 0.0 1.0 1 23 54 0 22
+ 7.122241 1 0 sctp 48 -------S 0 1.0 0.0 1 23 59 65535 65535
- 7.122241 1 0 sctp 48 -------S 0 1.0 0.0 1 23 59 65535 65535
r 7.146241 0 1 sctp 1500 -------D 0 0.0 1.0 1 24 55 0 23
+ 7.146241 1 0 sctp 48 -------S 0 1.0 0.0 1 24 60 65535 65535
- 7.146241 1 0 sctp 48 -------S 0 1.0 0.0 1 24 60 65535 65535
r 7.170241 0 1 sctp 1500 -------D 0 0.0 1.0 1 25 56 0 24
+ 7.170241 1 0 sctp 48 -------S 0 1.0 0.0 1 25 61 65535 65535
- 7.170241 1 0 sctp 48 -------S 0 1.0 0.0 1 25 61 65535 65535
r 7.194241 0 1 sctp 1500 -------D 0 0.0 1.0 1 26 57 0 25
+ 7.194241 1 0 sctp 48 -------S 0 1.0 0.0 1 26 62 65535 65535
- 7.194241 1 0 sctp 48 -------S 0 1.0 0.0 1 26 62 65535 65535
r 7.218241 0 1 sctp 1500 -------D 0 0.0 1.0 1 27 58 0 26
+ 7.218241 1 0 sctp 48 -------S 0 1.0 0.0 1 27 63 65535 65535
- 7.218241 1 0 sctp 48 -------S 0 1.0 0.0 1 27 63 65535 65535
r 7.423009 1 0 sctp 48 -------S 0 1.0 0.0 1 23 59 65535 65535
+ 7.423009 0 1 sctp 1500 -------D 0 0.0 1.0 1 28 64 0 27
- 7.423009 0 1 sctp 1500 -------D 0 0.0 1.0 1 28 64 0 27
r 7.447009 1 0 sctp 48 -------S 0 1.0 0.0 1 24 60 65535 65535
+ 7.447009 0 1 sctp 1500 -------D 0 0.0 1.0 1 29 65 0 28
+ 7.447009 0 1 sctp 1500 -------D 0 0.0 1.0 1 30 66 0 29
- 7.447009 0 1 sctp 1500 -------D 0 0.0 1.0 1 29 65 0 28
r 7.471009 1 0 sctp 48 -------S 0 1.0 0.0 1 25 61 65535 65535
+ 7.471009 0 1 sctp 1500 -------D 0 0.0 1.0 1 31 67 0 30
- 7.471009 0 1 sctp 1500 -------D 0 0.0 1.0 1 30 66 0 29
r 7.495009 1 0 sctp 48 -------S 0 1.0 0.0 1 26 62 65535 65535
+ 7.495009 0 1 sctp 1500 -------D 0 0.0 1.0 1 32 68 0 31
- 7.495009 0 1 sctp 1500 -------D 0 0.0 1.0 1 31 67 0 30
r 7.519009 1 0 sctp 48 -------S 0 1.0 0.0 1 27 63 65535 65535
+ 7.519009 0 1 sctp 1500 -------D 0 0.0 1.0 1 33 69 0 32
- 7.519009 0 1 sctp 1500 -------D 0 0.0 1.0 1 32 68 0 31
- 7.543009 0 1 sctp 1500 -------D 0 0.0 1.0 1 33 69 0 32
r 7.747009 0 1 sctp 1500 -------D 0 0.0 1.0 1 28 64 0 27
+ 7.747009 1 0 sctp 48 -------S 0 1.0 0.0 1 28 70 65535 65535
- 7.747009 1 0 sctp 48 -------S 0 1.0 0.0 1 28 70 65535 65535
r 7.771009 0 1 sctp 1500 -------D 0 0.0 1.0 1 29 65 0 28
+ 7.771009 1 0 sctp 48 -------S 0 1.0 0.0 1 29 71 65535 65535
- 7.771009 1 0 sctp 48 -------S 0 1.0 0.0 1 29 71 65535 65535
r 7.795009 0 1 sctp 1500 -------D 0 0.0 1.0 1 30 66 0 29
+ 7.795009 1 0 sctp 48 -------S 0 1.0 0.0 1 30 72 65535 65535
- 7.795009 1 0 sctp 48 -------S 0 1.0 0.0 1 30 72 65535 65535
r 7.819009 0 1 sctp 1500 -------D 0 0.0 1.0 1 31 67 0 30
+ 7.819009 1 0 sctp 48 -------S 0 1.0 0.0 1 31 73 65535 65535
- 7.819009 1 0 sctp 48 -------S 0 1.0 0.0 1 31 73 65535 65535
r 7.843009 0 1 sctp 1500 -------D 0 0.0 1.0 1 32 68 0 31
+ 7.843009 1 0 sctp 48 -------S 0 1.0 0.0 1 32 74 65535 65535
- 7.843009 1 0 sctp 48 -------S 0 1.0 0.0 1 32 74 65535 65535
r 7.867009 0 1 sctp 1500 -------D 0 0.0 1.0 1 33 69 0 32
+ 7.867009 1 0 sctp 48 -------S 0 1.0 0.0 1 33 75 65535 65535
- 7.867009 1 0 sctp 48 -------S 0 1.0 0.0 1 33 75 65535 65535
r 8.047777 1 0 sctp 48 -------S 0 1.0 0.0 1 28 70 65535 65535
+ 8.047777 0 1 sctp 1500 -------D 0 0.0 1.0 1 34 76 0 33
- 8.047777 0 1 sctp 1500 -------D 0 0.0 1.0 1 34 76 0 33
r 8.071777 1 0 sctp 48 -------S 0 1.0 0.0 1 29 71 65535 65535
+ 8.071777 0 1 sctp 1500 -------D 0 0.0 1.0 1 35 77 0 34
- 8.071777 0 1 sctp 1500 -------D 0 0.0 1.0 1 35 77 0 34
r 8.095777 1 0 sctp 48 -------S 0 1.0 0.0 1 30 72 65535 65535
+ 8.095777 0 1 sctp 1500 -------D 0 0.0 1.0 1 36 78 0 35
+ 8.095777 0 1 sctp 1500 -------D 0 0.0 1.0 1 37 79 0 36
- 8.095777 0 1 sctp 1500 -------D 0 0.0 1.0 1 36 78 0 35
- 8.119777 0 1 sctp 1500 -------D 0 0.0 1.0 1 37 79 0 36
r 8.119777 1 0 sctp 48 -------S 0 1.0 0.0 1 31 73 65535 65535
+ 8.119777 0 1 sctp 1500 -------D 0 0.0 1.0 1 38 80 0 37
- 8.143777 0 1 sctp 1500 -------D 0 0.0 1.0 1 38 80 0 37
r 8.143777 1 0 sctp 48 -------S 0 1.0 0.0 1 32 74 65535 65535
+ 8.143777 0 1 sctp 1500 -------D 0 0.0 1.0 1 39 81 0 38
- 8.167777 0 1 sctp 1500 -------D 0 0.0 1.0 1 39 81 0 38
r 8.167777 1 0 sctp 48 -------S 0 1.0 0.0 1 33 75 65535 65535
+ 8.167777 0 1 sctp 1500 -------D 0 0.0 1.0 1 40 82 0 39
- 8.191777 0 1 sctp 1500 -------D 0 0.0 1.0 1 40 82 0 39
r 8.371777 0 1 sctp 1500 -------D 0 0.0 1.0 1 34 76 0 33
+ 8.371777 1 0 sctp 48 -------S 0 1.0 0.0 1 34 83 65535 65535
- 8.371777 1 0 sctp 48 -------S 0 1.0 0.0 1 34 83 65535 65535
r 8.395777 0 1 sctp 1500 -------D 0 0.0 1.0 1 35 77 0 34
+ 8.395777 1 0 sctp 48 -------S 0 1.0 0.0 1 35 84 65535 65535
- 8.395777 1 0 sctp 48 -------S 0 1.0 0.0 1 35 84 65535 65535
r 8.419777 0 1 sctp 1500 -------D 0 0.0 1.0 1 36 78 0 35
+ 8.419777 1 0 sctp 48 -------S 0 1.0 0.0 1 36 85 65535 65535
- 8.419777 1 0 sctp 48 -------S 0 1.0 0.0 1 36 85 65535 65535
r 8.443777 0 1 sctp 1500 -------D 0 0.0 1.0 1 37 79 0 36
+ 8.443777 1 0 sctp 48 -------S 0 1.0 0.0 1 37 86 65535 65535
- 8.443777 1 0 sctp 48 -------S 0 1.0 0.0 1 37 86 65535 65535
r 8.467777 0 1 sctp 1500 -------D 0 0.0 1.0 1 38 80 0 37
+ 8.467777 1 0 sctp 48 -------S 0 1.0 0.0 1 38 87 65535 65535
- 8.467777 1 0 sctp 48 -------S 0 1.0 0.0 1 38 87 65535 65535
r 8.491777 0 1 sctp 1500 -------D 0 0.0 1.0 1 39 81 0 38
+ 8.491777 1 0 sctp 48 -------S 0 1.0 0.0 1 39 88 65535 65535
- 8.491777 1 0 sctp 48 -------S 0 1.0 0.0 1 39 88 65535 65535
r 8.515777 0 1 sctp 1500 -------D 0 0.0 1.0 1 40 82 0 39
+ 8.515777 1 0 sctp 48 -------S 0 1.0 0.0 1 40 89 65535 65535
- 8.515777 1 0 sctp 48 -------S 0 1.0 0.0 1 40 89 65535 65535
r 8.672545 1 0 sctp 48 -------S 0 1.0 0.0 1 34 83 65535 65535
+ 8.672545 0 1 sctp 1500 -------D 0 0.0 1.0 1 41 90 0 40
- 8.672545 0 1 sctp 1500 -------D 0 0.0 1.0 1 41 90 0 40
r 8.696545 1 0 sctp 48 -------S 0 1.0 0.0 1 35 84 65535 65535
+ 8.696545 0 1 sctp 1500 -------D 0 0.0 1.0 1 42 91 0 41
- 8.696545 0 1 sctp 1500 -------D 0 0.0 1.0 1 42 91 0 41
r 8.720545 1 0 sctp 48 -------S 0 1.0 0.0 1 36 85 65535 65535
+ 8.720545 0 1 sctp 1500 -------D 0 0.0 1.0 1 43 92 0 42
- 8.720545 0 1 sctp 1500 -------D 0 0.0 1.0 1 43 92 0 42
r 8.744545 1 0 sctp 48 -------S 0 1.0 0.0 1 37 86 65535 65535
+ 8.744545 0 1 sctp 1500 -------D 0 0.0 1.0 1 44 93 0 43
+ 8.744545 0 1 sctp 1500 -------D 0 0.0 1.0 1 45 94 0 44
- 8.744545 0 1 sctp 1500 -------D 0 0.0 1.0 1 44 93 0 43
r 8.768545 1 0 sctp 48 -------S 0 1.0 0.0 1 38 87 65535 65535
+ 8.768545 0 1 sctp 1500 -------D 0 0.0 1.0 1 46 95 0 45
- 8.768545 0 1 sctp 1500 -------D 0 0.0 1.0 1 45 94 0 44
r 8.792545 1 0 sctp 48 -------S 0 1.0 0.0 1 39 88 65535 65535
+ 8.792545 0 1 sctp 1500 -------D 0 0.0 1.0 1 47 96 0 46
- 8.792545 0 1 sctp 1500 -------D 0 0.0 1.0 1 46 95 0 45
r 8.816545 1 0 sctp 48 -------S 0 1.0 0.0 1 40 89 65535 65535
+ 8.816545 0 1 sctp 1500 -------D 0 0.0 1.0 1 48 97 0 47
- 8.816545 0 1 sctp 1500 -------D 0 0.0 1.0 1 47 96 0 46
- 8.840545 0 1 sctp 1500 -------D 0 0.0 1.0 1 48 97 0 47
r 8.996545 0 1 sctp 1500 -------D 0 0.0 1.0 1 41 90 0 40
+ 8.996545 1 0 sctp 48 -------S 0 1.0 0.0 1 41 98 65535 65535
- 8.996545 1 0 sctp 48 -------S 0 1.0 0.0 1 41 98 65535 65535
r 9.020545 0 1 sctp 1500 -------D 0 0.0 1.0 1 42 91 0 41
+ 9.020545 1 0 sctp 48 -------S 0 1.0 0.0 1 42 99 65535 65535
- 9.020545 1 0 sctp 48 -------S 0 1.0 0.0 1 42 99 65535 65535
r 9.044545 0 1 sctp 1500 -------D 0 0.0 1.0 1 43 92 0 42
+ 9.044545 1 0 sctp 48 -------S 0 1.0 0.0 1 43 100 65535 65535
- 9.044545 1 0 sctp 48 -------S 0 1.0 0.0 1 43 100 65535 65535
r 9.068545 0 1 sctp 1500 -------D 0 0.0 1.0 1 44 93 0 43
+ 9.068545 1 0 sctp 48 -------S 0 1.0 0.0 1 44 101 65535 65535
- 9.068545 1 0 sctp 48 -------S 0 1.0 0.0 1 44 101 65535 65535
r 9.092545 0 1 sctp 1500 -------D 0 0.0 1.0 1 45 94 0 44
+ 9.092545 1 0 sctp 48 -------S 0 1.0 0.0 1 45 102 65535 65535
- 9.092545 1 0 sctp 48 -------S 0 1.0 0.0 1 45 102 65535 65535
r 9.116545 0 1 sctp 1500 -------D 0 0.0 1.0 1 46 95 0 45
+ 9.116545 1 0 sctp 48 -------S 0 1.0 0.0 1 46 103 65535 65535
- 9.116545 1 0 sctp 48 -------S 0 1.0 0.0 1 46 103 65535 65535
r 9.140545 0 1 sctp 1500 -------D 0 0.0 1.0 1 47 96 0 46
+ 9.140545 1 0 sctp 48 -------S 0 1.0 0.0 1 47 104 65535 65535
- 9.140545 1 0 sctp 48 -------S 0 1.0 0.0 1 47 104 65535 65535
r 9.164545 0 1 sctp 1500 -------D 0 0.0 1.0 1 48 97 0 47
+ 9.164545 1 0 sctp 48 -------S 0 1.0 0.0 1 48 105 65535 65535
- 9.164545 1 0 sctp 48 -------S 0 1.0 0.0 1 48 105 65535 65535
r 9.297313 1 0 sctp 48 -------S 0 1.0 0.0 1 41 98 65535 65535
+ 9.297313 0 1 sctp 1500 -------D 0 0.0 1.0 1 49 106 0 48
- 9.297313 0 1 sctp 1500 -------D 0 0.0 1.0 1 49 106 0 48
r 9.321313 1 0 sctp 48 -------S 0 1.0 0.0 1 42 99 65535 65535
+ 9.321313 0 1 sctp 1500 -------D 0 0.0 1.0 1 50 107 0 49
- 9.321313 0 1 sctp 1500 -------D 0 0.0 1.0 1 50 107 0 49
r 9.345313 1 0 sctp 48 -------S 0 1.0 0.0 1 43 100 65535 65535
+ 9.345313 0 1 sctp 1500 -------D 0 0.0 1.0 1 51 108 0 50
- 9.345313 0 1 sctp 1500 -------D 0 0.0 1.0 1 51 108 0 50
r 9.369313 1 0 sctp 48 -------S 0 1.0 0.0 1 44 101 65535 65535
+ 9.369313 0 1 sctp 1500 -------D 0 0.0 1.0 1 52 109 0 51
- 9.369313 0 1 sctp 1500 -------D 0 0.0 1.0 1 52 109 0 51
r 9.393313 1 0 sctp 48 -------S 0 1.0 0.0 1 45 102 65535 65535
+ 9.393313 0 1 sctp 1500 -------D 0 0.0 1.0 1 53 110 0 52
+ 9.393313 0 1 sctp 1500 -------D 0 0.0 1.0 1 54 111 0 53
- 9.393313 0 1 sctp 1500 -------D 0 0.0 1.0 1 53 110 0 52
r 9.417313 1 0 sctp 48 -------S 0 1.0 0.0 1 46 103 65535 65535
+ 9.417313 0 1 sctp 1500 -------D 0 0.0 1.0 1 55 112 0 54
- 9.417313 0 1 sctp 1500 -------D 0 0.0 1.0 1 54 111 0 53
r 9.441313 1 0 sctp 48 -------S 0 1.0 0.0 1 47 104 65535 65535
+ 9.441313 0 1 sctp 1500 -------D 0 0.0 1.0 1 56 113 0 55
- 9.441313 0 1 sctp 1500 -------D 0 0.0 1.0 1 55 112 0 54
r 9.465313 1 0 sctp 48 -------S 0 1.0 0.0 1 48 105 65535 65535
+ 9.465313 0 1 sctp 1500 -------D 0 0.0 1.0 1 57 114 0 56
- 9.465313 0 1 sctp 1500 -------D 0 0.0 1.0 1 56 113 0 55
- 9.489313 0 1 sctp 1500 -------D 0 0.0 1.0 1 57 114 0 56
r 9.621313 0 1 sctp 1500 -------D 0 0.0 1.0 1 49 106 0 48
+ 9.621313 1 0 sctp 48 -------S 0 1.0 0.0 1 49 115 65535 65535
- 9.621313 1 0 sctp 48 -------S 0 1.0 0.0 1 49 115 65535 65535
r 9.645313 0 1 sctp 1500 -------D 0 0.0 1.0 1 50 107 0 49
+ 9.645313 1 0 sctp 48 -------S 0 1.0 0.0 1 50 116 65535 65535
- 9.645313 1 0 sctp 48 -------S 0 1.0 0.0 1 50 116 65535 65535
r 9.669313 0 1 sctp 1500 -------D 0 0.0 1.0 1 51 108 0 50
+ 9.669313 1 0 sctp 48 -------S 0 1.0 0.0 1 51 117 65535 65535
- 9.669313 1 0 sctp 48 -------S 0 1.0 0.0 1 51 117 65535 65535
r 9.693313 0 1 sctp 1500 -------D 0 0.0 1.0 1 52 109 0 51
+ 9.693313 1 0 sctp 48 -------S 0 1.0 0.0 1 52 118 65535 65535
- 9.693313 1 0 sctp 48 -------S 0 1.0 0.0 1 52 118 65535 65535
r 9.717313 0 1 sctp 1500 -------D 0 0.0 1.0 1 53 110 0 52
+ 9.717313 1 0 sctp 48 -------S 0 1.0 0.0 1 53 119 65535 65535
- 9.717313 1 0 sctp 48 -------S 0 1.0 0.0 1 53 119 65535 65535
r 9.741313 0 1 sctp 1500 -------D 0 0.0 1.0 1 54 111 0 53
+ 9.741313 1 0 sctp 48 -------S 0 1.0 0.0 1 54 120 65535 65535
- 9.741313 1 0 sctp 48 -------S 0 1.0 0.0 1 54 120 65535 65535
r 9.765313 0 1 sctp 1500 -------D 0 0.0 1.0 1 55 112 0 54
+ 9.765313 1 0 sctp 48 -------S 0 1.0 0.0 1 55 121 65535 65535
- 9.765313 1 0 sctp 48 -------S 0 1.0 0.0 1 55 121 65535 65535
r 9.789313 0 1 sctp 1500 -------D 0 0.0 1.0 1 56 113 0 55
+ 9.789313 1 0 sctp 48 -------S 0 1.0 0.0 1 56 122 65535 65535
- 9.789313 1 0 sctp 48 -------S 0 1.0 0.0 1 56 122 65535 65535
r 9.813313 0 1 sctp 1500 -------D 0 0.0 1.0 1 57 114 0 56
+ 9.813313 1 0 sctp 48 -------S 0 1.0 0.0 1 57 123 65535 65535
- 9.813313 1 0 sctp 48 -------S 0 1.0 0.0 1 57 123 65535 65535
r 9.922081 1 0 sctp 48 -------S 0 1.0 0.0 1 49 115 65535 65535
+ 9.922081 0 1 sctp 1500 -------D 0 0.0 1.0 1 58 124 0 57
- 9.922081 0 1 sctp 1500 -------D 0 0.0 1.0 1 58 124 0 57
r 9.946081 1 0 sctp 48 -------S 0 1.0 0.0 1 50 116 65535 65535
+ 9.946081 0 1 sctp 1500 -------D 0 0.0 1.0 1 59 125 0 58
- 9.946081 0 1 sctp 1500 -------D 0 0.0 1.0 1 59 125 0 58
r 9.970081 1 0 sctp 48 -------S 0 1.0 0.0 1 51 117 65535 65535
+ 9.970081 0 1 sctp 1500 -------D 0 0.0 1.0 1 60 126 0 59
- 9.970081 0 1 sctp 1500 -------D 0 0.0 1.0 1 60 126 0 59
r 9.994081 1 0 sctp 48 -------S 0 1.0 0.0 1 52 118 65535 65535
+ 9.994081 0 1 sctp 1500 -------D 0 0.0 1.0 1 61 127 0 60
- 9.994081 0 1 sctp 1500 -------D 0 0.0 1.0 1 61 127 0 60
