+ 0.5 1 5 sctp 56 -------I 0 1.0 5.0 1 -1 6 65535 65535
- 0.5 1 5 sctp 56 -------I 0 1.0 5.0 1 -1 6 65535 65535
r 0.545045 1 5 sctp 56 -------I 0 1.0 5.0 1 -1 6 65535 65535
+ 0.545045 5 1 sctp 56 -------I 0 5.0 1.0 1 -1 7 65535 65535
- 0.545045 5 1 sctp 56 -------I 0 5.0 1.0 1 -1 7 65535 65535
r 0.59009 5 1 sctp 56 -------I 0 5.0 1.0 1 -1 7 65535 65535
+ 0.59009 1 5 sctp 36 -------I 0 1.0 5.0 1 -1 8 65535 65535
- 0.59009 1 5 sctp 36 -------I 0 1.0 5.0 1 -1 8 65535 65535
r 0.635118 1 5 sctp 36 -------I 0 1.0 5.0 1 -1 8 65535 65535
+ 0.635118 5 1 sctp 36 -------I 0 5.0 1.0 1 -1 9 65535 65535
- 0.635118 5 1 sctp 36 -------I 0 5.0 1.0 1 -1 9 65535 65535
r 0.680147 5 1 sctp 36 -------I 0 5.0 1.0 1 -1 9 65535 65535
d 0.680147 1 5 sctp 56 -------H 0 1.0 5.0 1 -1 10 65535 65535
+ 0.680147 2 6 sctp 56 -------H 0 2.0 6.0 1 -1 11 65535 65535
- 0.680147 2 6 sctp 56 -------H 0 2.0 6.0 1 -1 11 65535 65535
+ 0.680147 3 7 sctp 56 -------H 0 3.0 7.0 1 -1 12 65535 65535
- 0.680147 3 7 sctp 56 -------H 0 3.0 7.0 1 -1 12 65535 65535
r 0.725192 2 6 sctp 56 -------H 0 2.0 6.0 1 -1 11 65535 65535
+ 0.725192 6 2 sctp 56 -------B 0 6.0 2.0 1 -1 13 65535 65535
- 0.725192 6 2 sctp 56 -------B 0 6.0 2.0 1 -1 13 65535 65535
r 0.725192 3 7 sctp 56 -------H 0 3.0 7.0 1 -1 12 65535 65535
+ 0.725192 7 3 sctp 56 -------B 0 7.0 3.0 1 -1 14 65535 65535
- 0.725192 7 3 sctp 56 -------B 0 7.0 3.0 1 -1 14 65535 65535
r 0.770237 6 2 sctp 56 -------B 0 6.0 2.0 1 -1 13 65535 65535
r 0.770237 7 3 sctp 56 -------B 0 7.0 3.0 1 -1 14 65535 65535
d 3.680147 1 5 sctp 56 -------H 0 1.0 5.0 1 -1 15 65535 65535
+ 9.680147 1 5 sctp 56 -------H 0 1.0 5.0 1 -1 16 65535 65535
- 9.680147 1 5 sctp 56 -------H 0 1.0 5.0 1 -1 16 65535 65535
r 9.725192 1 5 sctp 56 -------H 0 1.0 5.0 1 -1 16 65535 65535
+ 9.725192 5 1 sctp 56 -------B 0 5.0 1.0 1 -1 17 65535 65535
- 9.725192 5 1 sctp 56 -------B 0 5.0 1.0 1 -1 17 65535 65535
r 9.770237 5 1 sctp 56 -------B 0 5.0 1.0 1 -1 17 65535 65535
+ 9.770237 1 5 sctp 1500 -------D 0 1.0 5.0 1 1 18 0 0
- 9.770237 1 5 sctp 1500 -------D 0 1.0 5.0 1 1 18 0 0
+ 9.770237 1 5 sctp 1500 -------D 0 1.0 5.0 1 2 19 0 1
+ 9.770237 1 5 sctp 1500 -------D 0 1.0 5.0 1 3 20 0 2
- 9.771437 1 5 sctp 1500 -------D 0 1.0 5.0 1 2 19 0 1
- 9.772637 1 5 sctp 1500 -------D 0 1.0 5.0 1 3 20 0 2
r 9.816437 1 5 sctp 1500 -------D 0 1.0 5.0 1 1 18 0 0
+ 9.816437 5 1 sctp 48 -------S 0 5.0 1.0 1 1 21 65535 65535
- 9.816437 5 1 sctp 48 -------S 0 5.0 1.0 1 1 21 65535 65535
r 9.817637 1 5 sctp 1500 -------D 0 1.0 5.0 1 2 19 0 1
r 9.818837 1 5 sctp 1500 -------D 0 1.0 5.0 1 3 20 0 2
+ 9.818837 5 1 sctp 48 -------S 0 5.0 1.0 1 3 22 65535 65535
- 9.818837 5 1 sctp 48 -------S 0 5.0 1.0 1 3 22 65535 65535
r 9.861475 5 1 sctp 48 -------S 0 5.0 1.0 1 1 21 65535 65535
+ 9.861475 1 5 sctp 1500 -------D 0 1.0 5.0 1 4 23 0 3
- 9.861475 1 5 sctp 1500 -------D 0 1.0 5.0 1 4 23 0 3
+ 9.861475 1 5 sctp 1500 -------D 0 1.0 5.0 1 5 24 0 4
- 9.862675 1 5 sctp 1500 -------D 0 1.0 5.0 1 5 24 0 4
r 9.863875 5 1 sctp 48 -------S 0 5.0 1.0 1 3 22 65535 65535
+ 9.863875 1 5 sctp 1500 -------D 0 1.0 5.0 1 6 25 0 5
+ 9.863875 1 5 sctp 1500 -------D 0 1.0 5.0 1 7 26 0 6
+ 9.863875 1 5 sctp 1500 -------D 0 1.0 5.0 1 8 27 0 7
- 9.863875 1 5 sctp 1500 -------D 0 1.0 5.0 1 6 25 0 5
- 9.865075 1 5 sctp 1500 -------D 0 1.0 5.0 1 7 26 0 6
- 9.866275 1 5 sctp 1500 -------D 0 1.0 5.0 1 8 27 0 7
r 9.907675 1 5 sctp 1500 -------D 0 1.0 5.0 1 4 23 0 3
r 9.908875 1 5 sctp 1500 -------D 0 1.0 5.0 1 5 24 0 4
+ 9.908875 5 1 sctp 48 -------S 0 5.0 1.0 1 5 28 65535 65535
- 9.908875 5 1 sctp 48 -------S 0 5.0 1.0 1 5 28 65535 65535
r 9.910075 1 5 sctp 1500 -------D 0 1.0 5.0 1 6 25 0 5
r 9.911275 1 5 sctp 1500 -------D 0 1.0 5.0 1 7 26 0 6
+ 9.911275 5 1 sctp 48 -------S 0 5.0 1.0 1 7 29 65535 65535
- 9.911275 5 1 sctp 48 -------S 0 5.0 1.0 1 7 29 65535 65535
r 9.912475 1 5 sctp 1500 -------D 0 1.0 5.0 1 8 27 0 7
r 9.953914 5 1 sctp 48 -------S 0 5.0 1.0 1 5 28 65535 65535
+ 9.953914 1 5 sctp 1500 -------D 0 1.0 5.0 1 9 30 0 8
- 9.953914 1 5 sctp 1500 -------D 0 1.0 5.0 1 9 30 0 8
+ 9.953914 1 5 sctp 1500 -------D 0 1.0 5.0 1 10 31 0 9
+ 9.953914 1 5 sctp 1500 -------D 0 1.0 5.0 1 11 32 0 10
- 9.955114 1 5 sctp 1500 -------D 0 1.0 5.0 1 10 31 0 9
r 9.956314 5 1 sctp 48 -------S 0 5.0 1.0 1 7 29 65535 65535
+ 9.956314 1 5 sctp 1500 -------D 0 1.0 5.0 1 12 33 0 11
+ 9.956314 1 5 sctp 1500 -------D 0 1.0 5.0 1 13 34 0 12
+ 9.956314 1 5 sctp 1500 -------D 0 1.0 5.0 1 14 35 0 13
- 9.956314 1 5 sctp 1500 -------D 0 1.0 5.0 1 11 32 0 10
- 9.957514 1 5 sctp 1500 -------D 0 1.0 5.0 1 12 33 0 11
- 9.958714 1 5 sctp 1500 -------D 0 1.0 5.0 1 13 34 0 12
- 9.959914 1 5 sctp 1500 -------D 0 1.0 5.0 1 14 35 0 13
r 10.000114 1 5 sctp 1500 -------D 0 1.0 5.0 1 9 30 0 8
+ 10.000114 5 1 sctp 48 -------S 0 5.0 1.0 1 9 36 65535 65535
- 10.000114 5 1 sctp 48 -------S 0 5.0 1.0 1 9 36 65535 65535
r 10.001314 1 5 sctp 1500 -------D 0 1.0 5.0 1 10 31 0 9
r 10.002514 1 5 sctp 1500 -------D 0 1.0 5.0 1 11 32 0 10
+ 10.002514 5 1 sctp 48 -------S 0 5.0 1.0 1 11 37 65535 65535
- 10.002514 5 1 sctp 48 -------S 0 5.0 1.0 1 11 37 65535 65535
r 10.003714 1 5 sctp 1500 -------D 0 1.0 5.0 1 12 33 0 11
r 10.004914 1 5 sctp 1500 -------D 0 1.0 5.0 1 13 34 0 12
+ 10.004914 5 1 sctp 48 -------S 0 5.0 1.0 1 13 38 65535 65535
- 10.004914 5 1 sctp 48 -------S 0 5.0 1.0 1 13 38 65535 65535
r 10.006114 1 5 sctp 1500 -------D 0 1.0 5.0 1 14 35 0 13
r 10.045152 5 1 sctp 48 -------S 0 5.0 1.0 1 9 36 65535 65535
+ 10.045152 1 5 sctp 1500 -------D 0 1.0 5.0 1 15 39 0 14
- 10.045152 1 5 sctp 1500 -------D 0 1.0 5.0 1 15 39 0 14
+ 10.045152 1 5 sctp 1500 -------D 0 1.0 5.0 1 16 40 0 15
+ 10.045152 1 5 sctp 1500 -------D 0 1.0 5.0 1 17 41 0 16
- 10.046352 1 5 sctp 1500 -------D 0 1.0 5.0 1 16 40 0 15
r 10.047552 5 1 sctp 48 -------S 0 5.0 1.0 1 11 37 65535 65535
+ 10.047552 1 5 sctp 1500 -------D 0 1.0 5.0 1 18 42 0 17
+ 10.047552 1 5 sctp 1500 -------D 0 1.0 5.0 1 19 43 0 18
+ 10.047552 1 5 sctp 1500 -------D 0 1.0 5.0 1 20 44 0 19
- 10.047552 1 5 sctp 1500 -------D 0 1.0 5.0 1 17 41 0 16
- 10.048752 1 5 sctp 1500 -------D 0 1.0 5.0 1 18 42 0 17
r 10.049952 5 1 sctp 48 -------S 0 5.0 1.0 1 13 38 65535 65535
+ 10.049952 1 5 sctp 1500 -------D 0 1.0 5.0 1 21 45 0 20
+ 10.049952 1 5 sctp 1500 -------D 0 1.0 5.0 1 22 46 0 21
+ 10.049952 1 5 sctp 1500 -------D 0 1.0 5.0 1 23 47 0 22
- 10.049952 1 5 sctp 1500 -------D 0 1.0 5.0 1 19 43 0 18
- 10.051152 1 5 sctp 1500 -------D 0 1.0 5.0 1 20 44 0 19
- 10.052352 1 5 sctp 1500 -------D 0 1.0 5.0 1 21 45 0 20
- 10.053552 1 5 sctp 1500 -------D 0 1.0 5.0 1 22 46 0 21
- 10.054752 1 5 sctp 1500 -------D 0 1.0 5.0 1 23 47 0 22
r 10.091352 1 5 sctp 1500 -------D 0 1.0 5.0 1 15 39 0 14
+ 10.091352 5 1 sctp 48 -------S 0 5.0 1.0 1 15 48 65535 65535
- 10.091352 5 1 sctp 48 -------S 0 5.0 1.0 1 15 48 65535 65535
r 10.092552 1 5 sctp 1500 -------D 0 1.0 5.0 1 16 40 0 15
r 10.093752 1 5 sctp 1500 -------D 0 1.0 5.0 1 17 41 0 16
+ 10.093752 5 1 sctp 48 -------S 0 5.0 1.0 1 17 49 65535 65535
- 10.093752 5 1 sctp 48 -------S 0 5.0 1.0 1 17 49 65535 65535
r 10.094952 1 5 sctp 1500 -------D 0 1.0 5.0 1 18 42 0 17
r 10.096152 1 5 sctp 1500 -------D 0 1.0 5.0 1 19 43 0 18
+ 10.096152 5 1 sctp 48 -------S 0 5.0 1.0 1 19 50 65535 65535
- 10.096152 5 1 sctp 48 -------S 0 5.0 1.0 1 19 50 65535 65535
r 10.097352 1 5 sctp 1500 -------D 0 1.0 5.0 1 20 44 0 19
r 10.098552 1 5 sctp 1500 -------D 0 1.0 5.0 1 21 45 0 20
+ 10.098552 5 1 sctp 48 -------S 0 5.0 1.0 1 21 51 65535 65535
- 10.098552 5 1 sctp 48 -------S 0 5.0 1.0 1 21 51 65535 65535
r 10.099752 1 5 sctp 1500 -------D 0 1.0 5.0 1 22 46 0 21
r 10.100952 1 5 sctp 1500 -------D 0 1.0 5.0 1 23 47 0 22
+ 10.100952 5 1 sctp 48 -------S 0 5.0 1.0 1 23 52 65535 65535
- 10.100952 5 1 sctp 48 -------S 0 5.0 1.0 1 23 52 65535 65535
r 10.13639 5 1 sctp 48 -------S 0 5.0 1.0 1 15 48 65535 65535
+ 10.13639 1 5 sctp 1500 -------D 0 1.0 5.0 1 24 53 0 23
- 10.13639 1 5 sctp 1500 -------D 0 1.0 5.0 1 24 53 0 23
+ 10.13639 1 5 sctp 1500 -------D 0 1.0 5.0 1 25 54 0 24
+ 10.13639 1 5 sctp 1500 -------D 0 1.0 5.0 1 26 55 0 25
- 10.13759 1 5 sctp 1500 -------D 0 1.0 5.0 1 25 54 0 24
r 10.13879 5 1 sctp 48 -------S 0 5.0 1.0 1 17 49 65535 65535
+ 10.13879 1 5 sctp 1500 -------D 0 1.0 5.0 1 27 56 0 26
+ 10.13879 1 5 sctp 1500 -------D 0 1.0 5.0 1 28 57 0 27
+ 10.13879 1 5 sctp 1500 -------D 0 1.0 5.0 1 29 58 0 28
- 10.13879 1 5 sctp 1500 -------D 0 1.0 5.0 1 26 55 0 25
- 10.13999 1 5 sctp 1500 -------D 0 1.0 5.0 1 27 56 0 26
r 10.14119 5 1 sctp 48 -------S 0 5.0 1.0 1 19 50 65535 65535
+ 10.14119 1 5 sctp 1500 -------D 0 1.0 5.0 1 30 59 0 29
+ 10.14119 1 5 sctp 1500 -------D 0 1.0 5.0 1 31 60 0 30
+ 10.14119 1 5 sctp 1500 -------D 0 1.0 5.0 1 32 61 0 31
- 10.14119 1 5 sctp 1500 -------D 0 1.0 5.0 1 28 57 0 27
- 10.14239 1 5 sctp 1500 -------D 0 1.0 5.0 1 29 58 0 28
r 10.14359 5 1 sctp 48 -------S 0 5.0 1.0 1 21 51 65535 65535
+ 10.14359 1 5 sctp 1500 -------D 0 1.0 5.0 1 33 62 0 32
+ 10.14359 1 5 sctp 1500 -------D 0 1.0 5.0 1 34 63 0 33
+ 10.14359 1 5 sctp 1500 -------D 0 1.0 5.0 1 35 64 0 34
- 10.14359 1 5 sctp 1500 -------D 0 1.0 5.0 1 30 59 0 29
- 10.14479 1 5 sctp 1500 -------D 0 1.0 5.0 1 31 60 0 30
r 10.14599 5 1 sctp 48 -------S 0 5.0 1.0 1 23 52 65535 65535
+ 10.14599 1 5 sctp 1500 -------D 0 1.0 5.0 1 36 65 0 35
+ 10.14599 1 5 sctp 1500 -------D 0 1.0 5.0 1 37 66 0 36
+ 10.14599 1 5 sctp 1500 -------D 0 1.0 5.0 1 38 67 0 37
- 10.14599 1 5 sctp 1500 -------D 0 1.0 5.0 1 32 61 0 31
- 10.14719 1 5 sctp 1500 -------D 0 1.0 5.0 1 33 62 0 32
- 10.14839 1 5 sctp 1500 -------D 0 1.0 5.0 1 34 63 0 33
- 10.14959 1 5 sctp 1500 -------D 0 1.0 5.0 1 35 64 0 34
- 10.15079 1 5 sctp 1500 -------D 0 1.0 5.0 1 36 65 0 35
- 10.15199 1 5 sctp 1500 -------D 0 1.0 5.0 1 37 66 0 36
- 10.15319 1 5 sctp 1500 -------D 0 1.0 5.0 1 38 67 0 37
r 10.18259 1 5 sctp 1500 -------D 0 1.0 5.0 1 24 53 0 23
r 10.18379 1 5 sctp 1500 -------D 0 1.0 5.0 1 25 54 0 24
+ 10.18379 5 1 sctp 48 -------S 0 5.0 1.0 1 25 68 65535 65535
- 10.18379 5 1 sctp 48 -------S 0 5.0 1.0 1 25 68 65535 65535
r 10.18499 1 5 sctp 1500 -------D 0 1.0 5.0 1 26 55 0 25
r 10.18619 1 5 sctp 1500 -------D 0 1.0 5.0 1 27 56 0 26
+ 10.18619 5 1 sctp 48 -------S 0 5.0 1.0 1 27 69 65535 65535
- 10.18619 5 1 sctp 48 -------S 0 5.0 1.0 1 27 69 65535 65535
r 10.18739 1 5 sctp 1500 -------D 0 1.0 5.0 1 28 57 0 27
r 10.18859 1 5 sctp 1500 -------D 0 1.0 5.0 1 29 58 0 28
+ 10.18859 5 1 sctp 48 -------S 0 5.0 1.0 1 29 70 65535 65535
- 10.18859 5 1 sctp 48 -------S 0 5.0 1.0 1 29 70 65535 65535
r 10.18979 1 5 sctp 1500 -------D 0 1.0 5.0 1 30 59 0 29
r 10.19099 1 5 sctp 1500 -------D 0 1.0 5.0 1 31 60 0 30
+ 10.19099 5 1 sctp 48 -------S 0 5.0 1.0 1 31 71 65535 65535
- 10.19099 5 1 sctp 48 -------S 0 5.0 1.0 1 31 71 65535 65535
r 10.19219 1 5 sctp 1500 -------D 0 1.0 5.0 1 32 61 0 31
r 10.19339 1 5 sctp 1500 -------D 0 1.0 5.0 1 33 62 0 32
+ 10.19339 5 1 sctp 48 -------S 0 5.0 1.0 1 33 72 65535 65535
- 10.19339 5 1 sctp 48 -------S 0 5.0 1.0 1 33 72 65535 65535
r 10.19459 1 5 sctp 1500 -------D 0 1.0 5.0 1 34 63 0 33
r 10.19579 1 5 sctp 1500 -------D 0 1.0 5.0 1 35 64 0 34
+ 10.19579 5 1 sctp 48 -------S 0 5.0 1.0 1 35 73 65535 65535
- 10.19579 5 1 sctp 48 -------S 0 5.0 1.0 1 35 73 65535 65535
r 10.19699 1 5 sctp 1500 -------D 0 1.0 5.0 1 36 65 0 35
r 10.19819 1 5 sctp 1500 -------D 0 1.0 5.0 1 37 66 0 36
+ 10.19819 5 1 sctp 48 -------S 0 5.0 1.0 1 37 74 65535 65535
- 10.19819 5 1 sctp 48 -------S 0 5.0 1.0 1 37 74 65535 65535
r 10.19939 1 5 sctp 1500 -------D 0 1.0 5.0 1 38 67 0 37
r 10.228829 5 1 sctp 48 -------S 0 5.0 1.0 1 25 68 65535 65535
+ 10.228829 1 5 sctp 1500 -------D 0 1.0 5.0 1 39 75 0 38
- 10.228829 1 5 sctp 1500 -------D 0 1.0 5.0 1 39 75 0 38
+ 10.228829 1 5 sctp 1500 -------D 0 1.0 5.0 1 40 76 0 39
+ 10.228829 1 5 sctp 1500 -------D 0 1.0 5.0 1 41 77 0 40
- 10.230029 1 5 sctp 1500 -------D 0 1.0 5.0 1 40 76 0 39
r 10.231229 5 1 sctp 48 -------S 0 5.0 1.0 1 27 69 65535 65535
+ 10.231229 1 5 sctp 1500 -------D 0 1.0 5.0 1 42 78 0 41
+ 10.231229 1 5 sctp 1500 -------D 0 1.0 5.0 1 43 79 0 42
+ 10.231229 1 5 sctp 1500 -------D 0 1.0 5.0 1 44 80 0 43
- 10.231229 1 5 sctp 1500 -------D 0 1.0 5.0 1 41 77 0 40
- 10.232429 1 5 sctp 1500 -------D 0 1.0 5.0 1 42 78 0 41
r 10.233629 5 1 sctp 48 -------S 0 5.0 1.0 1 29 70 65535 65535
+ 10.233629 1 5 sctp 1500 -------D 0 1.0 5.0 1 45 81 0 44
+ 10.233629 1 5 sctp 1500 -------D 0 1.0 5.0 1 46 82 0 45
+ 10.233629 1 5 sctp 1500 -------D 0 1.0 5.0 1 47 83 0 46
- 10.233629 1 5 sctp 1500 -------D 0 1.0 5.0 1 43 79 0 42
- 10.234829 1 5 sctp 1500 -------D 0 1.0 5.0 1 44 80 0 43
r 10.236029 5 1 sctp 48 -------S 0 5.0 1.0 1 31 71 65535 65535
+ 10.236029 1 5 sctp 1500 -------D 0 1.0 5.0 1 48 84 0 47
+ 10.236029 1 5 sctp 1500 -------D 0 1.0 5.0 1 49 85 0 48
+ 10.236029 1 5 sctp 1500 -------D 0 1.0 5.0 1 50 86 0 49
- 10.236029 1 5 sctp 1500 -------D 0 1.0 5.0 1 45 81 0 44
- 10.237229 1 5 sctp 1500 -------D 0 1.0 5.0 1 46 82 0 45
r 10.238429 5 1 sctp 48 -------S 0 5.0 1.0 1 33 72 65535 65535
+ 10.238429 1 5 sctp 1500 -------D 0 1.0 5.0 1 51 87 0 50
+ 10.238429 1 5 sctp 1500 -------D 0 1.0 5.0 1 52 88 0 51
+ 10.238429 1 5 sctp 1500 -------D 0 1.0 5.0 1 53 89 0 52
- 10.238429 1 5 sctp 1500 -------D 0 1.0 5.0 1 47 83 0 46
- 10.239629 1 5 sctp 1500 -------D 0 1.0 5.0 1 48 84 0 47
r 10.240829 5 1 sctp 48 -------S 0 5.0 1.0 1 35 73 65535 65535
+ 10.240829 1 5 sctp 1500 -------D 0 1.0 5.0 1 54 90 0 53
+ 10.240829 1 5 sctp 1500 -------D 0 1.0 5.0 1 55 91 0 54
+ 10.240829 1 5 sctp 1500 -------D 0 1.0 5.0 1 56 92 0 55
- 10.240829 1 5 sctp 1500 -------D 0 1.0 5.0 1 49 85 0 48
- 10.242029 1 5 sctp 1500 -------D 0 1.0 5.0 1 50 86 0 49
r 10.243229 5 1 sctp 48 -------S 0 5.0 1.0 1 37 74 65535 65535
+ 10.243229 1 5 sctp 1500 -------D 0 1.0 5.0 1 57 93 0 56
+ 10.243229 1 5 sctp 1500 -------D 0 1.0 5.0 1 58 94 0 57
+ 10.243229 1 5 sctp 1500 -------D 0 1.0 5.0 1 59 95 0 58
- 10.243229 1 5 sctp 1500 -------D 0 1.0 5.0 1 51 87 0 50
- 10.244429 1 5 sctp 1500 -------D 0 1.0 5.0 1 52 88 0 51
- 10.245629 1 5 sctp 1500 -------D 0 1.0 5.0 1 53 89 0 52
- 10.246829 1 5 sctp 1500 -------D 0 1.0 5.0 1 54 90 0 53
- 10.248029 1 5 sctp 1500 -------D 0 1.0 5.0 1 55 91 0 54
- 10.249229 1 5 sctp 1500 -------D 0 1.0 5.0 1 56 92 0 55
- 10.250429 1 5 sctp 1500 -------D 0 1.0 5.0 1 57 93 0 56
- 10.251629 1 5 sctp 1500 -------D 0 1.0 5.0 1 58 94 0 57
- 10.252829 1 5 sctp 1500 -------D 0 1.0 5.0 1 59 95 0 58
r 10.275029 1 5 sctp 1500 -------D 0 1.0 5.0 1 39 75 0 38
+ 10.275029 5 1 sctp 48 -------S 0 5.0 1.0 1 39 96 65535 65535
- 10.275029 5 1 sctp 48 -------S 0 5.0 1.0 1 39 96 65535 65535
r 10.276229 1 5 sctp 1500 -------D 0 1.0 5.0 1 40 76 0 39
r 10.277429 1 5 sctp 1500 -------D 0 1.0 5.0 1 41 77 0 40
+ 10.277429 5 1 sctp 48 -------S 0 5.0 1.0 1 41 97 65535 65535
- 10.277429 5 1 sctp 48 -------S 0 5.0 1.0 1 41 97 65535 65535
r 10.278629 1 5 sctp 1500 -------D 0 1.0 5.0 1 42 78 0 41
r 10.279829 1 5 sctp 1500 -------D 0 1.0 5.0 1 43 79 0 42
+ 10.279829 5 1 sctp 48 -------S 0 5.0 1.0 1 43 98 65535 65535
- 10.279829 5 1 sctp 48 -------S 0 5.0 1.0 1 43 98 65535 65535
r 10.281029 1 5 sctp 1500 -------D 0 1.0 5.0 1 44 80 0 43
r 10.282229 1 5 sctp 1500 -------D 0 1.0 5.0 1 45 81 0 44
+ 10.282229 5 1 sctp 48 -------S 0 5.0 1.0 1 45 99 65535 65535
- 10.282229 5 1 sctp 48 -------S 0 5.0 1.0 1 45 99 65535 65535
r 10.283429 1 5 sctp 1500 -------D 0 1.0 5.0 1 46 82 0 45
r 10.284629 1 5 sctp 1500 -------D 0 1.0 5.0 1 47 83 0 46
+ 10.284629 5 1 sctp 48 -------S 0 5.0 1.0 1 47 100 65535 65535
- 10.284629 5 1 sctp 48 -------S 0 5.0 1.0 1 47 100 65535 65535
r 10.285829 1 5 sctp 1500 -------D 0 1.0 5.0 1 48 84 0 47
r 10.287029 1 5 sctp 1500 -------D 0 1.0 5.0 1 49 85 0 48
+ 10.287029 5 1 sctp 48 -------S 0 5.0 1.0 1 49 101 65535 65535
- 10.287029 5 1 sctp 48 -------S 0 5.0 1.0 1 49 101 65535 65535
r 10.288229 1 5 sctp 1500 -------D 0 1.0 5.0 1 50 86 0 49
r 10.289429 1 5 sctp 1500 -------D 0 1.0 5.0 1 51 87 0 50
+ 10.289429 5 1 sctp 48 -------S 0 5.0 1.0 1 51 102 65535 65535
- 10.289429 5 1 sctp 48 -------S 0 5.0 1.0 1 51 102 65535 65535
r 10.290629 1 5 sctp 1500 -------D 0 1.0 5.0 1 52 88 0 51
r 10.291829 1 5 sctp 1500 -------D 0 1.0 5.0 1 53 89 0 52
+ 10.291829 5 1 sctp 48 -------S 0 5.0 1.0 1 53 103 65535 65535
- 10.291829 5 1 sctp 48 -------S 0 5.0 1.0 1 53 103 65535 65535
r 10.293029 1 5 sctp 1500 -------D 0 1.0 5.0 1 54 90 0 53
r 10.294229 1 5 sctp 1500 -------D 0 1.0 5.0 1 55 91 0 54
+ 10.294229 5 1 sctp 48 -------S 0 5.0 1.0 1 55 104 65535 65535
- 10.294229 5 1 sctp 48 -------S 0 5.0 1.0 1 55 104 65535 65535
r 10.295429 1 5 sctp 1500 -------D 0 1.0 5.0 1 56 92 0 55
r 10.296629 1 5 sctp 1500 -------D 0 1.0 5.0 1 57 93 0 56
+ 10.296629 5 1 sctp 48 -------S 0 5.0 1.0 1 57 105 65535 65535
- 10.296629 5 1 sctp 48 -------S 0 5.0 1.0 1 57 105 65535 65535
r 10.297829 1 5 sctp 1500 -------D 0 1.0 5.0 1 58 94 0 57
r 10.299029 1 5 sctp 1500 -------D 0 1.0 5.0 1 59 95 0 58
+ 10.299029 5 1 sctp 48 -------S 0 5.0 1.0 1 59 106 65535 65535
- 10.299029 5 1 sctp 48 -------S 0 5.0 1.0 1 59 106 65535 65535
r 10.320067 5 1 sctp 48 -------S 0 5.0 1.0 1 39 96 65535 65535
+ 10.320067 1 5 sctp 1500 -------D 0 1.0 5.0 1 60 107 0 59
- 10.320067 1 5 sctp 1500 -------D 0 1.0 5.0 1 60 107 0 59
+ 10.320067 1 5 sctp 1500 -------D 0 1.0 5.0 1 61 108 0 60
+ 10.320067 1 5 sctp 1500 -------D 0 1.0 5.0 1 62 109 0 61
- 10.321267 1 5 sctp 1500 -------D 0 1.0 5.0 1 61 108 0 60
r 10.322467 5 1 sctp 48 -------S 0 5.0 1.0 1 41 97 65535 65535
+ 10.322467 1 5 sctp 1500 -------D 0 1.0 5.0 1 63 110 0 62
+ 10.322467 1 5 sctp 1500 -------D 0 1.0 5.0 1 64 111 0 63
+ 10.322467 1 5 sctp 1500 -------D 0 1.0 5.0 1 65 112 0 64
- 10.322467 1 5 sctp 1500 -------D 0 1.0 5.0 1 62 109 0 61
- 10.323667 1 5 sctp 1500 -------D 0 1.0 5.0 1 63 110 0 62
r 10.324867 5 1 sctp 48 -------S 0 5.0 1.0 1 43 98 65535 65535
+ 10.324867 1 5 sctp 1500 -------D 0 1.0 5.0 1 66 113 0 65
+ 10.324867 1 5 sctp 1500 -------D 0 1.0 5.0 1 67 114 0 66
+ 10.324867 1 5 sctp 1500 -------D 0 1.0 5.0 1 68 115 0 67
- 10.324867 1 5 sctp 1500 -------D 0 1.0 5.0 1 64 111 0 63
- 10.326067 1 5 sctp 1500 -------D 0 1.0 5.0 1 65 112 0 64
r 10.327267 5 1 sctp 48 -------S 0 5.0 1.0 1 45 99 65535 65535
+ 10.327267 1 5 sctp 1500 -------D 0 1.0 5.0 1 69 116 0 68
+ 10.327267 1 5 sctp 1500 -------D 0 1.0 5.0 1 70 117 0 69
+ 10.327267 1 5 sctp 1500 -------D 0 1.0 5.0 1 71 118 0 70
- 10.327267 1 5 sctp 1500 -------D 0 1.0 5.0 1 66 113 0 65
- 10.328467 1 5 sctp 1500 -------D 0 1.0 5.0 1 67 114 0 66
r 10.329667 5 1 sctp 48 -------S 0 5.0 1.0 1 47 100 65535 65535
+ 10.329667 1 5 sctp 1500 -------D 0 1.0 5.0 1 72 119 0 71
+ 10.329667 1 5 sctp 1500 -------D 0 1.0 5.0 1 73 120 0 72
+ 10.329667 1 5 sctp 1500 -------D 0 1.0 5.0 1 74 121 0 73
- 10.329667 1 5 sctp 1500 -------D 0 1.0 5.0 1 68 115 0 67
- 10.330867 1 5 sctp 1500 -------D 0 1.0 5.0 1 69 116 0 68
r 10.332067 5 1 sctp 48 -------S 0 5.0 1.0 1 49 101 65535 65535
+ 10.332067 1 5 sctp 1500 -------D 0 1.0 5.0 1 75 122 0 74
+ 10.332067 1 5 sctp 1500 -------D 0 1.0 5.0 1 76 123 0 75
+ 10.332067 1 5 sctp 1500 -------D 0 1.0 5.0 1 77 124 0 76
- 10.332067 1 5 sctp 1500 -------D 0 1.0 5.0 1 70 117 0 69
- 10.333267 1 5 sctp 1500 -------D 0 1.0 5.0 1 71 118 0 70
r 10.334467 5 1 sctp 48 -------S 0 5.0 1.0 1 51 102 65535 65535
+ 10.334467 1 5 sctp 1500 -------D 0 1.0 5.0 1 78 125 0 77
+ 10.334467 1 5 sctp 1500 -------D 0 1.0 5.0 1 79 126 0 78
+ 10.334467 1 5 sctp 1500 -------D 0 1.0 5.0 1 80 127 0 79
- 10.334467 1 5 sctp 1500 -------D 0 1.0 5.0 1 72 119 0 71
- 10.335667 1 5 sctp 1500 -------D 0 1.0 5.0 1 73 120 0 72
r 10.336867 5 1 sctp 48 -------S 0 5.0 1.0 1 53 103 65535 65535
+ 10.336867 1 5 sctp 1500 -------D 0 1.0 5.0 1 81 128 0 80
+ 10.336867 1 5 sctp 1500 -------D 0 1.0 5.0 1 82 129 0 81
+ 10.336867 1 5 sctp 1500 -------D 0 1.0 5.0 1 83 130 0 82
- 10.336867 1 5 sctp 1500 -------D 0 1.0 5.0 1 74 121 0 73
- 10.338067 1 5 sctp 1500 -------D 0 1.0 5.0 1 75 122 0 74
r 10.339267 5 1 sctp 48 -------S 0 5.0 1.0 1 55 104 65535 65535
+ 10.339267 1 5 sctp 1500 -------D 0 1.0 5.0 1 84 131 0 83
+ 10.339267 1 5 sctp 1500 -------D 0 1.0 5.0 1 85 132 0 84
+ 10.339267 1 5 sctp 1500 -------D 0 1.0 5.0 1 86 133 0 85
- 10.339267 1 5 sctp 1500 -------D 0 1.0 5.0 1 76 123 0 75
- 10.340467 1 5 sctp 1500 -------D 0 1.0 5.0 1 77 124 0 76
r 10.341667 5 1 sctp 48 -------S 0 5.0 1.0 1 57 105 65535 65535
+ 10.341667 1 5 sctp 1500 -------D 0 1.0 5.0 1 87 134 0 86
+ 10.341667 1 5 sctp 1500 -------D 0 1.0 5.0 1 88 135 0 87
+ 10.341667 1 5 sctp 1500 -------D 0 1.0 5.0 1 89 136 0 88
- 10.341667 1 5 sctp 1500 -------D 0 1.0 5.0 1 78 125 0 77
- 10.342867 1 5 sctp 1500 -------D 0 1.0 5.0 1 79 126 0 78
r 10.344067 5 1 sctp 48 -------S 0 5.0 1.0 1 59 106 65535 65535
+ 10.344067 1 5 sctp 1500 -------D 0 1.0 5.0 1 90 137 0 89
+ 10.344067 1 5 sctp 1500 -------D 0 1.0 5.0 1 91 138 0 90
+ 10.344067 1 5 sctp 1500 -------D 0 1.0 5.0 1 92 139 0 91
- 10.344067 1 5 sctp 1500 -------D 0 1.0 5.0 1 80 127 0 79
- 10.345267 1 5 sctp 1500 -------D 0 1.0 5.0 1 81 128 0 80
- 10.346467 1 5 sctp 1500 -------D 0 1.0 5.0 1 82 129 0 81
- 10.347667 1 5 sctp 1500 -------D 0 1.0 5.0 1 83 130 0 82
- 10.348867 1 5 sctp 1500 -------D 0 1.0 5.0 1 84 131 0 83
- 10.350067 1 5 sctp 1500 -------D 0 1.0 5.0 1 85 132 0 84
- 10.351267 1 5 sctp 1500 -------D 0 1.0 5.0 1 86 133 0 85
- 10.352467 1 5 sctp 1500 -------D 0 1.0 5.0 1 87 134 0 86
- 10.353667 1 5 sctp 1500 -------D 0 1.0 5.0 1 88 135 0 87
- 10.354867 1 5 sctp 1500 -------D 0 1.0 5.0 1 89 136 0 88
- 10.356067 1 5 sctp 1500 -------D 0 1.0 5.0 1 90 137 0 89
- 10.357267 1 5 sctp 1500 -------D 0 1.0 5.0 1 91 138 0 90
- 10.358467 1 5 sctp 1500 -------D 0 1.0 5.0 1 92 139 0 91
r 10.366267 1 5 sctp 1500 -------D 0 1.0 5.0 1 60 107 0 59
r 10.367467 1 5 sctp 1500 -------D 0 1.0 5.0 1 61 108 0 60
+ 10.367467 5 1 sctp 48 -------S 0 5.0 1.0 1 61 140 65535 65535
- 10.367467 5 1 sctp 48 -------S 0 5.0 1.0 1 61 140 65535 65535
r 10.368667 1 5 sctp 1500 -------D 0 1.0 5.0 1 62 109 0 61
r 10.369867 1 5 sctp 1500 -------D 0 1.0 5.0 1 63 110 0 62
+ 10.369867 5 1 sctp 48 -------S 0 5.0 1.0 1 63 141 65535 65535
- 10.369867 5 1 sctp 48 -------S 0 5.0 1.0 1 63 141 65535 65535
r 10.371067 1 5 sctp 1500 -------D 0 1.0 5.0 1 64 111 0 63
r 10.372267 1 5 sctp 1500 -------D 0 1.0 5.0 1 65 112 0 64
+ 10.372267 5 1 sctp 48 -------S 0 5.0 1.0 1 65 142 65535 65535
- 10.372267 5 1 sctp 48 -------S 0 5.0 1.0 1 65 142 65535 65535
r 10.373467 1 5 sctp 1500 -------D 0 1.0 5.0 1 66 113 0 65
r 10.374667 1 5 sctp 1500 -------D 0 1.0 5.0 1 67 114 0 66
+ 10.374667 5 1 sctp 48 -------S 0 5.0 1.0 1 67 143 65535 65535
- 10.374667 5 1 sctp 48 -------S 0 5.0 1.0 1 67 143 65535 65535
r 10.375867 1 5 sctp 1500 -------D 0 1.0 5.0 1 68 115 0 67
r 10.377067 1 5 sctp 1500 -------D 0 1.0 5.0 1 69 116 0 68
+ 10.377067 5 1 sctp 48 -------S 0 5.0 1.0 1 69 144 65535 65535
- 10.377067 5 1 sctp 48 -------S 0 5.0 1.0 1 69 144 65535 65535
r 10.378267 1 5 sctp 1500 -------D 0 1.0 5.0 1 70 117 0 69
r 10.379467 1 5 sctp 1500 -------D 0 1.0 5.0 1 71 118 0 70
+ 10.379467 5 1 sctp 48 -------S 0 5.0 1.0 1 71 145 65535 65535
- 10.379467 5 1 sctp 48 -------S 0 5.0 1.0 1 71 145 65535 65535
r 10.380667 1 5 sctp 1500 -------D 0 1.0 5.0 1 72 119 0 71
r 10.381867 1 5 sctp 1500 -------D 0 1.0 5.0 1 73 120 0 72
+ 10.381867 5 1 sctp 48 -------S 0 5.0 1.0 1 73 146 65535 65535
- 10.381867 5 1 sctp 48 -------S 0 5.0 1.0 1 73 146 65535 65535
r 10.383067 1 5 sctp 1500 -------D 0 1.0 5.0 1 74 121 0 73
r 10.384267 1 5 sctp 1500 -------D 0 1.0 5.0 1 75 122 0 74
+ 10.384267 5 1 sctp 48 -------S 0 5.0 1.0 1 75 147 65535 65535
- 10.384267 5 1 sctp 48 -------S 0 5.0 1.0 1 75 147 65535 65535
r 10.385467 1 5 sctp 1500 -------D 0 1.0 5.0 1 76 123 0 75
r 10.386667 1 5 sctp 1500 -------D 0 1.0 5.0 1 77 124 0 76
+ 10.386667 5 1 sctp 48 -------S 0 5.0 1.0 1 77 148 65535 65535
- 10.386667 5 1 sctp 48 -------S 0 5.0 1.0 1 77 148 65535 65535
r 10.387867 1 5 sctp 1500 -------D 0 1.0 5.0 1 78 125 0 77
r 10.389067 1 5 sctp 1500 -------D 0 1.0 5.0 1 79 126 0 78
+ 10.389067 5 1 sctp 48 -------S 0 5.0 1.0 1 79 149 65535 65535
- 10.389067 5 1 sctp 48 -------S 0 5.0 1.0 1 79 149 65535 65535
r 10.390267 1 5 sctp 1500 -------D 0 1.0 5.0 1 80 127 0 79
r 10.391467 1 5 sctp 1500 -------D 0 1.0 5.0 1 81 128 0 80
+ 10.391467 5 1 sctp 48 -------S 0 5.0 1.0 1 81 150 65535 65535
- 10.391467 5 1 sctp 48 -------S 0 5.0 1.0 1 81 150 65535 65535
r 10.392667 1 5 sctp 1500 -------D 0 1.0 5.0 1 82 129 0 81
r 10.393867 1 5 sctp 1500 -------D 0 1.0 5.0 1 83 130 0 82
+ 10.393867 5 1 sctp 48 -------S 0 5.0 1.0 1 83 151 65535 65535
- 10.393867 5 1 sctp 48 -------S 0 5.0 1.0 1 83 151 65535 65535
r 10.395067 1 5 sctp 1500 -------D 0 1.0 5.0 1 84 131 0 83
r 10.396267 1 5 sctp 1500 -------D 0 1.0 5.0 1 85 132 0 84
+ 10.396267 5 1 sctp 48 -------S 0 5.0 1.0 1 85 152 65535 65535
- 10.396267 5 1 sctp 48 -------S 0 5.0 1.0 1 85 152 65535 65535
r 10.397467 1 5 sctp 1500 -------D 0 1.0 5.0 1 86 133 0 85
r 10.398667 1 5 sctp 1500 -------D 0 1.0 5.0 1 87 134 0 86
+ 10.398667 5 1 sctp 48 -------S 0 5.0 1.0 1 87 153 65535 65535
- 10.398667 5 1 sctp 48 -------S 0 5.0 1.0 1 87 153 65535 65535
r 10.399867 1 5 sctp 1500 -------D 0 1.0 5.0 1 88 135 0 87
r 10.401067 1 5 sctp 1500 -------D 0 1.0 5.0 1 89 136 0 88
+ 10.401067 5 1 sctp 48 -------S 0 5.0 1.0 1 89 154 65535 65535
- 10.401067 5 1 sctp 48 -------S 0 5.0 1.0 1 89 154 65535 65535
r 10.402267 1 5 sctp 1500 -------D 0 1.0 5.0 1 90 137 0 89
r 10.403467 1 5 sctp 1500 -------D 0 1.0 5.0 1 91 138 0 90
+ 10.403467 5 1 sctp 48 -------S 0 5.0 1.0 1 91 155 65535 65535
- 10.403467 5 1 sctp 48 -------S 0 5.0 1.0 1 91 155 65535 65535
r 10.404667 1 5 sctp 1500 -------D 0 1.0 5.0 1 92 139 0 91
r 10.412506 5 1 sctp 48 -------S 0 5.0 1.0 1 61 140 65535 65535
+ 10.412506 1 5 sctp 1500 -------D 0 1.0 5.0 1 93 156 0 92
- 10.412506 1 5 sctp 1500 -------D 0 1.0 5.0 1 93 156 0 92
+ 10.412506 1 5 sctp 1500 -------D 0 1.0 5.0 1 94 157 0 93
+ 10.412506 1 5 sctp 1500 -------D 0 1.0 5.0 1 95 158 0 94
- 10.413706 1 5 sctp 1500 -------D 0 1.0 5.0 1 94 157 0 93
r 10.414906 5 1 sctp 48 -------S 0 5.0 1.0 1 63 141 65535 65535
+ 10.414906 1 5 sctp 1500 -------D 0 1.0 5.0 1 96 159 0 95
+ 10.414906 1 5 sctp 1500 -------D 0 1.0 5.0 1 97 160 0 96
+ 10.414906 1 5 sctp 1500 -------D 0 1.0 5.0 1 98 161 0 97
- 10.414906 1 5 sctp 1500 -------D 0 1.0 5.0 1 95 158 0 94
- 10.416106 1 5 sctp 1500 -------D 0 1.0 5.0 1 96 159 0 95
r 10.417306 5 1 sctp 48 -------S 0 5.0 1.0 1 65 142 65535 65535
+ 10.417306 1 5 sctp 1500 -------D 0 1.0 5.0 1 99 162 0 98
+ 10.417306 1 5 sctp 1500 -------D 0 1.0 5.0 1 100 163 0 99
+ 10.417306 1 5 sctp 1500 -------D 0 1.0 5.0 1 101 164 0 100
- 10.417306 1 5 sctp 1500 -------D 0 1.0 5.0 1 97 160 0 96
- 10.418506 1 5 sctp 1500 -------D 0 1.0 5.0 1 98 161 0 97
r 10.419706 5 1 sctp 48 -------S 0 5.0 1.0 1 67 143 65535 65535
+ 10.419706 1 5 sctp 1500 -------D 0 1.0 5.0 1 102 165 0 101
+ 10.419706 1 5 sctp 1500 -------D 0 1.0 5.0 1 103 166 0 102
+ 10.419706 1 5 sctp 1500 -------D 0 1.0 5.0 1 104 167 0 103
- 10.419706 1 5 sctp 1500 -------D 0 1.0 5.0 1 99 162 0 98
- 10.420906 1 5 sctp 1500 -------D 0 1.0 5.0 1 100 163 0 99
r 10.422106 5 1 sctp 48 -------S 0 5.0 1.0 1 69 144 65535 65535
+ 10.422106 1 5 sctp 1500 -------D 0 1.0 5.0 1 105 168 0 104
+ 10.422106 1 5 sctp 1500 -------D 0 1.0 5.0 1 106 169 0 105
+ 10.422106 1 5 sctp 1500 -------D 0 1.0 5.0 1 107 170 0 106
- 10.422106 1 5 sctp 1500 -------D 0 1.0 5.0 1 101 164 0 100
- 10.423306 1 5 sctp 1500 -------D 0 1.0 5.0 1 102 165 0 101
r 10.424506 5 1 sctp 48 -------S 0 5.0 1.0 1 71 145 65535 65535
+ 10.424506 1 5 sctp 1500 -------D 0 1.0 5.0 1 108 171 0 107
+ 10.424506 1 5 sctp 1500 -------D 0 1.0 5.0 1 109 172 0 108
+ 10.424506 1 5 sctp 1500 -------D 0 1.0 5.0 1 110 173 0 109
- 10.424506 1 5 sctp 1500 -------D 0 1.0 5.0 1 103 166 0 102
- 10.425706 1 5 sctp 1500 -------D 0 1.0 5.0 1 104 167 0 103
r 10.426906 5 1 sctp 48 -------S 0 5.0 1.0 1 73 146 65535 65535
+ 10.426906 1 5 sctp 1500 -------D 0 1.0 5.0 1 111 174 0 110
+ 10.426906 1 5 sctp 1500 -------D 0 1.0 5.0 1 112 175 0 111
+ 10.426906 1 5 sctp 1500 -------D 0 1.0 5.0 1 113 176 0 112
- 10.426906 1 5 sctp 1500 -------D 0 1.0 5.0 1 105 168 0 104
- 10.428106 1 5 sctp 1500 -------D 0 1.0 5.0 1 106 169 0 105
r 10.429306 5 1 sctp 48 -------S 0 5.0 1.0 1 75 147 65535 65535
+ 10.429306 1 5 sctp 1500 -------D 0 1.0 5.0 1 114 177 0 113
+ 10.429306 1 5 sctp 1500 -------D 0 1.0 5.0 1 115 178 0 114
+ 10.429306 1 5 sctp 1500 -------D 0 1.0 5.0 1 116 179 0 115
- 10.429306 1 5 sctp 1500 -------D 0 1.0 5.0 1 107 170 0 106
- 10.430506 1 5 sctp 1500 -------D 0 1.0 5.0 1 108 171 0 107
r 10.431706 5 1 sctp 48 -------S 0 5.0 1.0 1 77 148 65535 65535
+ 10.431706 1 5 sctp 1500 -------D 0 1.0 5.0 1 117 180 0 116
+ 10.431706 1 5 sctp 1500 -------D 0 1.0 5.0 1 118 181 0 117
+ 10.431706 1 5 sctp 1500 -------D 0 1.0 5.0 1 119 182 0 118
- 10.431706 1 5 sctp 1500 -------D 0 1.0 5.0 1 109 172 0 108
- 10.432906 1 5 sctp 1500 -------D 0 1.0 5.0 1 110 173 0 109
r 10.434106 5 1 sctp 48 -------S 0 5.0 1.0 1 79 149 65535 65535
+ 10.434106 1 5 sctp 1500 -------D 0 1.0 5.0 1 120 183 0 119
+ 10.434106 1 5 sctp 1500 -------D 0 1.0 5.0 1 121 184 0 120
+ 10.434106 1 5 sctp 1500 -------D 0 1.0 5.0 1 122 185 0 121
- 10.434106 1 5 sctp 1500 -------D 0 1.0 5.0 1 111 174 0 110
- 10.435306 1 5 sctp 1500 -------D 0 1.0 5.0 1 112 175 0 111
r 10.436506 5 1 sctp 48 -------S 0 5.0 1.0 1 81 150 65535 65535
+ 10.436506 1 5 sctp 1500 -------D 0 1.0 5.0 1 123 186 0 122
+ 10.436506 1 5 sctp 1500 -------D 0 1.0 5.0 1 124 187 0 123
+ 10.436506 1 5 sctp 1500 -------D 0 1.0 5.0 1 125 188 0 124
- 10.436506 1 5 sctp 1500 -------D 0 1.0 5.0 1 113 176 0 112
- 10.437706 1 5 sctp 1500 -------D 0 1.0 5.0 1 114 177 0 113
r 10.438906 5 1 sctp 48 -------S 0 5.0 1.0 1 83 151 65535 65535
+ 10.438906 1 5 sctp 1500 -------D 0 1.0 5.0 1 126 189 0 125
+ 10.438906 1 5 sctp 1500 -------D 0 1.0 5.0 1 127 190 0 126
+ 10.438906 1 5 sctp 1500 -------D 0 1.0 5.0 1 128 191 0 127
- 10.438906 1 5 sctp 1500 -------D 0 1.0 5.0 1 115 178 0 114