+ 0.5 0 1 sctp 60 -------I 0 0.0 1.0 1 -1 2 65535 65535
- 0.5 0 1 sctp 60 -------I 0 0.0 1.0 1 -1 2 65535 65535
r 0.70096 0 1 sctp 60 -------I 0 0.0 1.0 1 -1 2 65535 65535
+ 0.70096 1 0 sctp 56 -------I 0 1.0 0.0 1 -1 3 65535 65535
- 0.70096 1 0 sctp 56 -------I 0 1.0 0.0 1 -1 3 65535 65535
r 0.901856 1 0 sctp 56 -------I 0 1.0 0.0 1 -1 3 65535 65535
+ 0.901856 0 1 sctp 36 -------I 0 0.0 1.0 1 -1 4 65535 65535
- 0.901856 0 1 sctp 36 -------I 0 0.0 1.0 1 -1 4 65535 65535
r 1.102432 0 1 sctp 36 -------I 0 0.0 1.0 1 -1 4 65535 65535
+ 1.102432 1 0 sctp 36 -------I 0 1.0 0.0 1 -1 5 65535 65535
- 1.102432 1 0 sctp 36 -------I 0 1.0 0.0 1 -1 5 65535 65535
r 1.303008 1 0 sctp 36 -------I 0 1.0 0.0 1 -1 5 65535 65535
+ 1.303008 0 1 sctp 56 -------H 0 0.0 1.0 1 -1 6 65535 65535
- 1.303008 0 1 sctp 56 -------H 0 0.0 1.0 1 -1 6 65535 65535
r 1.503904 0 1 sctp 56 -------H 0 0.0 1.0 1 -1 6 65535 65535
+ 1.503904 1 0 sctp 56 -------B 0 1.0 0.0 1 -1 7 65535 65535
- 1.503904 1 0 sctp 56 -------B 0 1.0 0.0 1 -1 7 65535 65535
r 1.7048 1 0 sctp 56 -------B 0 1.0 0.0 1 -1 7 65535 65535
+ 1.7048 0 1 sctp 1500 -------D 0 0.0 1.0 1 1 8 0 0
- 1.7048 0 1 sctp 1500 -------D 0 0.0 1.0 1 1 8 0 0
+ 1.7048 0 1 sctp 1500 -------D 0 0.0 1.0 1 2 9 0 1
+ 1.7048 0 1 sctp 1500 -------D 0 0.0 1.0 1 3 10 0 2
- 1.7288 0 1 sctp 1500 -------D 0 0.0 1.0 1 2 9 0 1
- 1.7528 0 1 sctp 1500 -------D 0 0.0 1.0 1 3 10 0 2
r 1.9288 0 1 sctp 1500 -------D 0 0.0 1.0 1 1 8 0 0
+ 1.9288 1 0 sctp 48 -------S 0 1.0 0.0 1 1 11 65535 65535
- 1.9288 1 0 sctp 48 -------S 0 1.0 0.0 1 1 11 65535 65535
r 1.9528 0 1 sctp 1500 -------D 0 0.0 1.0 1 2 9 0 1
r 1.9768 0 1 sctp 1500 -------D 0 0.0 1.0 1 3 10 0 2
+ 1.9768 1 0 sctp 48 -------S 0 1.0 0.0 1 3 12 65535 65535
- 1.9768 1 0 sctp 48 -------S 0 1.0 0.0 1 3 12 65535 65535
r 2.129568 1 0 sctp 48 -------S 0 1.0 0.0 1 1 11 65535 65535
+ 2.129568 0 1 sctp 1500 -------D 0 0.0 1.0 1 4 13 0 3
- 2.129568 0 1 sctp 1500 -------D 0 0.0 1.0 1 4 13 0 3
+ 2.129568 0 1 sctp 1500 -------D 0 0.0 1.0 1 5 14 0 4
- 2.153568 0 1 sctp 1500 -------D 0 0.0 1.0 1 5 14 0 4
r 2.177568 1 0 sctp 48 -------S 0 1.0 0.0 1 3 12 65535 65535
+ 2.177568 0 1 sctp 1500 -------D 0 0.0 1.0 1 6 15 0 5
+ 2.177568 0 1 sctp 1500 -------D 0 0.0 1.0 1 7 16 0 6
+ 2.177568 0 1 sctp 1500 -------D 0 0.0 1.0 1 8 17 0 7
- 2.177568 0 1 sctp 1500 -------D 0 0.0 1.0 1 6 15 0 5
- 2.201568 0 1 sctp 1500 -------D 0 0.0 1.0 1 7 16 0 6
- 2.225568 0 1 sctp 1500 -------D 0 0.0 1.0 1 8 17 0 7
r 2.353568 0 1 sctp 1500 -------D 0 0.0 1.0 1 4 13 0 3
r 2.377568 0 1 sctp 1500 -------D 0 0.0 1.0 1 5 14 0 4
+ 2.377568 1 0 sctp 48 -------S 0 1.0 0.0 1 5 18 65535 65535
- 2.377568 1 0 sctp 48 -------S 0 1.0 0.0 1 5 18 65535 65535
r 2.401568 0 1 sctp 1500 -------D 0 0.0 1.0 1 6 15 0 5
r 2.425568 0 1 sctp 1500 -------D 0 0.0 1.0 1 7 16 0 6
+ 2.425568 1 0 sctp 48 -------S 0 1.0 0.0 1 7 19 65535 65535
- 2.425568 1 0 sctp 48 -------S 0 1.0 0.0 1 7 19 65535 65535
r 2.449568 0 1 sctp 1500 -------D 0 0.0 1.0 1 8 17 0 7
r 2.578336 1 0 sctp 48 -------S 0 1.0 0.0 1 5 18 65535 65535
+ 2.578336 0 1 sctp 1500 -------D 0 0.0 1.0 1 9 20 0 8
- 2.578336 0 1 sctp 1500 -------D 0 0.0 1.0 1 9 20 0 8
+ 2.578336 0 1 sctp 1500 -------D 0 0.0 1.0 1 10 21 0 9
+ 2.578336 0 1 sctp 1500 -------D 0 0.0 1.0 1 11 22 0 10
- 2.602336 0 1 sctp 1500 -------D 0 0.0 1.0 1 10 21 0 9
r 2.626336 1 0 sctp 48 -------S 0 1.0 0.0 1 7 19 65535 65535
+ 2.626336 0 1 sctp 1500 -------D 0 0.0 1.0 1 12 23 0 11
+ 2.626336 0 1 sctp 1500 -------D 0 0.0 1.0 1 13 24 0 12
d 2.626336 0 1 sctp 1500 -------D 0 0.0 1.0 1 14 25 0 13
- 2.626336 0 1 sctp 1500 -------D 0 0.0 1.0 1 11 22 0 10
+ 2.649568 1 0 sctp 48 -------S 0 1.0 0.0 1 8 26 65535 65535
- 2.649568 1 0 sctp 48 -------S 0 1.0 0.0 1 8 26 65535 65535
- 2.650336 0 1 sctp 1500 -------D 0 0.0 1.0 1 12 23 0 11
- 2.674336 0 1 sctp 1500 -------D 0 0.0 1.0 1 13 24 0 12
r 2.802336 0 1 sctp 1500 -------D 0 0.0 1.0 1 9 20 0 8
r 2.826336 0 1 sctp 1500 -------D 0 0.0 1.0 1 10 21 0 9
+ 2.826336 1 0 sctp 48 -------S 0 1.0 0.0 1 10 27 65535 65535
- 2.826336 1 0 sctp 48 -------S 0 1.0 0.0 1 10 27 65535 65535
r 2.850336 0 1 sctp 1500 -------D 0 0.0 1.0 1 11 22 0 10
r 2.850336 1 0 sctp 48 -------S 0 1.0 0.0 1 8 26 65535 65535
+ 2.850336 0 1 sctp 1500 -------D 0 0.0 1.0 1 15 28 0 14
- 2.850336 0 1 sctp 1500 -------D 0 0.0 1.0 1 15 28 0 14
+ 2.850336 0 1 sctp 1500 -------D 0 0.0 1.0 1 16 29 0 15
r 2.874336 0 1 sctp 1500 -------D 0 0.0 1.0 1 12 23 0 11
+ 2.874336 1 0 sctp 48 -------S 0 1.0 0.0 1 12 30 65535 65535
- 2.874336 1 0 sctp 48 -------S 0 1.0 0.0 1 12 30 65535 65535
- 2.874336 0 1 sctp 1500 -------D 0 0.0 1.0 1 16 29 0 15
r 2.898336 0 1 sctp 1500 -------D 0 0.0 1.0 1 13 24 0 12
r 3.027104 1 0 sctp 48 -------S 0 1.0 0.0 1 10 27 65535 65535
+ 3.027104 0 1 sctp 1500 -------D 0 0.0 1.0 1 17 31 0 16
- 3.027104 0 1 sctp 1500 -------D 0 0.0 1.0 1 17 31 0 16
+ 3.027104 0 1 sctp 1500 -------D 0 0.0 1.0 1 18 32 0 17
+ 3.027104 0 1 sctp 1500 -------D 0 0.0 1.0 1 19 33 0 18
- 3.051104 0 1 sctp 1500 -------D 0 0.0 1.0 1 18 32 0 17
r 3.074336 0 1 sctp 1500 -------D 0 0.0 1.0 1 15 28 0 14
+ 3.074336 1 0 sctp 52 -------S 0 1.0 0.0 1 13 34 65535 65535
- 3.074336 1 0 sctp 52 -------S 0 1.0 0.0 1 13 34 65535 65535
r 3.075104 1 0 sctp 48 -------S 0 1.0 0.0 1 12 30 65535 65535
+ 3.075104 0 1 sctp 1500 -------D 0 0.0 1.0 1 20 35 0 19
+ 3.075104 0 1 sctp 1500 -------D 0 0.0 1.0 1 21 36 0 20
+ 3.075104 0 1 sctp 1500 -------D 0 0.0 1.0 1 22 37 0 21
- 3.075104 0 1 sctp 1500 -------D 0 0.0 1.0 1 19 33 0 18
r 3.098336 0 1 sctp 1500 -------D 0 0.0 1.0 1 16 29 0 15
+ 3.098336 1 0 sctp 52 -------S 0 1.0 0.0 1 13 38 65535 65535
- 3.098336 1 0 sctp 52 -------S 0 1.0 0.0 1 13 38 65535 65535
- 3.099104 0 1 sctp 1500 -------D 0 0.0 1.0 1 20 35 0 19
- 3.123104 0 1 sctp 1500 -------D 0 0.0 1.0 1 21 36 0 20
- 3.147104 0 1 sctp 1500 -------D 0 0.0 1.0 1 22 37 0 21
r 3.251104 0 1 sctp 1500 -------D 0 0.0 1.0 1 17 31 0 16
+ 3.251104 1 0 sctp 52 -------S 0 1.0 0.0 1 13 39 65535 65535
- 3.251104 1 0 sctp 52 -------S 0 1.0 0.0 1 13 39 65535 65535
r 3.275104 0 1 sctp 1500 -------D 0 0.0 1.0 1 18 32 0 17
+ 3.275104 1 0 sctp 52 -------S 0 1.0 0.0 1 13 40 65535 65535
- 3.275104 1 0 sctp 52 -------S 0 1.0 0.0 1 13 40 65535 65535
r 3.275168 1 0 sctp 52 -------S 0 1.0 0.0 1 13 34 65535 65535
+ 3.275168 0 1 sctp 1500 -------D 0 0.0 1.0 1 23 41 0 22
- 3.275168 0 1 sctp 1500 -------D 0 0.0 1.0 1 23 41 0 22
+ 3.275168 0 1 sctp 1500 -------D 0 0.0 1.0 1 24 42 0 23
+ 3.275168 0 1 sctp 1500 -------D 0 0.0 1.0 1 25 43 0 24
r 3.299104 0 1 sctp 1500 -------D 0 0.0 1.0 1 19 33 0 18
+ 3.299104 1 0 sctp 52 -------S 0 1.0 0.0 1 13 44 65535 65535
- 3.299104 1 0 sctp 52 -------S 0 1.0 0.0 1 13 44 65535 65535
r 3.299168 1 0 sctp 52 -------S 0 1.0 0.0 1 13 38 65535 65535
+ 3.299168 0 1 sctp 1500 -------D 0 0.0 1.0 1 26 45 0 25
- 3.299168 0 1 sctp 1500 -------D 0 0.0 1.0 1 24 42 0 23
r 3.323104 0 1 sctp 1500 -------D 0 0.0 1.0 1 20 35 0 19
+ 3.323104 1 0 sctp 52 -------S 0 1.0 0.0 1 13 46 65535 65535
- 3.323104 1 0 sctp 52 -------S 0 1.0 0.0 1 13 46 65535 65535
- 3.323168 0 1 sctp 1500 -------D 0 0.0 1.0 1 25 43 0 24
r 3.347104 0 1 sctp 1500 -------D 0 0.0 1.0 1 21 36 0 20
+ 3.347104 1 0 sctp 52 -------S 0 1.0 0.0 1 13 47 65535 65535
- 3.347104 1 0 sctp 52 -------S 0 1.0 0.0 1 13 47 65535 65535
- 3.347168 0 1 sctp 1500 -------D 0 0.0 1.0 1 26 45 0 25
r 3.371104 0 1 sctp 1500 -------D 0 0.0 1.0 1 22 37 0 21
+ 3.371104 1 0 sctp 52 -------S 0 1.0 0.0 1 13 48 65535 65535
- 3.371104 1 0 sctp 52 -------S 0 1.0 0.0 1 13 48 65535 65535
r 3.451936 1 0 sctp 52 -------S 0 1.0 0.0 1 13 39 65535 65535
d 3.451936 0 1 sctp 1500 -------D 0 0.0 1.0 1 14 49 0 13
r 3.475936 1 0 sctp 52 -------S 0 1.0 0.0 1 13 40 65535 65535
r 3.499168 0 1 sctp 1500 -------D 0 0.0 1.0 1 23 41 0 22
+ 3.499168 1 0 sctp 52 -------S 0 1.0 0.0 1 13 50 65535 65535
- 3.499168 1 0 sctp 52 -------S 0 1.0 0.0 1 13 50 65535 65535
r 3.499936 1 0 sctp 52 -------S 0 1.0 0.0 1 13 44 65535 65535
r 3.523168 0 1 sctp 1500 -------D 0 0.0 1.0 1 24 42 0 23
+ 3.523168 1 0 sctp 52 -------S 0 1.0 0.0 1 13 51 65535 65535
- 3.523168 1 0 sctp 52 -------S 0 1.0 0.0 1 13 51 65535 65535
r 3.523936 1 0 sctp 52 -------S 0 1.0 0.0 1 13 46 65535 65535
r 3.547168 0 1 sctp 1500 -------D 0 0.0 1.0 1 25 43 0 24
+ 3.547168 1 0 sctp 52 -------S 0 1.0 0.0 1 13 52 65535 65535
- 3.547168 1 0 sctp 52 -------S 0 1.0 0.0 1 13 52 65535 65535
r 3.547936 1 0 sctp 52 -------S 0 1.0 0.0 1 13 47 65535 65535
r 3.571168 0 1 sctp 1500 -------D 0 0.0 1.0 1 26 45 0 25
+ 3.571168 1 0 sctp 52 -------S 0 1.0 0.0 1 13 53 65535 65535
- 3.571168 1 0 sctp 52 -------S 0 1.0 0.0 1 13 53 65535 65535
r 3.571936 1 0 sctp 52 -------S 0 1.0 0.0 1 13 48 65535 65535
+ 3.571936 0 1 sctp 1500 -------D 0 0.0 1.0 1 27 54 0 26
- 3.571936 0 1 sctp 1500 -------D 0 0.0 1.0 1 27 54 0 26
r 3.7 1 0 sctp 52 -------S 0 1.0 0.0 1 13 50 65535 65535
+ 3.7 0 1 sctp 1500 -------D 0 0.0 1.0 1 28 55 0 27
- 3.7 0 1 sctp 1500 -------D 0 0.0 1.0 1 28 55 0 27
r 3.724 1 0 sctp 52 -------S 0 1.0 0.0 1 13 51 65535 65535
+ 3.724 0 1 sctp 1500 -------D 0 0.0 1.0 1 29 56 0 28
- 3.724 0 1 sctp 1500 -------D 0 0.0 1.0 1 29 56 0 28
r 3.748 1 0 sctp 52 -------S 0 1.0 0.0 1 13 52 65535 65535
+ 3.748 0 1 sctp 1500 -------D 0 0.0 1.0 1 30 57 0 29
- 3.748 0 1 sctp 1500 -------D 0 0.0 1.0 1 30 57 0 29
r 3.772 1 0 sctp 52 -------S 0 1.0 0.0 1 13 53 65535 65535
+ 3.772 0 1 sctp 1500 -------D 0 0.0 1.0 1 31 58 0 30
- 3.772 0 1 sctp 1500 -------D 0 0.0 1.0 1 31 58 0 30
r 3.795936 0 1 sctp 1500 -------D 0 0.0 1.0 1 27 54 0 26
+ 3.795936 1 0 sctp 52 -------S 0 1.0 0.0 1 13 59 65535 65535
- 3.795936 1 0 sctp 52 -------S 0 1.0 0.0 1 13 59 65535 65535
r 3.924 0 1 sctp 1500 -------D 0 0.0 1.0 1 28 55 0 27
+ 3.924 1 0 sctp 52 -------S 0 1.0 0.0 1 13 60 65535 65535
- 3.924 1 0 sctp 52 -------S 0 1.0 0.0 1 13 60 65535 65535
r 3.948 0 1 sctp 1500 -------D 0 0.0 1.0 1 29 56 0 28
+ 3.948 1 0 sctp 52 -------S 0 1.0 0.0 1 13 61 65535 65535
- 3.948 1 0 sctp 52 -------S 0 1.0 0.0 1 13 61 65535 65535
r 3.972 0 1 sctp 1500 -------D 0 0.0 1.0 1 30 57 0 29
+ 3.972 1 0 sctp 52 -------S 0 1.0 0.0 1 13 62 65535 65535
- 3.972 1 0 sctp 52 -------S 0 1.0 0.0 1 13 62 65535 65535
r 3.996 0 1 sctp 1500 -------D 0 0.0 1.0 1 31 58 0 30
+ 3.996 1 0 sctp 52 -------S 0 1.0 0.0 1 13 63 65535 65535
- 3.996 1 0 sctp 52 -------S 0 1.0 0.0 1 13 63 65535 65535
r 3.996768 1 0 sctp 52 -------S 0 1.0 0.0 1 13 59 65535 65535
+ 3.996768 0 1 sctp 1500 -------D 0 0.0 1.0 1 32 64 0 31
- 3.996768 0 1 sctp 1500 -------D 0 0.0 1.0 1 32 64 0 31
r 4.124832 1 0 sctp 52 -------S 0 1.0 0.0 1 13 60 65535 65535
+ 4.124832 0 1 sctp 1500 -------D 0 0.0 1.0 1 33 65 0 32
- 4.124832 0 1 sctp 1500 -------D 0 0.0 1.0 1 33 65 0 32
r 4.148832 1 0 sctp 52 -------S 0 1.0 0.0 1 13 61 65535 65535
+ 4.148832 0 1 sctp 1500 -------D 0 0.0 1.0 1 34 66 0 33
- 4.148832 0 1 sctp 1500 -------D 0 0.0 1.0 1 34 66 0 33
r 4.172832 1 0 sctp 52 -------S 0 1.0 0.0 1 13 62 65535 65535
+ 4.172832 0 1 sctp 1500 -------D 0 0.0 1.0 1 35 67 0 34
- 4.172832 0 1 sctp 1500 -------D 0 0.0 1.0 1 35 67 0 34
r 4.196832 1 0 sctp 52 -------S 0 1.0 0.0 1 13 63 65535 65535
+ 4.196832 0 1 sctp 1500 -------D 0 0.0 1.0 1 36 68 0 35
- 4.196832 0 1 sctp 1500 -------D 0 0.0 1.0 1 36 68 0 35
r 4.220768 0 1 sctp 1500 -------D 0 0.0 1.0 1 32 64 0 31
+ 4.220768 1 0 sctp 52 -------S 0 1.0 0.0 1 13 69 65535 65535
- 4.220768 1 0 sctp 52 -------S 0 1.0 0.0 1 13 69 65535 65535
r 4.348832 0 1 sctp 1500 -------D 0 0.0 1.0 1 33 65 0 32
+ 4.348832 1 0 sctp 52 -------S 0 1.0 0.0 1 13 70 65535 65535
- 4.348832 1 0 sctp 52 -------S 0 1.0 0.0 1 13 70 65535 65535
r 4.372832 0 1 sctp 1500 -------D 0 0.0 1.0 1 34 66 0 33
+ 4.372832 1 0 sctp 52 -------S 0 1.0 0.0 1 13 71 65535 65535
- 4.372832 1 0 sctp 52 -------S 0 1.0 0.0 1 13 71 65535 65535
r 4.396832 0 1 sctp 1500 -------D 0 0.0 1.0 1 35 67 0 34
+ 4.396832 1 0 sctp 52 -------S 0 1.0 0.0 1 13 72 65535 65535
- 4.396832 1 0 sctp 52 -------S 0 1.0 0.0 1 13 72 65535 65535
r 4.420832 0 1 sctp 1500 -------D 0 0.0 1.0 1 36 68 0 35
+ 4.420832 1 0 sctp 52 -------S 0 1.0 0.0 1 13 73 65535 65535
- 4.420832 1 0 sctp 52 -------S 0 1.0 0.0 1 13 73 65535 65535
r 4.4216 1 0 sctp 52 -------S 0 1.0 0.0 1 13 69 65535 65535
+ 4.4216 0 1 sctp 1500 -------D 0 0.0 1.0 1 37 74 0 36
- 4.4216 0 1 sctp 1500 -------D 0 0.0 1.0 1 37 74 0 36
+ 4.451936 0 1 sctp 1500 -------D 0 0.0 1.0 1 33 75 0 32
- 4.451936 0 1 sctp 1500 -------D 0 0.0 1.0 1 33 75 0 32
r 4.549664 1 0 sctp 52 -------S 0 1.0 0.0 1 13 70 65535 65535
+ 4.549664 0 1 sctp 1500 -------D 0 0.0 1.0 1 34 76 0 33
- 4.549664 0 1 sctp 1500 -------D 0 0.0 1.0 1 34 76 0 33
+ 4.549664 0 1 sctp 40 -------R 0 0.0 1.0 1 33 77 65535 65535
r 4.573664 1 0 sctp 52 -------S 0 1.0 0.0 1 13 71 65535 65535
+ 4.573664 0 1 sctp 1500 -------D 0 0.0 1.0 1 35 78 0 34
+ 4.573664 0 1 sctp 40 -------R 0 0.0 1.0 1 34 79 65535 65535
- 4.573664 0 1 sctp 40 -------R 0 0.0 1.0 1 33 77 65535 65535
- 4.574304 0 1 sctp 1500 -------D 0 0.0 1.0 1 35 78 0 34
r 4.597664 1 0 sctp 52 -------S 0 1.0 0.0 1 13 72 65535 65535
+ 4.597664 0 1 sctp 1500 -------D 0 0.0 1.0 1 36 80 0 35
+ 4.597664 0 1 sctp 40 -------R 0 0.0 1.0 1 35 81 65535 65535
- 4.598304 0 1 sctp 40 -------R 0 0.0 1.0 1 34 79 65535 65535
- 4.598944 0 1 sctp 1500 -------D 0 0.0 1.0 1 36 80 0 35
r 4.621664 1 0 sctp 52 -------S 0 1.0 0.0 1 13 73 65535 65535
+ 4.621664 0 1 sctp 1500 -------D 0 0.0 1.0 1 37 82 0 36
+ 4.621664 0 1 sctp 40 -------R 0 0.0 1.0 1 36 83 65535 65535
- 4.622944 0 1 sctp 40 -------R 0 0.0 1.0 1 35 81 65535 65535
- 4.623584 0 1 sctp 1500 -------D 0 0.0 1.0 1 37 82 0 36
r 4.6456 0 1 sctp 1500 -------D 0 0.0 1.0 1 37 74 0 36
+ 4.6456 1 0 sctp 52 -------S 0 1.0 0.0 1 13 84 65535 65535
- 4.6456 1 0 sctp 52 -------S 0 1.0 0.0 1 13 84 65535 65535
- 4.647584 0 1 sctp 40 -------R 0 0.0 1.0 1 36 83 65535 65535
r 4.675936 0 1 sctp 1500 -------D 0 0.0 1.0 1 33 75 0 32
+ 4.675936 1 0 sctp 56 -------S 0 1.0 0.0 1 13 85 65535 65535
- 4.675936 1 0 sctp 56 -------S 0 1.0 0.0 1 13 85 65535 65535
r 4.773664 0 1 sctp 1500 -------D 0 0.0 1.0 1 34 76 0 33
+ 4.773664 1 0 sctp 56 -------S 0 1.0 0.0 1 13 86 65535 65535
- 4.773664 1 0 sctp 56 -------S 0 1.0 0.0 1 13 86 65535 65535
r 4.774304 0 1 sctp 40 -------R 0 0.0 1.0 1 33 77 65535 65535
r 4.798304 0 1 sctp 1500 -------D 0 0.0 1.0 1 35 78 0 34
+ 4.798304 1 0 sctp 52 -------S 0 1.0 0.0 1 37 87 65535 65535
- 4.798304 1 0 sctp 52 -------S 0 1.0 0.0 1 37 87 65535 65535
r 4.798944 0 1 sctp 40 -------R 0 0.0 1.0 1 34 79 65535 65535
r 4.822944 0 1 sctp 1500 -------D 0 0.0 1.0 1 36 80 0 35
+ 4.822944 1 0 sctp 52 -------S 0 1.0 0.0 1 37 88 65535 65535
- 4.822944 1 0 sctp 52 -------S 0 1.0 0.0 1 37 88 65535 65535
r 4.823584 0 1 sctp 40 -------R 0 0.0 1.0 1 35 81 65535 65535
r 4.846432 1 0 sctp 52 -------S 0 1.0 0.0 1 13 84 65535 65535
+ 4.846432 0 1 sctp 40 -------R 0 0.0 1.0 1 37 89 65535 65535
- 4.846432 0 1 sctp 40 -------R 0 0.0 1.0 1 37 89 65535 65535
+ 4.846432 0 1 sctp 1500 -------D 0 0.0 1.0 1 38 90 0 37
- 4.847072 0 1 sctp 1500 -------D 0 0.0 1.0 1 38 90 0 37
r 4.847584 0 1 sctp 1500 -------D 0 0.0 1.0 1 37 82 0 36
+ 4.847584 1 0 sctp 52 -------S 0 1.0 0.0 1 37 91 65535 65535
- 4.847584 1 0 sctp 52 -------S 0 1.0 0.0 1 37 91 65535 65535
r 4.848224 0 1 sctp 40 -------R 0 0.0 1.0 1 36 83 65535 65535
r 4.876832 1 0 sctp 56 -------S 0 1.0 0.0 1 13 85 65535 65535
+ 4.876832 0 1 sctp 40 -------R 0 0.0 1.0 1 37 92 65535 65535
- 4.876832 0 1 sctp 40 -------R 0 0.0 1.0 1 37 92 65535 65535
r 4.97456 1 0 sctp 56 -------S 0 1.0 0.0 1 13 86 65535 65535
+ 4.97456 0 1 sctp 40 -------R 0 0.0 1.0 1 37 93 65535 65535
- 4.97456 0 1 sctp 40 -------R 0 0.0 1.0 1 37 93 65535 65535
r 4.999136 1 0 sctp 52 -------S 0 1.0 0.0 1 37 87 65535 65535
r 5.023776 1 0 sctp 52 -------S 0 1.0 0.0 1 37 88 65535 65535
r 5.047072 0 1 sctp 40 -------R 0 0.0 1.0 1 37 89 65535 65535
+ 5.047584 1 0 sctp 48 -------S 0 1.0 0.0 1 37 94 65535 65535
- 5.047584 1 0 sctp 48 -------S 0 1.0 0.0 1 37 94 65535 65535
r 5.048416 1 0 sctp 52 -------S 0 1.0 0.0 1 37 91 65535 65535
r 5.071072 0 1 sctp 1500 -------D 0 0.0 1.0 1 38 90 0 37
r 5.077472 0 1 sctp 40 -------R 0 0.0 1.0 1 37 92 65535 65535
r 5.1752 0 1 sctp 40 -------R 0 0.0 1.0 1 37 93 65535 65535
r 5.248352 1 0 sctp 48 -------S 0 1.0 0.0 1 37 94 65535 65535
+ 5.271072 1 0 sctp 48 -------S 0 1.0 0.0 1 38 95 65535 65535
- 5.271072 1 0 sctp 48 -------S 0 1.0 0.0 1 38 95 65535 65535
r 5.47184 1 0 sctp 48 -------S 0 1.0 0.0 1 38 95 65535 65535
+ 5.47184 0 1 sctp 1500 -------D 0 0.0 1.0 1 39 96 0 38
- 5.47184 0 1 sctp 1500 -------D 0 0.0 1.0 1 39 96 0 38
+ 5.47184 0 1 sctp 1500 -------D 0 0.0 1.0 1 40 97 0 39
- 5.49584 0 1 sctp 1500 -------D 0 0.0 1.0 1 40 97 0 39
r 5.69584 0 1 sctp 1500 -------D 0 0.0 1.0 1 39 96 0 38
r 5.71984 0 1 sctp 1500 -------D 0 0.0 1.0 1 40 97 0 39
+ 5.71984 1 0 sctp 48 -------S 0 1.0 0.0 1 40 98 65535 65535
- 5.71984 1 0 sctp 48 -------S 0 1.0 0.0 1 40 98 65535 65535
r 5.920608 1 0 sctp 48 -------S 0 1.0 0.0 1 40 98 65535 65535
+ 5.920608 0 1 sctp 1500 -------D 0 0.0 1.0 1 41 99 0 40
- 5.920608 0 1 sctp 1500 -------D 0 0.0 1.0 1 41 99 0 40
+ 5.920608 0 1 sctp 1500 -------D 0 0.0 1.0 1 42 100 0 41
+ 5.920608 0 1 sctp 1500 -------D 0 0.0 1.0 1 43 101 0 42
- 5.944608 0 1 sctp 1500 -------D 0 0.0 1.0 1 42 100 0 41
- 5.968608 0 1 sctp 1500 -------D 0 0.0 1.0 1 43 101 0 42
r 6.144608 0 1 sctp 1500 -------D 0 0.0 1.0 1 41 99 0 40
r 6.168608 0 1 sctp 1500 -------D 0 0.0 1.0 1 42 100 0 41
+ 6.168608 1 0 sctp 48 -------S 0 1.0 0.0 1 42 102 65535 65535
- 6.168608 1 0 sctp 48 -------S 0 1.0 0.0 1 42 102 65535 65535
r 6.192608 0 1 sctp 1500 -------D 0 0.0 1.0 1 43 101 0 42
r 6.369376 1 0 sctp 48 -------S 0 1.0 0.0 1 42 102 65535 65535
+ 6.369376 0 1 sctp 1500 -------D 0 0.0 1.0 1 44 103 0 43
- 6.369376 0 1 sctp 1500 -------D 0 0.0 1.0 1 44 103 0 43
+ 6.369376 0 1 sctp 1500 -------D 0 0.0 1.0 1 45 104 0 44
+ 6.369376 0 1 sctp 1500 -------D 0 0.0 1.0 1 46 105 0 45
+ 6.392608 1 0 sctp 48 -------S 0 1.0 0.0 1 43 106 65535 65535
- 6.392608 1 0 sctp 48 -------S 0 1.0 0.0 1 43 106 65535 65535
- 6.393376 0 1 sctp 1500 -------D 0 0.0 1.0 1 45 104 0 44
- 6.417376 0 1 sctp 1500 -------D 0 0.0 1.0 1 46 105 0 45
r 6.593376 0 1 sctp 1500 -------D 0 0.0 1.0 1 44 103 0 43
r 6.593376 1 0 sctp 48 -------S 0 1.0 0.0 1 43 106 65535 65535
+ 6.593376 0 1 sctp 1500 -------D 0 0.0 1.0 1 47 107 0 46
- 6.593376 0 1 sctp 1500 -------D 0 0.0 1.0 1 47 107 0 46
+ 6.593376 0 1 sctp 1500 -------D 0 0.0 1.0 1 48 108 0 47
r 6.617376 0 1 sctp 1500 -------D 0 0.0 1.0 1 45 104 0 44
+ 6.617376 1 0 sctp 48 -------S 0 1.0 0.0 1 45 109 65535 65535
- 6.617376 1 0 sctp 48 -------S 0 1.0 0.0 1 45 109 65535 65535
- 6.617376 0 1 sctp 1500 -------D 0 0.0 1.0 1 48 108 0 47
r 6.641376 0 1 sctp 1500 -------D 0 0.0 1.0 1 46 105 0 45
r 6.817376 0 1 sctp 1500 -------D 0 0.0 1.0 1 47 107 0 46
+ 6.817376 1 0 sctp 48 -------S 0 1.0 0.0 1 47 110 65535 65535
- 6.817376 1 0 sctp 48 -------S 0 1.0 0.0 1 47 110 65535 65535
r 6.818144 1 0 sctp 48 -------S 0 1.0 0.0 1 45 109 65535 65535
+ 6.818144 0 1 sctp 1500 -------D 0 0.0 1.0 1 49 111 0 48
- 6.818144 0 1 sctp 1500 -------D 0 0.0 1.0 1 49 111 0 48
+ 6.818144 0 1 sctp 1500 -------D 0 0.0 1.0 1 50 112 0 49
r 6.841376 0 1 sctp 1500 -------D 0 0.0 1.0 1 48 108 0 47
- 6.842144 0 1 sctp 1500 -------D 0 0.0 1.0 1 50 112 0 49
r 7.018144 1 0 sctp 48 -------S 0 1.0 0.0 1 47 110 65535 65535
+ 7.018144 0 1 sctp 1500 -------D 0 0.0 1.0 1 51 113 0 50
- 7.018144 0 1 sctp 1500 -------D 0 0.0 1.0 1 51 113 0 50
+ 7.018144 0 1 sctp 1500 -------D 0 0.0 1.0 1 52 114 0 51
+ 7.041376 1 0 sctp 48 -------S 0 1.0 0.0 1 48 115 65535 65535
- 7.041376 1 0 sctp 48 -------S 0 1.0 0.0 1 48 115 65535 65535
r 7.042144 0 1 sctp 1500 -------D 0 0.0 1.0 1 49 111 0 48
- 7.042144 0 1 sctp 1500 -------D 0 0.0 1.0 1 52 114 0 51
r 7.066144 0 1 sctp 1500 -------D 0 0.0 1.0 1 50 112 0 49
+ 7.066144 1 0 sctp 48 -------S 0 1.0 0.0 1 50 116 65535 65535
- 7.066144 1 0 sctp 48 -------S 0 1.0 0.0 1 50 116 65535 65535
r 7.242144 0 1 sctp 1500 -------D 0 0.0 1.0 1 51 113 0 50
r 7.242144 1 0 sctp 48 -------S 0 1.0 0.0 1 48 115 65535 65535
+ 7.242144 0 1 sctp 1500 -------D 0 0.0 1.0 1 53 117 0 52
- 7.242144 0 1 sctp 1500 -------D 0 0.0 1.0 1 53 117 0 52
+ 7.242144 0 1 sctp 1500 -------D 0 0.0 1.0 1 54 118 0 53
r 7.266144 0 1 sctp 1500 -------D 0 0.0 1.0 1 52 114 0 51
+ 7.266144 1 0 sctp 48 -------S 0 1.0 0.0 1 52 119 65535 65535
- 7.266144 1 0 sctp 48 -------S 0 1.0 0.0 1 52 119 65535 65535
- 7.266144 0 1 sctp 1500 -------D 0 0.0 1.0 1 54 118 0 53
r 7.266912 1 0 sctp 48 -------S 0 1.0 0.0 1 50 116 65535 65535
+ 7.266912 0 1 sctp 1500 -------D 0 0.0 1.0 1 55 120 0 54
+ 7.266912 0 1 sctp 1500 -------D 0 0.0 1.0 1 56 121 0 55
- 7.290144 0 1 sctp 1500 -------D 0 0.0 1.0 1 55 120 0 54
- 7.314144 0 1 sctp 1500 -------D 0 0.0 1.0 1 56 121 0 55
r 7.466144 0 1 sctp 1500 -------D 0 0.0 1.0 1 53 117 0 52
r 7.466912 1 0 sctp 48 -------S 0 1.0 0.0 1 52 119 65535 65535
+ 7.466912 0 1 sctp 1500 -------D 0 0.0 1.0 1 57 122 0 56
- 7.466912 0 1 sctp 1500 -------D 0 0.0 1.0 1 57 122 0 56
+ 7.466912 0 1 sctp 1500 -------D 0 0.0 1.0 1 58 123 0 57
r 7.490144 0 1 sctp 1500 -------D 0 0.0 1.0 1 54 118 0 53
+ 7.490144 1 0 sctp 48 -------S 0 1.0 0.0 1 54 124 65535 65535
- 7.490144 1 0 sctp 48 -------S 0 1.0 0.0 1 54 124 65535 65535
- 7.490912 0 1 sctp 1500 -------D 0 0.0 1.0 1 58 123 0 57
r 7.514144 0 1 sctp 1500 -------D 0 0.0 1.0 1 55 120 0 54
r 7.538144 0 1 sctp 1500 -------D 0 0.0 1.0 1 56 121 0 55
+ 7.538144 1 0 sctp 48 -------S 0 1.0 0.0 1 56 125 65535 65535
- 7.538144 1 0 sctp 48 -------S 0 1.0 0.0 1 56 125 65535 65535
r 7.690912 0 1 sctp 1500 -------D 0 0.0 1.0 1 57 122 0 56
r 7.690912 1 0 sctp 48 -------S 0 1.0 0.0 1 54 124 65535 65535
+ 7.690912 0 1 sctp 1500 -------D 0 0.0 1.0 1 59 126 0 58
- 7.690912 0 1 sctp 1500 -------D 0 0.0 1.0 1 59 126 0 58
+ 7.690912 0 1 sctp 1500 -------D 0 0.0 1.0 1 60 127 0 59
+ 7.690912 0 1 sctp 1500 -------D 0 0.0 1.0 1 61 128 0 60
r 7.714912 0 1 sctp 1500 -------D 0 0.0 1.0 1 58 123 0 57
+ 7.714912 1 0 sctp 48 -------S 0 1.0 0.0 1 58 129 65535 65535
- 7.714912 1 0 sctp 48 -------S 0 1.0 0.0 1 58 129 65535 65535
- 7.714912 0 1 sctp 1500 -------D 0 0.0 1.0 1 60 127 0 59
r 7.738912 1 0 sctp 48 -------S 0 1.0 0.0 1 56 125 65535 65535
+ 7.738912 0 1 sctp 1500 -------D 0 0.0 1.0 1 62 130 0 61
+ 7.738912 0 1 sctp 1500 -------D 0 0.0 1.0 1 63 131 0 62
- 7.738912 0 1 sctp 1500 -------D 0 0.0 1.0 1 61 128 0 60
- 7.762912 0 1 sctp 1500 -------D 0 0.0 1.0 1 62 130 0 61
- 7.786912 0 1 sctp 1500 -------D 0 0.0 1.0 1 63 131 0 62
r 7.914912 0 1 sctp 1500 -------D 0 0.0 1.0 1 59 126 0 58
r 7.91568 1 0 sctp 48 -------S 0 1.0 0.0 1 58 129 65535 65535
+ 7.91568 0 1 sctp 1500 -------D 0 0.0 1.0 1 64 132 0 63
- 7.91568 0 1 sctp 1500 -------D 0 0.0 1.0 1 64 132 0 63
+ 7.91568 0 1 sctp 1500 -------D 0 0.0 1.0 1 65 133 0 64
r 7.938912 0 1 sctp 1500 -------D 0 0.0 1.0 1 60 127 0 59
+ 7.938912 1 0 sctp 48 -------S 0 1.0 0.0 1 60 134 65535 65535
- 7.938912 1 0 sctp 48 -------S 0 1.0 0.0 1 60 134 65535 65535
- 7.93968 0 1 sctp 1500 -------D 0 0.0 1.0 1 65 133 0 64
r 7.962912 0 1 sctp 1500 -------D 0 0.0 1.0 1 61 128 0 60
r 7.986912 0 1 sctp 1500 -------D 0 0.0 1.0 1 62 130 0 61
+ 7.986912 1 0 sctp 48 -------S 0 1.0 0.0 1 62 135 65535 65535
- 7.986912 1 0 sctp 48 -------S 0 1.0 0.0 1 62 135 65535 65535
r 8.010912 0 1 sctp 1500 -------D 0 0.0 1.0 1 63 131 0 62
r 8.13968 0 1 sctp 1500 -------D 0 0.0 1.0 1 64 132 0 63
+ 8.13968 1 0 sctp 48 -------S 0 1.0 0.0 1 64 136 65535 65535
- 8.13968 1 0 sctp 48 -------S 0 1.0 0.0 1 64 136 65535 65535
r 8.13968 1 0 sctp 48 -------S 0 1.0 0.0 1 60 134 65535 65535
+ 8.13968 0 1 sctp 1500 -------D 0 0.0 1.0 1 66 137 0 65
- 8.13968 0 1 sctp 1500 -------D 0 0.0 1.0 1 66 137 0 65
+ 8.13968 0 1 sctp 1500 -------D 0 0.0 1.0 1 67 138 0 66
r 8.16368 0 1 sctp 1500 -------D 0 0.0 1.0 1 65 133 0 64
- 8.16368 0 1 sctp 1500 -------D 0 0.0 1.0 1 67 138 0 66
r 8.18768 1 0 sctp 48 -------S 0 1.0 0.0 1 62 135 65535 65535
+ 8.18768 0 1 sctp 1500 -------D 0 0.0 1.0 1 68 139 0 67
- 8.18768 0 1 sctp 1500 -------D 0 0.0 1.0 1 68 139 0 67
+ 8.18768 0 1 sctp 1500 -------D 0 0.0 1.0 1 69 140 0 68
+ 8.18768 0 1 sctp 1500 -------D 0 0.0 1.0 1 70 141 0 69
- 8.21168 0 1 sctp 1500 -------D 0 0.0 1.0 1 69 140 0 68
- 8.23568 0 1 sctp 1500 -------D 0 0.0 1.0 1 70 141 0 69
r 8.340448 1 0 sctp 48 -------S 0 1.0 0.0 1 64 136 65535 65535
+ 8.340448 0 1 sctp 1500 -------D 0 0.0 1.0 1 71 142 0 70
- 8.340448 0 1 sctp 1500 -------D 0 0.0 1.0 1 71 142 0 70
+ 8.340448 0 1 sctp 1500 -------D 0 0.0 1.0 1 72 143 0 71
+ 8.36368 1 0 sctp 48 -------S 0 1.0 0.0 1 65 144 65535 65535
- 8.36368 1 0 sctp 48 -------S 0 1.0 0.0 1 65 144 65535 65535
r 8.36368 0 1 sctp 1500 -------D 0 0.0 1.0 1 66 137 0 65
- 8.364448 0 1 sctp 1500 -------D 0 0.0 1.0 1 72 143 0 71
r 8.38768 0 1 sctp 1500 -------D 0 0.0 1.0 1 67 138 0 66
+ 8.38768 1 0 sctp 48 -------S 0 1.0 0.0 1 67 145 65535 65535
- 8.38768 1 0 sctp 48 -------S 0 1.0 0.0 1 67 145 65535 65535
r 8.41168 0 1 sctp 1500 -------D 0 0.0 1.0 1 68 139 0 67
r 8.43568 0 1 sctp 1500 -------D 0 0.0 1.0 1 69 140 0 68
+ 8.43568 1 0 sctp 48 -------S 0 1.0 0.0 1 69 146 65535 65535
- 8.43568 1 0 sctp 48 -------S 0 1.0 0.0 1 69 146 65535 65535
r 8.45968 0 1 sctp 1500 -------D 0 0.0 1.0 1 70 141 0 69
r 8.564448 1 0 sctp 48 -------S 0 1.0 0.0 1 65 144 65535 65535
+ 8.564448 0 1 sctp 1500 -------D 0 0.0 1.0 1 73 147 0 72
- 8.564448 0 1 sctp 1500 -------D 0 0.0 1.0 1 73 147 0 72
r 8.564448 0 1 sctp 1500 -------D 0 0.0 1.0 1 71 142 0 70
+ 8.564448 1 0 sctp 48 -------S 0 1.0 0.0 1 71 148 65535 65535
- 8.564448 1 0 sctp 48 -------S 0 1.0 0.0 1 71 148 65535 65535
r 8.588448 0 1 sctp 1500 -------D 0 0.0 1.0 1 72 143 0 71
r 8.588448 1 0 sctp 48 -------S 0 1.0 0.0 1 67 145 65535 65535
+ 8.588448 0 1 sctp 1500 -------D 0 0.0 1.0 1 74 149 0 73
- 8.588448 0 1 sctp 1500 -------D 0 0.0 1.0 1 74 149 0 73
+ 8.588448 0 1 sctp 1500 -------D 0 0.0 1.0 1 75 150 0 74
- 8.612448 0 1 sctp 1500 -------D 0 0.0 1.0 1 75 150 0 74
r 8.636448 1 0 sctp 48 -------S 0 1.0 0.0 1 69 146 65535 65535
+ 8.636448 0 1 sctp 1500 -------D 0 0.0 1.0 1 76 151 0 75
- 8.636448 0 1 sctp 1500 -------D 0 0.0 1.0 1 76 151 0 75
+ 8.636448 0 1 sctp 1500 -------D 0 0.0 1.0 1 77 152 0 76
+ 8.636448 0 1 sctp 1500 -------D 0 0.0 1.0 1 78 153 0 77
- 8.660448 0 1 sctp 1500 -------D 0 0.0 1.0 1 77 152 0 76
- 8.684448 0 1 sctp 1500 -------D 0 0.0 1.0 1 78 153 0 77
r 8.765216 1 0 sctp 48 -------S 0 1.0 0.0 1 71 148 65535 65535
+ 8.765216 0 1 sctp 1500 -------D 0 0.0 1.0 1 79 154 0 78
- 8.765216 0 1 sctp 1500 -------D 0 0.0 1.0 1 79 154 0 78
+ 8.765216 0 1 sctp 1500 -------D 0 0.0 1.0 1 80 155 0 79
r 8.788448 0 1 sctp 1500 -------D 0 0.0 1.0 1 73 147 0 72
+ 8.788448 1 0 sctp 48 -------S 0 1.0 0.0 1 73 156 65535 65535
- 8.788448 1 0 sctp 48 -------S 0 1.0 0.0 1 73 156 65535 65535
- 8.789216 0 1 sctp 1500 -------D 0 0.0 1.0 1 80 155 0 79
r 8.812448 0 1 sctp 1500 -------D 0 0.0 1.0 1 74 149 0 73
r 8.836448 0 1 sctp 1500 -------D 0 0.0 1.0 1 75 150 0 74
+ 8.836448 1 0 sctp 48 -------S 0 1.0 0.0 1 75 157 65535 65535
- 8.836448 1 0 sctp 48 -------S 0 1.0 0.0 1 75 157 65535 65535
r 8.860448 0 1 sctp 1500 -------D 0 0.0 1.0 1 76 151 0 75
r 8.884448 0 1 sctp 1500 -------D 0 0.0 1.0 1 77 152 0 76
+ 8.884448 1 0 sctp 48 -------S 0 1.0 0.0 1 77 158 65535 65535
- 8.884448 1 0 sctp 48 -------S 0 1.0 0.0 1 77 158 65535 65535
r 8.908448 0 1 sctp 1500 -------D 0 0.0 1.0 1 78 153 0 77
r 8.989216 1 0 sctp 48 -------S 0 1.0 0.0 1 73 156 65535 65535
+ 8.989216 0 1 sctp 1500 -------D 0 0.0 1.0 1 81 159 0 80
- 8.989216 0 1 sctp 1500 -------D 0 0.0 1.0 1 81 159 0 80
+ 8.989216 0 1 sctp 1500 -------D 0 0.0 1.0 1 82 160 0 81
r 8.989216 0 1 sctp 1500 -------D 0 0.0 1.0 1 79 154 0 78
+ 8.989216 1 0 sctp 48 -------S 0 1.0 0.0 1 79 161 65535 65535
- 8.989216 1 0 sctp 48 -------S 0 1.0 0.0 1 79 161 65535 65535
- 9.013216 0 1 sctp 1500 -------D 0 0.0 1.0 1 82 160 0 81
r 9.013216 0 1 sctp 1500 -------D 0 0.0 1.0 1 80 155 0 79
r 9.037216 1 0 sctp 48 -------S 0 1.0 0.0 1 75 157 65535 65535
+ 9.037216 0 1 sctp 1500 -------D 0 0.0 1.0 1 83 162 0 82
- 9.037216 0 1 sctp 1500 -------D 0 0.0 1.0 1 83 162 0 82
+ 9.037216 0 1 sctp 1500 -------D 0 0.0 1.0 1 84 163 0 83
- 9.061216 0 1 sctp 1500 -------D 0 0.0 1.0 1 84 163 0 83
r 9.085216 1 0 sctp 48 -------S 0 1.0 0.0 1 77 158 65535 65535
+ 9.085216 0 1 sctp 1500 -------D 0 0.0 1.0 1 85 164 0 84
- 9.085216 0 1 sctp 1500 -------D 0 0.0 1.0 1 85 164 0 84
+ 9.085216 0 1 sctp 1500 -------D 0 0.0 1.0 1 86 165 0 85
- 9.109216 0 1 sctp 1500 -------D 0 0.0 1.0 1 86 165 0 85
r 9.189984 1 0 sctp 48 -------S 0 1.0 0.0 1 79 161 65535 65535
+ 9.189984 0 1 sctp 1500 -------D 0 0.0 1.0 1 87 166 0 86
- 9.189984 0 1 sctp 1500 -------D 0 0.0 1.0 1 87 166 0 86
+ 9.189984 0 1 sctp 1500 -------D 0 0.0 1.0 1 88 167 0 87
+ 9.189984 0 1 sctp 1500 -------D 0 0.0 1.0 1 89 168 0 88
r 9.213216 0 1 sctp 1500 -------D 0 0.0 1.0 1 81 159 0 80
+ 9.213216 1 0 sctp 48 -------S 0 1.0 0.0 1 81 169 65535 65535
- 9.213216 1 0 sctp 48 -------S 0 1.0 0.0 1 81 169 65535 65535
- 9.213984 0 1 sctp 1500 -------D 0 0.0 1.0 1 88 167 0 87
r 9.237216 0 1 sctp 1500 -------D 0 0.0 1.0 1 82 160 0 81
- 9.237984 0 1 sctp 1500 -------D 0 0.0 1.0 1 89 168 0 88
r 9.261216 0 1 sctp 1500 -------D 0 0.0 1.0 1 83 162 0 82
+ 9.261216 1 0 sctp 48 -------S 0 1.0 0.0 1 83 170 65535 65535
- 9.261216 1 0 sctp 48 -------S 0 1.0 0.0 1 83 170 65535 65535
r 9.285216 0 1 sctp 1500 -------D 0 0.0 1.0 1 84 163 0 83
r 9.309216 0 1 sctp 1500 -------D 0 0.0 1.0 1 85 164 0 84
+ 9.309216 1 0 sctp 48 -------S 0 1.0 0.0 1 85 171 65535 65535
- 9.309216 1 0 sctp 48 -------S 0 1.0 0.0 1 85 171 65535 65535
r 9.333216 0 1 sctp 1500 -------D 0 0.0 1.0 1 86 165 0 85
r 9.413984 1 0 sctp 48 -------S 0 1.0 0.0 1 81 169 65535 65535
+ 9.413984 0 1 sctp 1500 -------D 0 0.0 1.0 1 90 172 0 89
- 9.413984 0 1 sctp 1500 -------D 0 0.0 1.0 1 90 172 0 89
+ 9.413984 0 1 sctp 1500 -------D 0 0.0 1.0 1 91 173 0 90
r 9.413984 0 1 sctp 1500 -------D 0 0.0 1.0 1 87 166 0 86
+ 9.413984 1 0 sctp 48 -------S 0 1.0 0.0 1 87 174 65535 65535
- 9.413984 1 0 sctp 48 -------S 0 1.0 0.0 1 87 174 65535 65535