+ 0.5 3 4 sctp 56 -------I 0 3.0 1.0 1 -1 3 65535 65535
- 0.5 3 4 sctp 56 -------I 0 3.0 1.0 1 -1 3 65535 65535
r 0.700896 3 4 sctp 56 -------I 0 3.0 1.0 1 -1 3 65535 65535
+ 0.700896 4 1 sctp 56 -------I 0 3.0 1.0 1 -1 3 65535 65535
- 0.700896 4 1 sctp 56 -------I 0 3.0 1.0 1 -1 3 65535 65535
r 0.901792 4 1 sctp 56 -------I 0 3.0 1.0 1 -1 3 65535 65535
+ 0.901792 1 4 sctp 56 -------I 0 1.0 3.0 1 -1 4 65535 65535
- 0.901792 1 4 sctp 56 -------I 0 1.0 3.0 1 -1 4 65535 65535
r 1.102688 1 4 sctp 56 -------I 0 1.0 3.0 1 -1 4 65535 65535
+ 1.102688 4 3 sctp 56 -------I 0 1.0 3.0 1 -1 4 65535 65535
- 1.102688 4 3 sctp 56 -------I 0 1.0 3.0 1 -1 4 65535 65535
r 1.303584 4 3 sctp 56 -------I 0 1.0 3.0 1 -1 4 65535 65535
+ 1.303584 3 4 sctp 36 -------I 0 3.0 1.0 1 -1 5 65535 65535
- 1.303584 3 4 sctp 36 -------I 0 3.0 1.0 1 -1 5 65535 65535
r 1.50416 3 4 sctp 36 -------I 0 3.0 1.0 1 -1 5 65535 65535
+ 1.50416 4 1 sctp 36 -------I 0 3.0 1.0 1 -1 5 65535 65535
- 1.50416 4 1 sctp 36 -------I 0 3.0 1.0 1 -1 5 65535 65535
r 1.704736 4 1 sctp 36 -------I 0 3.0 1.0 1 -1 5 65535 65535
+ 1.704736 1 4 sctp 36 -------I 0 1.0 3.0 1 -1 6 65535 65535
- 1.704736 1 4 sctp 36 -------I 0 1.0 3.0 1 -1 6 65535 65535
r 1.905312 1 4 sctp 36 -------I 0 1.0 3.0 1 -1 6 65535 65535
+ 1.905312 4 3 sctp 36 -------I 0 1.0 3.0 1 -1 6 65535 65535
- 1.905312 4 3 sctp 36 -------I 0 1.0 3.0 1 -1 6 65535 65535
r 2.105888 4 3 sctp 36 -------I 0 1.0 3.0 1 -1 6 65535 65535
+ 2.105888 3 4 sctp 56 -------H 0 3.0 1.0 1 -1 7 65535 65535
- 2.105888 3 4 sctp 56 -------H 0 3.0 1.0 1 -1 7 65535 65535
+ 2.105888 3 4 sctp 56 -------H 0 3.0 2.0 1 -1 8 65535 65535
- 2.106784 3 4 sctp 56 -------H 0 3.0 2.0 1 -1 8 65535 65535
r 2.306784 3 4 sctp 56 -------H 0 3.0 1.0 1 -1 7 65535 65535
+ 2.306784 4 1 sctp 56 -------H 0 3.0 1.0 1 -1 7 65535 65535
- 2.306784 4 1 sctp 56 -------H 0 3.0 1.0 1 -1 7 65535 65535
r 2.30768 3 4 sctp 56 -------H 0 3.0 2.0 1 -1 8 65535 65535
+ 2.30768 4 2 sctp 56 -------H 0 3.0 2.0 1 -1 8 65535 65535
- 2.30768 4 2 sctp 56 -------H 0 3.0 2.0 1 -1 8 65535 65535
r 2.50768 4 1 sctp 56 -------H 0 3.0 1.0 1 -1 7 65535 65535
+ 2.50768 1 4 sctp 56 -------B 0 1.0 3.0 1 -1 9 65535 65535
- 2.50768 1 4 sctp 56 -------B 0 1.0 3.0 1 -1 9 65535 65535
r 2.508576 4 2 sctp 56 -------H 0 3.0 2.0 1 -1 8 65535 65535
+ 2.508576 1 4 sctp 56 -------B 0 1.0 3.0 1 -1 10 65535 65535
- 2.508576 1 4 sctp 56 -------B 0 1.0 3.0 1 -1 10 65535 65535
r 2.708576 1 4 sctp 56 -------B 0 1.0 3.0 1 -1 9 65535 65535
+ 2.708576 4 3 sctp 56 -------B 0 1.0 3.0 1 -1 9 65535 65535
- 2.708576 4 3 sctp 56 -------B 0 1.0 3.0 1 -1 9 65535 65535
r 2.709472 1 4 sctp 56 -------B 0 1.0 3.0 1 -1 10 65535 65535
+ 2.709472 4 3 sctp 56 -------B 0 1.0 3.0 1 -1 10 65535 65535
- 2.709472 4 3 sctp 56 -------B 0 1.0 3.0 1 -1 10 65535 65535
r 2.909472 4 3 sctp 56 -------B 0 1.0 3.0 1 -1 9 65535 65535
r 2.910368 4 3 sctp 56 -------B 0 1.0 3.0 1 -1 10 65535 65535
+ 2.910368 3 4 sctp 1056 -------D 0 3.0 1.0 2 1 11 0 0
+ 2.910368 3 4 sctp 1056 -------D 0 3.0 1.0 2 2 11 0 1
- 2.910368 3 4 sctp 1056 -------D 0 3.0 1.0 2 1 11 0 0
- 2.910368 3 4 sctp 1056 -------D 0 3.0 1.0 2 2 11 0 1
+ 2.910368 3 4 sctp 1056 -------D 0 3.0 1.0 2 3 12 0 2
+ 2.910368 3 4 sctp 1056 -------D 0 3.0 1.0 2 4 12 0 3
+ 2.910368 3 4 sctp 1056 -------D 0 3.0 1.0 2 5 13 0 4
+ 2.910368 3 4 sctp 1056 -------D 0 3.0 1.0 2 6 13 0 5
+ 2.910368 3 4 sctp 1056 -------D 0 3.0 1.0 2 7 14 0 6
+ 2.910368 3 4 sctp 1056 -------D 0 3.0 1.0 2 8 14 0 7
+ 2.910368 3 4 sctp 1056 -------D 0 3.0 1.0 2 9 15 0 8
+ 2.910368 3 4 sctp 1056 -------D 0 3.0 1.0 2 10 15 0 9
- 2.927264 3 4 sctp 1056 -------D 0 3.0 1.0 2 3 12 0 2
- 2.927264 3 4 sctp 1056 -------D 0 3.0 1.0 2 4 12 0 3
- 2.94416 3 4 sctp 1056 -------D 0 3.0 1.0 2 5 13 0 4
- 2.94416 3 4 sctp 1056 -------D 0 3.0 1.0 2 6 13 0 5
- 2.961056 3 4 sctp 1056 -------D 0 3.0 1.0 2 7 14 0 6
- 2.961056 3 4 sctp 1056 -------D 0 3.0 1.0 2 8 14 0 7
- 2.977952 3 4 sctp 1056 -------D 0 3.0 1.0 2 9 15 0 8
- 2.977952 3 4 sctp 1056 -------D 0 3.0 1.0 2 10 15 0 9
r 3.127264 3 4 sctp 1056 -------D 0 3.0 1.0 2 1 11 0 0
r 3.127264 3 4 sctp 1056 -------D 0 3.0 1.0 2 2 11 0 1
+ 3.127264 4 1 sctp 1056 -------D 0 3.0 1.0 2 1 11 0 0
+ 3.127264 4 1 sctp 1056 -------D 0 3.0 1.0 2 2 11 0 1
- 3.127264 4 1 sctp 1056 -------D 0 3.0 1.0 2 1 11 0 0
- 3.127264 4 1 sctp 1056 -------D 0 3.0 1.0 2 2 11 0 1
r 3.14416 3 4 sctp 1056 -------D 0 3.0 1.0 2 3 12 0 2
r 3.14416 3 4 sctp 1056 -------D 0 3.0 1.0 2 4 12 0 3
+ 3.14416 4 1 sctp 1056 -------D 0 3.0 1.0 2 3 12 0 2
+ 3.14416 4 1 sctp 1056 -------D 0 3.0 1.0 2 4 12 0 3
- 3.14416 4 1 sctp 1056 -------D 0 3.0 1.0 2 3 12 0 2
- 3.14416 4 1 sctp 1056 -------D 0 3.0 1.0 2 4 12 0 3
r 3.161056 3 4 sctp 1056 -------D 0 3.0 1.0 2 5 13 0 4
r 3.161056 3 4 sctp 1056 -------D 0 3.0 1.0 2 6 13 0 5
+ 3.161056 4 1 sctp 1056 -------D 0 3.0 1.0 2 5 13 0 4
+ 3.161056 4 1 sctp 1056 -------D 0 3.0 1.0 2 6 13 0 5
- 3.161056 4 1 sctp 1056 -------D 0 3.0 1.0 2 5 13 0 4
- 3.161056 4 1 sctp 1056 -------D 0 3.0 1.0 2 6 13 0 5
r 3.177952 3 4 sctp 1056 -------D 0 3.0 1.0 2 7 14 0 6
r 3.177952 3 4 sctp 1056 -------D 0 3.0 1.0 2 8 14 0 7
+ 3.177952 4 1 sctp 1056 -------D 0 3.0 1.0 2 7 14 0 6
+ 3.177952 4 1 sctp 1056 -------D 0 3.0 1.0 2 8 14 0 7
- 3.177952 4 1 sctp 1056 -------D 0 3.0 1.0 2 7 14 0 6
- 3.177952 4 1 sctp 1056 -------D 0 3.0 1.0 2 8 14 0 7
r 3.194848 3 4 sctp 1056 -------D 0 3.0 1.0 2 9 15 0 8
r 3.194848 3 4 sctp 1056 -------D 0 3.0 1.0 2 10 15 0 9
+ 3.194848 4 1 sctp 1056 -------D 0 3.0 1.0 2 9 15 0 8
+ 3.194848 4 1 sctp 1056 -------D 0 3.0 1.0 2 10 15 0 9
- 3.194848 4 1 sctp 1056 -------D 0 3.0 1.0 2 9 15 0 8
- 3.194848 4 1 sctp 1056 -------D 0 3.0 1.0 2 10 15 0 9
r 3.34416 4 1 sctp 1056 -------D 0 3.0 1.0 2 1 11 0 0
r 3.34416 4 1 sctp 1056 -------D 0 3.0 1.0 2 2 11 0 1
+ 3.34416 1 4 sctp 48 -------S 0 1.0 3.0 1 2 16 65535 65535
- 3.34416 1 4 sctp 48 -------S 0 1.0 3.0 1 2 16 65535 65535
r 3.361056 4 1 sctp 1056 -------D 0 3.0 1.0 2 3 12 0 2
r 3.361056 4 1 sctp 1056 -------D 0 3.0 1.0 2 4 12 0 3
+ 3.361056 1 4 sctp 48 -------S 0 1.0 3.0 1 4 17 65535 65535
- 3.361056 1 4 sctp 48 -------S 0 1.0 3.0 1 4 17 65535 65535
r 3.377952 4 1 sctp 1056 -------D 0 3.0 1.0 2 5 13 0 4
r 3.377952 4 1 sctp 1056 -------D 0 3.0 1.0 2 6 13 0 5
r 3.394848 4 1 sctp 1056 -------D 0 3.0 1.0 2 7 14 0 6
r 3.394848 4 1 sctp 1056 -------D 0 3.0 1.0 2 8 14 0 7
+ 3.394848 1 4 sctp 48 -------S 0 1.0 3.0 1 8 18 65535 65535
- 3.394848 1 4 sctp 48 -------S 0 1.0 3.0 1 8 18 65535 65535
r 3.411744 4 1 sctp 1056 -------D 0 3.0 1.0 2 9 15 0 8
r 3.411744 4 1 sctp 1056 -------D 0 3.0 1.0 2 10 15 0 9
r 3.544928 1 4 sctp 48 -------S 0 1.0 3.0 1 2 16 65535 65535
+ 3.544928 4 3 sctp 48 -------S 0 1.0 3.0 1 2 16 65535 65535
- 3.544928 4 3 sctp 48 -------S 0 1.0 3.0 1 2 16 65535 65535
r 3.561824 1 4 sctp 48 -------S 0 1.0 3.0 1 4 17 65535 65535
+ 3.561824 4 3 sctp 48 -------S 0 1.0 3.0 1 4 17 65535 65535
- 3.561824 4 3 sctp 48 -------S 0 1.0 3.0 1 4 17 65535 65535
r 3.595616 1 4 sctp 48 -------S 0 1.0 3.0 1 8 18 65535 65535
+ 3.595616 4 3 sctp 48 -------S 0 1.0 3.0 1 8 18 65535 65535
- 3.595616 4 3 sctp 48 -------S 0 1.0 3.0 1 8 18 65535 65535
+ 3.611744 1 4 sctp 48 -------S 0 1.0 3.0 1 10 19 65535 65535
- 3.611744 1 4 sctp 48 -------S 0 1.0 3.0 1 10 19 65535 65535
r 3.745696 4 3 sctp 48 -------S 0 1.0 3.0 1 2 16 65535 65535
+ 3.745696 3 4 sctp 1056 -------D 0 3.0 1.0 2 11 20 0 10
+ 3.745696 3 4 sctp 1056 -------D 0 3.0 1.0 2 12 20 0 11
- 3.745696 3 4 sctp 1056 -------D 0 3.0 1.0 2 11 20 0 10
- 3.745696 3 4 sctp 1056 -------D 0 3.0 1.0 2 12 20 0 11
+ 3.745696 3 4 sctp 1056 -------D 0 3.0 1.0 2 13 21 0 12
+ 3.745696 3 4 sctp 1056 -------D 0 3.0 1.0 2 14 21 0 13
r 3.762592 4 3 sctp 48 -------S 0 1.0 3.0 1 4 17 65535 65535
+ 3.762592 3 4 sctp 1056 -------D 0 3.0 1.0 2 15 22 0 14
+ 3.762592 3 4 sctp 1056 -------D 0 3.0 1.0 2 16 22 0 15
+ 3.762592 3 4 sctp 1056 -------D 0 3.0 1.0 2 17 23 0 16
+ 3.762592 3 4 sctp 1056 -------D 0 3.0 1.0 2 18 23 0 17
- 3.762592 3 4 sctp 1056 -------D 0 3.0 1.0 2 13 21 0 12
- 3.762592 3 4 sctp 1056 -------D 0 3.0 1.0 2 14 21 0 13
- 3.779488 3 4 sctp 1056 -------D 0 3.0 1.0 2 15 22 0 14
- 3.779488 3 4 sctp 1056 -------D 0 3.0 1.0 2 16 22 0 15
r 3.796384 4 3 sctp 48 -------S 0 1.0 3.0 1 8 18 65535 65535
+ 3.796384 3 4 sctp 1056 -------D 0 3.0 1.0 2 19 24 0 18
+ 3.796384 3 4 sctp 1056 -------D 0 3.0 1.0 2 20 24 0 19
+ 3.796384 3 4 sctp 1056 -------D 0 3.0 1.0 2 21 25 0 20
+ 3.796384 3 4 sctp 1056 -------D 0 3.0 1.0 2 22 25 0 21
+ 3.796384 3 4 sctp 1056 -------D 0 3.0 1.0 2 23 26 0 22
+ 3.796384 3 4 sctp 1056 -------D 0 3.0 1.0 2 24 26 0 23
- 3.796384 3 4 sctp 1056 -------D 0 3.0 1.0 2 17 23 0 16
- 3.796384 3 4 sctp 1056 -------D 0 3.0 1.0 2 18 23 0 17
r 3.812512 1 4 sctp 48 -------S 0 1.0 3.0 1 10 19 65535 65535
+ 3.812512 4 3 sctp 48 -------S 0 1.0 3.0 1 10 19 65535 65535
- 3.812512 4 3 sctp 48 -------S 0 1.0 3.0 1 10 19 65535 65535
- 3.81328 3 4 sctp 1056 -------D 0 3.0 1.0 2 19 24 0 18
- 3.81328 3 4 sctp 1056 -------D 0 3.0 1.0 2 20 24 0 19
- 3.830176 3 4 sctp 1056 -------D 0 3.0 1.0 2 21 25 0 20
- 3.830176 3 4 sctp 1056 -------D 0 3.0 1.0 2 22 25 0 21
- 3.847072 3 4 sctp 1056 -------D 0 3.0 1.0 2 23 26 0 22
- 3.847072 3 4 sctp 1056 -------D 0 3.0 1.0 2 24 26 0 23
r 3.962592 3 4 sctp 1056 -------D 0 3.0 1.0 2 11 20 0 10
r 3.962592 3 4 sctp 1056 -------D 0 3.0 1.0 2 12 20 0 11
+ 3.962592 4 1 sctp 1056 -------D 0 3.0 1.0 2 11 20 0 10
+ 3.962592 4 1 sctp 1056 -------D 0 3.0 1.0 2 12 20 0 11
- 3.962592 4 1 sctp 1056 -------D 0 3.0 1.0 2 11 20 0 10
- 3.962592 4 1 sctp 1056 -------D 0 3.0 1.0 2 12 20 0 11
r 3.979488 3 4 sctp 1056 -------D 0 3.0 1.0 2 13 21 0 12
r 3.979488 3 4 sctp 1056 -------D 0 3.0 1.0 2 14 21 0 13
+ 3.979488 4 1 sctp 1056 -------D 0 3.0 1.0 2 13 21 0 12
+ 3.979488 4 1 sctp 1056 -------D 0 3.0 1.0 2 14 21 0 13
- 3.979488 4 1 sctp 1056 -------D 0 3.0 1.0 2 13 21 0 12
- 3.979488 4 1 sctp 1056 -------D 0 3.0 1.0 2 14 21 0 13
r 3.996384 3 4 sctp 1056 -------D 0 3.0 1.0 2 15 22 0 14
r 3.996384 3 4 sctp 1056 -------D 0 3.0 1.0 2 16 22 0 15
+ 3.996384 4 1 sctp 1056 -------D 0 3.0 1.0 2 15 22 0 14
+ 3.996384 4 1 sctp 1056 -------D 0 3.0 1.0 2 16 22 0 15
- 3.996384 4 1 sctp 1056 -------D 0 3.0 1.0 2 15 22 0 14
- 3.996384 4 1 sctp 1056 -------D 0 3.0 1.0 2 16 22 0 15
r 4.01328 3 4 sctp 1056 -------D 0 3.0 1.0 2 17 23 0 16
r 4.01328 3 4 sctp 1056 -------D 0 3.0 1.0 2 18 23 0 17
+ 4.01328 4 1 sctp 1056 -------D 0 3.0 1.0 2 17 23 0 16
+ 4.01328 4 1 sctp 1056 -------D 0 3.0 1.0 2 18 23 0 17
r 4.01328 4 3 sctp 48 -------S 0 1.0 3.0 1 10 19 65535 65535
+ 4.01328 3 4 sctp 1056 -------D 0 3.0 1.0 2 25 27 0 24
+ 4.01328 3 4 sctp 1056 -------D 0 3.0 1.0 2 26 27 0 25
- 4.01328 3 4 sctp 1056 -------D 0 3.0 1.0 2 25 27 0 24
- 4.01328 3 4 sctp 1056 -------D 0 3.0 1.0 2 26 27 0 25
+ 4.01328 3 4 sctp 1056 -------D 0 3.0 1.0 2 27 28 0 26
+ 4.01328 3 4 sctp 1056 -------D 0 3.0 1.0 2 28 28 0 27
- 4.01328 4 1 sctp 1056 -------D 0 3.0 1.0 2 17 23 0 16
- 4.01328 4 1 sctp 1056 -------D 0 3.0 1.0 2 18 23 0 17
r 4.030176 3 4 sctp 1056 -------D 0 3.0 1.0 2 19 24 0 18
r 4.030176 3 4 sctp 1056 -------D 0 3.0 1.0 2 20 24 0 19
+ 4.030176 4 1 sctp 1056 -------D 0 3.0 1.0 2 19 24 0 18
+ 4.030176 4 1 sctp 1056 -------D 0 3.0 1.0 2 20 24 0 19
- 4.030176 3 4 sctp 1056 -------D 0 3.0 1.0 2 27 28 0 26
- 4.030176 3 4 sctp 1056 -------D 0 3.0 1.0 2 28 28 0 27
- 4.030176 4 1 sctp 1056 -------D 0 3.0 1.0 2 19 24 0 18
- 4.030176 4 1 sctp 1056 -------D 0 3.0 1.0 2 20 24 0 19
r 4.047072 3 4 sctp 1056 -------D 0 3.0 1.0 2 21 25 0 20
r 4.047072 3 4 sctp 1056 -------D 0 3.0 1.0 2 22 25 0 21
+ 4.047072 4 1 sctp 1056 -------D 0 3.0 1.0 2 21 25 0 20
+ 4.047072 4 1 sctp 1056 -------D 0 3.0 1.0 2 22 25 0 21
- 4.047072 4 1 sctp 1056 -------D 0 3.0 1.0 2 21 25 0 20
- 4.047072 4 1 sctp 1056 -------D 0 3.0 1.0 2 22 25 0 21
r 4.063968 3 4 sctp 1056 -------D 0 3.0 1.0 2 23 26 0 22
r 4.063968 3 4 sctp 1056 -------D 0 3.0 1.0 2 24 26 0 23
+ 4.063968 4 1 sctp 1056 -------D 0 3.0 1.0 2 23 26 0 22
+ 4.063968 4 1 sctp 1056 -------D 0 3.0 1.0 2 24 26 0 23
- 4.063968 4 1 sctp 1056 -------D 0 3.0 1.0 2 23 26 0 22
- 4.063968 4 1 sctp 1056 -------D 0 3.0 1.0 2 24 26 0 23
r 4.179488 4 1 sctp 1056 -------D 0 3.0 1.0 2 11 20 0 10
r 4.179488 4 1 sctp 1056 -------D 0 3.0 1.0 2 12 20 0 11
r 4.196384 4 1 sctp 1056 -------D 0 3.0 1.0 2 13 21 0 12
r 4.196384 4 1 sctp 1056 -------D 0 3.0 1.0 2 14 21 0 13
+ 4.196384 1 4 sctp 48 -------S 0 1.0 3.0 1 14 29 65535 65535
- 4.196384 1 4 sctp 48 -------S 0 1.0 3.0 1 14 29 65535 65535
r 4.21328 4 1 sctp 1056 -------D 0 3.0 1.0 2 15 22 0 14
r 4.21328 4 1 sctp 1056 -------D 0 3.0 1.0 2 16 22 0 15
r 4.230176 3 4 sctp 1056 -------D 0 3.0 1.0 2 25 27 0 24
r 4.230176 3 4 sctp 1056 -------D 0 3.0 1.0 2 26 27 0 25
+ 4.230176 4 1 sctp 1056 -------D 0 3.0 1.0 2 25 27 0 24
+ 4.230176 4 1 sctp 1056 -------D 0 3.0 1.0 2 26 27 0 25
- 4.230176 4 1 sctp 1056 -------D 0 3.0 1.0 2 25 27 0 24
- 4.230176 4 1 sctp 1056 -------D 0 3.0 1.0 2 26 27 0 25
r 4.230176 4 1 sctp 1056 -------D 0 3.0 1.0 2 17 23 0 16
r 4.230176 4 1 sctp 1056 -------D 0 3.0 1.0 2 18 23 0 17
+ 4.230176 1 4 sctp 48 -------S 0 1.0 3.0 1 18 30 65535 65535
- 4.230176 1 4 sctp 48 -------S 0 1.0 3.0 1 18 30 65535 65535
r 4.247072 3 4 sctp 1056 -------D 0 3.0 1.0 2 27 28 0 26
r 4.247072 3 4 sctp 1056 -------D 0 3.0 1.0 2 28 28 0 27
+ 4.247072 4 1 sctp 1056 -------D 0 3.0 1.0 2 27 28 0 26
+ 4.247072 4 1 sctp 1056 -------D 0 3.0 1.0 2 28 28 0 27
r 4.247072 4 1 sctp 1056 -------D 0 3.0 1.0 2 19 24 0 18
r 4.247072 4 1 sctp 1056 -------D 0 3.0 1.0 2 20 24 0 19
- 4.247072 4 1 sctp 1056 -------D 0 3.0 1.0 2 27 28 0 26
- 4.247072 4 1 sctp 1056 -------D 0 3.0 1.0 2 28 28 0 27
r 4.263968 4 1 sctp 1056 -------D 0 3.0 1.0 2 21 25 0 20
r 4.263968 4 1 sctp 1056 -------D 0 3.0 1.0 2 22 25 0 21
+ 4.263968 1 4 sctp 48 -------S 0 1.0 3.0 1 22 31 65535 65535
- 4.263968 1 4 sctp 48 -------S 0 1.0 3.0 1 22 31 65535 65535
r 4.280864 4 1 sctp 1056 -------D 0 3.0 1.0 2 23 26 0 22
r 4.280864 4 1 sctp 1056 -------D 0 3.0 1.0 2 24 26 0 23
r 4.397152 1 4 sctp 48 -------S 0 1.0 3.0 1 14 29 65535 65535
+ 4.397152 4 3 sctp 48 -------S 0 1.0 3.0 1 14 29 65535 65535
- 4.397152 4 3 sctp 48 -------S 0 1.0 3.0 1 14 29 65535 65535
r 4.430944 1 4 sctp 48 -------S 0 1.0 3.0 1 18 30 65535 65535
+ 4.430944 4 3 sctp 48 -------S 0 1.0 3.0 1 18 30 65535 65535
- 4.430944 4 3 sctp 48 -------S 0 1.0 3.0 1 18 30 65535 65535
r 4.447072 4 1 sctp 1056 -------D 0 3.0 1.0 2 25 27 0 24
r 4.447072 4 1 sctp 1056 -------D 0 3.0 1.0 2 26 27 0 25
+ 4.447072 1 4 sctp 48 -------S 0 1.0 3.0 1 26 32 65535 65535
- 4.447072 1 4 sctp 48 -------S 0 1.0 3.0 1 26 32 65535 65535
r 4.463968 4 1 sctp 1056 -------D 0 3.0 1.0 2 27 28 0 26
r 4.463968 4 1 sctp 1056 -------D 0 3.0 1.0 2 28 28 0 27
r 4.464736 1 4 sctp 48 -------S 0 1.0 3.0 1 22 31 65535 65535
+ 4.464736 4 3 sctp 48 -------S 0 1.0 3.0 1 22 31 65535 65535
- 4.464736 4 3 sctp 48 -------S 0 1.0 3.0 1 22 31 65535 65535
r 4.59792 4 3 sctp 48 -------S 0 1.0 3.0 1 14 29 65535 65535
+ 4.59792 3 4 sctp 1056 -------D 0 3.0 1.0 2 29 33 0 28
+ 4.59792 3 4 sctp 1056 -------D 0 3.0 1.0 2 30 33 0 29
- 4.59792 3 4 sctp 1056 -------D 0 3.0 1.0 2 29 33 0 28
- 4.59792 3 4 sctp 1056 -------D 0 3.0 1.0 2 30 33 0 29
+ 4.59792 3 4 sctp 1056 -------D 0 3.0 1.0 2 31 34 0 30
+ 4.59792 3 4 sctp 1056 -------D 0 3.0 1.0 2 32 34 0 31
+ 4.59792 3 4 sctp 1056 -------D 0 3.0 1.0 2 33 35 0 32
+ 4.59792 3 4 sctp 1056 -------D 0 3.0 1.0 2 34 35 0 33
+ 4.59792 3 4 sctp 1056 -------D 0 3.0 1.0 2 35 36 0 34
+ 4.59792 3 4 sctp 1056 -------D 0 3.0 1.0 2 36 36 0 35
- 4.614816 3 4 sctp 1056 -------D 0 3.0 1.0 2 31 34 0 30
- 4.614816 3 4 sctp 1056 -------D 0 3.0 1.0 2 32 34 0 31
r 4.631712 4 3 sctp 48 -------S 0 1.0 3.0 1 18 30 65535 65535
+ 4.631712 3 4 sctp 1056 -------D 0 3.0 1.0 2 37 37 0 36
+ 4.631712 3 4 sctp 1056 -------D 0 3.0 1.0 2 38 37 0 37
+ 4.631712 3 4 sctp 1056 -------D 0 3.0 1.0 2 39 38 0 38
+ 4.631712 3 4 sctp 1056 -------D 0 3.0 1.0 2 40 38 0 39
+ 4.631712 3 4 sctp 1056 -------D 0 3.0 1.0 2 41 39 0 40
+ 4.631712 3 4 sctp 1056 -------D 0 3.0 1.0 2 42 39 0 41
- 4.631712 3 4 sctp 1056 -------D 0 3.0 1.0 2 33 35 0 32
- 4.631712 3 4 sctp 1056 -------D 0 3.0 1.0 2 34 35 0 33
r 4.64784 1 4 sctp 48 -------S 0 1.0 3.0 1 26 32 65535 65535
+ 4.64784 4 3 sctp 48 -------S 0 1.0 3.0 1 26 32 65535 65535
- 4.64784 4 3 sctp 48 -------S 0 1.0 3.0 1 26 32 65535 65535
- 4.648608 3 4 sctp 1056 -------D 0 3.0 1.0 2 35 36 0 34
- 4.648608 3 4 sctp 1056 -------D 0 3.0 1.0 2 36 36 0 35
+ 4.663968 1 4 sctp 48 -------S 0 1.0 3.0 1 28 40 65535 65535
- 4.663968 1 4 sctp 48 -------S 0 1.0 3.0 1 28 40 65535 65535
r 4.665504 4 3 sctp 48 -------S 0 1.0 3.0 1 22 31 65535 65535
+ 4.665504 3 4 sctp 1056 -------D 0 3.0 1.0 2 43 41 0 42
+ 4.665504 3 4 sctp 1056 -------D 0 3.0 1.0 2 44 41 0 43
+ 4.665504 3 4 sctp 1056 -------D 0 3.0 1.0 2 45 42 0 44
+ 4.665504 3 4 sctp 1056 -------D 0 3.0 1.0 2 46 42 0 45
+ 4.665504 3 4 sctp 1056 -------D 0 3.0 1.0 2 47 43 0 46
+ 4.665504 3 4 sctp 1056 -------D 0 3.0 1.0 2 48 43 0 47
+ 4.665504 3 4 sctp 1056 -------D 0 3.0 1.0 2 49 44 0 48
+ 4.665504 3 4 sctp 1056 -------D 0 3.0 1.0 2 50 44 0 49
- 4.665504 3 4 sctp 1056 -------D 0 3.0 1.0 2 37 37 0 36
- 4.665504 3 4 sctp 1056 -------D 0 3.0 1.0 2 38 37 0 37
- 4.6824 3 4 sctp 1056 -------D 0 3.0 1.0 2 39 38 0 38
- 4.6824 3 4 sctp 1056 -------D 0 3.0 1.0 2 40 38 0 39
- 4.699296 3 4 sctp 1056 -------D 0 3.0 1.0 2 41 39 0 40
- 4.699296 3 4 sctp 1056 -------D 0 3.0 1.0 2 42 39 0 41
- 4.716192 3 4 sctp 1056 -------D 0 3.0 1.0 2 43 41 0 42
- 4.716192 3 4 sctp 1056 -------D 0 3.0 1.0 2 44 41 0 43
- 4.733088 3 4 sctp 1056 -------D 0 3.0 1.0 2 45 42 0 44
- 4.733088 3 4 sctp 1056 -------D 0 3.0 1.0 2 46 42 0 45
- 4.749984 3 4 sctp 1056 -------D 0 3.0 1.0 2 47 43 0 46
- 4.749984 3 4 sctp 1056 -------D 0 3.0 1.0 2 48 43 0 47
- 4.76688 3 4 sctp 1056 -------D 0 3.0 1.0 2 49 44 0 48
- 4.76688 3 4 sctp 1056 -------D 0 3.0 1.0 2 50 44 0 49
r 4.814816 3 4 sctp 1056 -------D 0 3.0 1.0 2 29 33 0 28
r 4.814816 3 4 sctp 1056 -------D 0 3.0 1.0 2 30 33 0 29
+ 4.814816 4 1 sctp 1056 -------D 0 3.0 1.0 2 29 33 0 28
+ 4.814816 4 1 sctp 1056 -------D 0 3.0 1.0 2 30 33 0 29
- 4.814816 4 1 sctp 1056 -------D 0 3.0 1.0 2 29 33 0 28
- 4.814816 4 1 sctp 1056 -------D 0 3.0 1.0 2 30 33 0 29
r 4.831712 3 4 sctp 1056 -------D 0 3.0 1.0 2 31 34 0 30
r 4.831712 3 4 sctp 1056 -------D 0 3.0 1.0 2 32 34 0 31
+ 4.831712 4 1 sctp 1056 -------D 0 3.0 1.0 2 31 34 0 30
+ 4.831712 4 1 sctp 1056 -------D 0 3.0 1.0 2 32 34 0 31
- 4.831712 4 1 sctp 1056 -------D 0 3.0 1.0 2 31 34 0 30
- 4.831712 4 1 sctp 1056 -------D 0 3.0 1.0 2 32 34 0 31
r 4.848608 3 4 sctp 1056 -------D 0 3.0 1.0 2 33 35 0 32
r 4.848608 3 4 sctp 1056 -------D 0 3.0 1.0 2 34 35 0 33
+ 4.848608 4 1 sctp 1056 -------D 0 3.0 1.0 2 33 35 0 32
+ 4.848608 4 1 sctp 1056 -------D 0 3.0 1.0 2 34 35 0 33
r 4.848608 4 3 sctp 48 -------S 0 1.0 3.0 1 26 32 65535 65535
+ 4.848608 3 4 sctp 1056 -------D 0 3.0 1.0 2 51 45 0 50
+ 4.848608 3 4 sctp 1056 -------D 0 3.0 1.0 2 52 45 0 51
- 4.848608 3 4 sctp 1056 -------D 0 3.0 1.0 2 51 45 0 50
- 4.848608 3 4 sctp 1056 -------D 0 3.0 1.0 2 52 45 0 51
+ 4.848608 3 4 sctp 1056 -------D 0 3.0 1.0 2 53 46 0 52
+ 4.848608 3 4 sctp 1056 -------D 0 3.0 1.0 2 54 46 0 53
+ 4.848608 3 4 sctp 1056 -------D 0 3.0 1.0 2 55 47 0 54
+ 4.848608 3 4 sctp 1056 -------D 0 3.0 1.0 2 56 47 0 55
- 4.848608 4 1 sctp 1056 -------D 0 3.0 1.0 2 33 35 0 32
- 4.848608 4 1 sctp 1056 -------D 0 3.0 1.0 2 34 35 0 33
r 4.864736 1 4 sctp 48 -------S 0 1.0 3.0 1 28 40 65535 65535
+ 4.864736 4 3 sctp 48 -------S 0 1.0 3.0 1 28 40 65535 65535
- 4.864736 4 3 sctp 48 -------S 0 1.0 3.0 1 28 40 65535 65535
r 4.865504 3 4 sctp 1056 -------D 0 3.0 1.0 2 35 36 0 34
r 4.865504 3 4 sctp 1056 -------D 0 3.0 1.0 2 36 36 0 35
+ 4.865504 4 1 sctp 1056 -------D 0 3.0 1.0 2 35 36 0 34
+ 4.865504 4 1 sctp 1056 -------D 0 3.0 1.0 2 36 36 0 35
- 4.865504 3 4 sctp 1056 -------D 0 3.0 1.0 2 53 46 0 52
- 4.865504 3 4 sctp 1056 -------D 0 3.0 1.0 2 54 46 0 53
- 4.865504 4 1 sctp 1056 -------D 0 3.0 1.0 2 35 36 0 34
- 4.865504 4 1 sctp 1056 -------D 0 3.0 1.0 2 36 36 0 35
r 4.8824 3 4 sctp 1056 -------D 0 3.0 1.0 2 37 37 0 36
r 4.8824 3 4 sctp 1056 -------D 0 3.0 1.0 2 38 37 0 37
+ 4.8824 4 1 sctp 1056 -------D 0 3.0 1.0 2 37 37 0 36
+ 4.8824 4 1 sctp 1056 -------D 0 3.0 1.0 2 38 37 0 37
- 4.8824 3 4 sctp 1056 -------D 0 3.0 1.0 2 55 47 0 54
- 4.8824 3 4 sctp 1056 -------D 0 3.0 1.0 2 56 47 0 55
- 4.8824 4 1 sctp 1056 -------D 0 3.0 1.0 2 37 37 0 36
- 4.8824 4 1 sctp 1056 -------D 0 3.0 1.0 2 38 37 0 37
r 4.899296 3 4 sctp 1056 -------D 0 3.0 1.0 2 39 38 0 38
r 4.899296 3 4 sctp 1056 -------D 0 3.0 1.0 2 40 38 0 39
+ 4.899296 4 1 sctp 1056 -------D 0 3.0 1.0 2 39 38 0 38
+ 4.899296 4 1 sctp 1056 -------D 0 3.0 1.0 2 40 38 0 39
- 4.899296 4 1 sctp 1056 -------D 0 3.0 1.0 2 39 38 0 38
- 4.899296 4 1 sctp 1056 -------D 0 3.0 1.0 2 40 38 0 39
r 4.916192 3 4 sctp 1056 -------D 0 3.0 1.0 2 41 39 0 40
r 4.916192 3 4 sctp 1056 -------D 0 3.0 1.0 2 42 39 0 41
+ 4.916192 4 1 sctp 1056 -------D 0 3.0 1.0 2 41 39 0 40
+ 4.916192 4 1 sctp 1056 -------D 0 3.0 1.0 2 42 39 0 41
- 4.916192 4 1 sctp 1056 -------D 0 3.0 1.0 2 41 39 0 40
- 4.916192 4 1 sctp 1056 -------D 0 3.0 1.0 2 42 39 0 41
r 4.933088 3 4 sctp 1056 -------D 0 3.0 1.0 2 43 41 0 42
r 4.933088 3 4 sctp 1056 -------D 0 3.0 1.0 2 44 41 0 43
+ 4.933088 4 1 sctp 1056 -------D 0 3.0 1.0 2 43 41 0 42
+ 4.933088 4 1 sctp 1056 -------D 0 3.0 1.0 2 44 41 0 43
- 4.933088 4 1 sctp 1056 -------D 0 3.0 1.0 2 43 41 0 42
- 4.933088 4 1 sctp 1056 -------D 0 3.0 1.0 2 44 41 0 43
r 4.949984 3 4 sctp 1056 -------D 0 3.0 1.0 2 45 42 0 44
r 4.949984 3 4 sctp 1056 -------D 0 3.0 1.0 2 46 42 0 45
+ 4.949984 4 1 sctp 1056 -------D 0 3.0 1.0 2 45 42 0 44
+ 4.949984 4 1 sctp 1056 -------D 0 3.0 1.0 2 46 42 0 45
- 4.949984 4 1 sctp 1056 -------D 0 3.0 1.0 2 45 42 0 44
- 4.949984 4 1 sctp 1056 -------D 0 3.0 1.0 2 46 42 0 45
r 4.96688 3 4 sctp 1056 -------D 0 3.0 1.0 2 47 43 0 46
r 4.96688 3 4 sctp 1056 -------D 0 3.0 1.0 2 48 43 0 47
+ 4.96688 4 1 sctp 1056 -------D 0 3.0 1.0 2 47 43 0 46
+ 4.96688 4 1 sctp 1056 -------D 0 3.0 1.0 2 48 43 0 47
- 4.96688 4 1 sctp 1056 -------D 0 3.0 1.0 2 47 43 0 46
- 4.96688 4 1 sctp 1056 -------D 0 3.0 1.0 2 48 43 0 47
r 4.983776 3 4 sctp 1056 -------D 0 3.0 1.0 2 49 44 0 48
r 4.983776 3 4 sctp 1056 -------D 0 3.0 1.0 2 50 44 0 49
+ 4.983776 4 1 sctp 1056 -------D 0 3.0 1.0 2 49 44 0 48
+ 4.983776 4 1 sctp 1056 -------D 0 3.0 1.0 2 50 44 0 49
- 4.983776 4 1 sctp 1056 -------D 0 3.0 1.0 2 49 44 0 48
- 4.983776 4 1 sctp 1056 -------D 0 3.0 1.0 2 50 44 0 49
r 5.031712 4 1 sctp 1056 -------D 0 3.0 1.0 2 29 33 0 28
r 5.031712 4 1 sctp 1056 -------D 0 3.0 1.0 2 30 33 0 29
r 5.048608 4 1 sctp 1056 -------D 0 3.0 1.0 2 31 34 0 30
r 5.048608 4 1 sctp 1056 -------D 0 3.0 1.0 2 32 34 0 31
+ 5.048608 1 4 sctp 48 -------S 0 1.0 3.0 1 32 48 65535 65535
- 5.048608 1 4 sctp 48 -------S 0 1.0 3.0 1 32 48 65535 65535
r 5.065504 3 4 sctp 1056 -------D 0 3.0 1.0 2 51 45 0 50
r 5.065504 3 4 sctp 1056 -------D 0 3.0 1.0 2 52 45 0 51
+ 5.065504 4 1 sctp 1056 -------D 0 3.0 1.0 2 51 45 0 50
+ 5.065504 4 1 sctp 1056 -------D 0 3.0 1.0 2 52 45 0 51
- 5.065504 4 1 sctp 1056 -------D 0 3.0 1.0 2 51 45 0 50
- 5.065504 4 1 sctp 1056 -------D 0 3.0 1.0 2 52 45 0 51
r 5.065504 4 1 sctp 1056 -------D 0 3.0 1.0 2 33 35 0 32
r 5.065504 4 1 sctp 1056 -------D 0 3.0 1.0 2 34 35 0 33
r 5.065504 4 3 sctp 48 -------S 0 1.0 3.0 1 28 40 65535 65535
+ 5.065504 3 4 sctp 1056 -------D 0 3.0 1.0 2 57 49 0 56
+ 5.065504 3 4 sctp 1056 -------D 0 3.0 1.0 2 58 49 0 57
- 5.065504 3 4 sctp 1056 -------D 0 3.0 1.0 2 57 49 0 56
- 5.065504 3 4 sctp 1056 -------D 0 3.0 1.0 2 58 49 0 57
+ 5.065504 3 4 sctp 1056 -------D 0 3.0 1.0 2 59 50 0 58
+ 5.065504 3 4 sctp 1056 -------D 0 3.0 1.0 2 60 50 0 59
r 5.0824 3 4 sctp 1056 -------D 0 3.0 1.0 2 53 46 0 52
r 5.0824 3 4 sctp 1056 -------D 0 3.0 1.0 2 54 46 0 53
+ 5.0824 4 1 sctp 1056 -------D 0 3.0 1.0 2 53 46 0 52
+ 5.0824 4 1 sctp 1056 -------D 0 3.0 1.0 2 54 46 0 53
r 5.0824 4 1 sctp 1056 -------D 0 3.0 1.0 2 35 36 0 34
r 5.0824 4 1 sctp 1056 -------D 0 3.0 1.0 2 36 36 0 35
+ 5.0824 1 4 sctp 48 -------S 0 1.0 3.0 1 36 51 65535 65535
- 5.0824 1 4 sctp 48 -------S 0 1.0 3.0 1 36 51 65535 65535
- 5.0824 4 1 sctp 1056 -------D 0 3.0 1.0 2 53 46 0 52
- 5.0824 4 1 sctp 1056 -------D 0 3.0 1.0 2 54 46 0 53
- 5.0824 3 4 sctp 1056 -------D 0 3.0 1.0 2 59 50 0 58
- 5.0824 3 4 sctp 1056 -------D 0 3.0 1.0 2 60 50 0 59
r 5.099296 3 4 sctp 1056 -------D 0 3.0 1.0 2 55 47 0 54
r 5.099296 3 4 sctp 1056 -------D 0 3.0 1.0 2 56 47 0 55
+ 5.099296 4 1 sctp 1056 -------D 0 3.0 1.0 2 55 47 0 54
+ 5.099296 4 1 sctp 1056 -------D 0 3.0 1.0 2 56 47 0 55
r 5.099296 4 1 sctp 1056 -------D 0 3.0 1.0 2 37 37 0 36
r 5.099296 4 1 sctp 1056 -------D 0 3.0 1.0 2 38 37 0 37
- 5.099296 4 1 sctp 1056 -------D 0 3.0 1.0 2 55 47 0 54
- 5.099296 4 1 sctp 1056 -------D 0 3.0 1.0 2 56 47 0 55
r 5.116192 4 1 sctp 1056 -------D 0 3.0 1.0 2 39 38 0 38
r 5.116192 4 1 sctp 1056 -------D 0 3.0 1.0 2 40 38 0 39
+ 5.116192 1 4 sctp 48 -------S 0 1.0 3.0 1 40 52 65535 65535
- 5.116192 1 4 sctp 48 -------S 0 1.0 3.0 1 40 52 65535 65535
r 5.133088 4 1 sctp 1056 -------D 0 3.0 1.0 2 41 39 0 40
r 5.133088 4 1 sctp 1056 -------D 0 3.0 1.0 2 42 39 0 41
r 5.149984 4 1 sctp 1056 -------D 0 3.0 1.0 2 43 41 0 42
r 5.149984 4 1 sctp 1056 -------D 0 3.0 1.0 2 44 41 0 43
+ 5.149984 1 4 sctp 48 -------S 0 1.0 3.0 1 44 53 65535 65535
- 5.149984 1 4 sctp 48 -------S 0 1.0 3.0 1 44 53 65535 65535
r 5.16688 4 1 sctp 1056 -------D 0 3.0 1.0 2 45 42 0 44
r 5.16688 4 1 sctp 1056 -------D 0 3.0 1.0 2 46 42 0 45
r 5.183776 4 1 sctp 1056 -------D 0 3.0 1.0 2 47 43 0 46
r 5.183776 4 1 sctp 1056 -------D 0 3.0 1.0 2 48 43 0 47
+ 5.183776 1 4 sctp 48 -------S 0 1.0 3.0 1 48 54 65535 65535
- 5.183776 1 4 sctp 48 -------S 0 1.0 3.0 1 48 54 65535 65535
r 5.200672 4 1 sctp 1056 -------D 0 3.0 1.0 2 49 44 0 48
r 5.200672 4 1 sctp 1056 -------D 0 3.0 1.0 2 50 44 0 49
r 5.249376 1 4 sctp 48 -------S 0 1.0 3.0 1 32 48 65535 65535
+ 5.249376 4 3 sctp 48 -------S 0 1.0 3.0 1 32 48 65535 65535
- 5.249376 4 3 sctp 48 -------S 0 1.0 3.0 1 32 48 65535 65535
r 5.2824 4 1 sctp 1056 -------D 0 3.0 1.0 2 51 45 0 50
r 5.2824 4 1 sctp 1056 -------D 0 3.0 1.0 2 52 45 0 51
+ 5.2824 1 4 sctp 48 -------S 0 1.0 3.0 1 52 55 65535 65535
- 5.2824 1 4 sctp 48 -------S 0 1.0 3.0 1 52 55 65535 65535
r 5.2824 3 4 sctp 1056 -------D 0 3.0 1.0 2 57 49 0 56
r 5.2824 3 4 sctp 1056 -------D 0 3.0 1.0 2 58 49 0 57
+ 5.2824 4 1 sctp 1056 -------D 0 3.0 1.0 2 57 49 0 56
+ 5.2824 4 1 sctp 1056 -------D 0 3.0 1.0 2 58 49 0 57
- 5.2824 4 1 sctp 1056 -------D 0 3.0 1.0 2 57 49 0 56
- 5.2824 4 1 sctp 1056 -------D 0 3.0 1.0 2 58 49 0 57
r 5.283168 1 4 sctp 48 -------S 0 1.0 3.0 1 36 51 65535 65535
+ 5.283168 4 3 sctp 48 -------S 0 1.0 3.0 1 36 51 65535 65535
- 5.283168 4 3 sctp 48 -------S 0 1.0 3.0 1 36 51 65535 65535
r 5.299296 4 1 sctp 1056 -------D 0 3.0 1.0 2 53 46 0 52
r 5.299296 4 1 sctp 1056 -------D 0 3.0 1.0 2 54 46 0 53
r 5.299296 3 4 sctp 1056 -------D 0 3.0 1.0 2 59 50 0 58
r 5.299296 3 4 sctp 1056 -------D 0 3.0 1.0 2 60 50 0 59
+ 5.299296 4 1 sctp 1056 -------D 0 3.0 1.0 2 59 50 0 58
+ 5.299296 4 1 sctp 1056 -------D 0 3.0 1.0 2 60 50 0 59
- 5.299296 4 1 sctp 1056 -------D 0 3.0 1.0 2 59 50 0 58
- 5.299296 4 1 sctp 1056 -------D 0 3.0 1.0 2 60 50 0 59
r 5.316192 4 1 sctp 1056 -------D 0 3.0 1.0 2 55 47 0 54
r 5.316192 4 1 sctp 1056 -------D 0 3.0 1.0 2 56 47 0 55
+ 5.316192 1 4 sctp 48 -------S 0 1.0 3.0 1 56 56 65535 65535
- 5.316192 1 4 sctp 48 -------S 0 1.0 3.0 1 56 56 65535 65535
r 5.31696 1 4 sctp 48 -------S 0 1.0 3.0 1 40 52 65535 65535
+ 5.31696 4 3 sctp 48 -------S 0 1.0 3.0 1 40 52 65535 65535
- 5.31696 4 3 sctp 48 -------S 0 1.0 3.0 1 40 52 65535 65535
r 5.350752 1 4 sctp 48 -------S 0 1.0 3.0 1 44 53 65535 65535
+ 5.350752 4 3 sctp 48 -------S 0 1.0 3.0 1 44 53 65535 65535
- 5.350752 4 3 sctp 48 -------S 0 1.0 3.0 1 44 53 65535 65535
r 5.384544 1 4 sctp 48 -------S 0 1.0 3.0 1 48 54 65535 65535
+ 5.384544 4 3 sctp 48 -------S 0 1.0 3.0 1 48 54 65535 65535
- 5.384544 4 3 sctp 48 -------S 0 1.0 3.0 1 48 54 65535 65535
r 5.450144 4 3 sctp 48 -------S 0 1.0 3.0 1 32 48 65535 65535
+ 5.450144 3 4 sctp 1056 -------D 0 3.0 1.0 2 61 57 0 60
+ 5.450144 3 4 sctp 1056 -------D 0 3.0 1.0 2 62 57 0 61
- 5.450144 3 4 sctp 1056 -------D 0 3.0 1.0 2 61 57 0 60
- 5.450144 3 4 sctp 1056 -------D 0 3.0 1.0 2 62 57 0 61
+ 5.450144 3 4 sctp 1056 -------D 0 3.0 1.0 2 63 58 0 62
+ 5.450144 3 4 sctp 1056 -------D 0 3.0 1.0 2 64 58 0 63
+ 5.450144 3 4 sctp 1056 -------D 0 3.0 1.0 2 65 59 0 64
+ 5.450144 3 4 sctp 1056 -------D 0 3.0 1.0 2 66 59 0 65
- 5.46704 3 4 sctp 1056 -------D 0 3.0 1.0 2 63 58 0 62
- 5.46704 3 4 sctp 1056 -------D 0 3.0 1.0 2 64 58 0 63
r 5.483168 1 4 sctp 48 -------S 0 1.0 3.0 1 52 55 65535 65535
+ 5.483168 4 3 sctp 48 -------S 0 1.0 3.0 1 52 55 65535 65535
- 5.483168 4 3 sctp 48 -------S 0 1.0 3.0 1 52 55 65535 65535
r 5.483936 4 3 sctp 48 -------S 0 1.0 3.0 1 36 51 65535 65535
+ 5.483936 3 4 sctp 1056 -------D 0 3.0 1.0 2 67 60 0 66
+ 5.483936 3 4 sctp 1056 -------D 0 3.0 1.0 2 68 60 0 67
+ 5.483936 3 4 sctp 1056 -------D 0 3.0 1.0 2 69 61 0 68
+ 5.483936 3 4 sctp 1056 -------D 0 3.0 1.0 2 70 61 0 69
+ 5.483936 3 4 sctp 1056 -------D 0 3.0 1.0 2 71 62 0 70
+ 5.483936 3 4 sctp 1056 -------D 0 3.0 1.0 2 72 62 0 71
+ 5.483936 3 4 sctp 1056 -------D 0 3.0 1.0 2 73 63 0 72
+ 5.483936 3 4 sctp 1056 -------D 0 3.0 1.0 2 74 63 0 73
- 5.483936 3 4 sctp 1056 -------D 0 3.0 1.0 2 65 59 0 64
- 5.483936 3 4 sctp 1056 -------D 0 3.0 1.0 2 66 59 0 65
r 5.499296 4 1 sctp 1056 -------D 0 3.0 1.0 2 57 49 0 56
r 5.499296 4 1 sctp 1056 -------D 0 3.0 1.0 2 58 49 0 57
- 5.500832 3 4 sctp 1056 -------D 0 3.0 1.0 2 67 60 0 66
- 5.500832 3 4 sctp 1056 -------D 0 3.0 1.0 2 68 60 0 67
r 5.516192 4 1 sctp 1056 -------D 0 3.0 1.0 2 59 50 0 58
r 5.516192 4 1 sctp 1056 -------D 0 3.0 1.0 2 60 50 0 59
+ 5.516192 1 4 sctp 48 -------S 0 1.0 3.0 1 60 64 65535 65535