+ 0.5 0 1 sctp 56 -------I 0 0.0 1.0 1 -1 2 65535 65535
- 0.5 0 1 sctp 56 -------I 0 0.0 1.0 1 -1 2 65535 65535
r 0.700896 0 1 sctp 56 -------I 0 0.0 1.0 1 -1 2 65535 65535
+ 0.700896 1 0 sctp 56 -------I 0 1.0 0.0 1 -1 3 65535 65535
- 0.700896 1 0 sctp 56 -------I 0 1.0 0.0 1 -1 3 65535 65535
r 0.901792 1 0 sctp 56 -------I 0 1.0 0.0 1 -1 3 65535 65535
+ 0.901792 0 1 sctp 36 -------I 0 0.0 1.0 1 -1 4 65535 65535
- 0.901792 0 1 sctp 36 -------I 0 0.0 1.0 1 -1 4 65535 65535
r 1.102368 0 1 sctp 36 -------I 0 0.0 1.0 1 -1 4 65535 65535
+ 1.102368 1 0 sctp 36 -------I 0 1.0 0.0 1 -1 5 65535 65535
- 1.102368 1 0 sctp 36 -------I 0 1.0 0.0 1 -1 5 65535 65535
r 1.302944 1 0 sctp 36 -------I 0 1.0 0.0 1 -1 5 65535 65535
+ 1.302944 0 1 sctp 56 -------H 0 0.0 1.0 1 -1 6 65535 65535
- 1.302944 0 1 sctp 56 -------H 0 0.0 1.0 1 -1 6 65535 65535
r 1.50384 0 1 sctp 56 -------H 0 0.0 1.0 1 -1 6 65535 65535
+ 1.50384 1 0 sctp 56 -------B 0 1.0 0.0 1 -1 7 65535 65535
- 1.50384 1 0 sctp 56 -------B 0 1.0 0.0 1 -1 7 65535 65535
r 1.704736 1 0 sctp 56 -------B 0 1.0 0.0 1 -1 7 65535 65535
+ 1.704736 0 1 sctp 1500 -------D 0 0.0 1.0 1 1 8 0 0
- 1.704736 0 1 sctp 1500 -------D 0 0.0 1.0 1 1 8 0 0
+ 1.704736 0 1 sctp 1500 -------D 0 0.0 1.0 1 2 9 0 1
+ 1.704736 0 1 sctp 1500 -------D 0 0.0 1.0 1 3 10 0 2
- 1.728736 0 1 sctp 1500 -------D 0 0.0 1.0 1 2 9 0 1
- 1.752736 0 1 sctp 1500 -------D 0 0.0 1.0 1 3 10 0 2
r 1.928736 0 1 sctp 1500 -------D 0 0.0 1.0 1 1 8 0 0
+ 1.928736 1 0 sctp 48 -------S 0 1.0 0.0 1 1 11 65535 65535
- 1.928736 1 0 sctp 48 -------S 0 1.0 0.0 1 1 11 65535 65535
r 1.952736 0 1 sctp 1500 -------D 0 0.0 1.0 1 2 9 0 1
r 1.976736 0 1 sctp 1500 -------D 0 0.0 1.0 1 3 10 0 2
+ 1.976736 1 0 sctp 48 -------S 0 1.0 0.0 1 3 12 65535 65535
- 1.976736 1 0 sctp 48 -------S 0 1.0 0.0 1 3 12 65535 65535
r 2.129504 1 0 sctp 48 -------S 0 1.0 0.0 1 1 11 65535 65535
+ 2.129504 0 1 sctp 1500 -------D 0 0.0 1.0 1 4 13 0 3
- 2.129504 0 1 sctp 1500 -------D 0 0.0 1.0 1 4 13 0 3
+ 2.129504 0 1 sctp 1500 -------D 0 0.0 1.0 1 5 14 0 4
- 2.153504 0 1 sctp 1500 -------D 0 0.0 1.0 1 5 14 0 4
r 2.177504 1 0 sctp 48 -------S 0 1.0 0.0 1 3 12 65535 65535
+ 2.177504 0 1 sctp 1500 -------D 0 0.0 1.0 1 6 15 0 5
+ 2.177504 0 1 sctp 1500 -------D 0 0.0 1.0 1 7 16 0 6
+ 2.177504 0 1 sctp 1500 -------D 0 0.0 1.0 1 8 17 0 7
- 2.177504 0 1 sctp 1500 -------D 0 0.0 1.0 1 6 15 0 5
- 2.201504 0 1 sctp 1500 -------D 0 0.0 1.0 1 7 16 0 6
- 2.225504 0 1 sctp 1500 -------D 0 0.0 1.0 1 8 17 0 7
r 2.353504 0 1 sctp 1500 -------D 0 0.0 1.0 1 4 13 0 3
r 2.377504 0 1 sctp 1500 -------D 0 0.0 1.0 1 5 14 0 4
+ 2.377504 1 0 sctp 48 -------S 0 1.0 0.0 1 5 18 65535 65535
- 2.377504 1 0 sctp 48 -------S 0 1.0 0.0 1 5 18 65535 65535
r 2.401504 0 1 sctp 1500 -------D 0 0.0 1.0 1 6 15 0 5
r 2.425504 0 1 sctp 1500 -------D 0 0.0 1.0 1 7 16 0 6
+ 2.425504 1 0 sctp 48 -------S 0 1.0 0.0 1 7 19 65535 65535
- 2.425504 1 0 sctp 48 -------S 0 1.0 0.0 1 7 19 65535 65535
r 2.449504 0 1 sctp 1500 -------D 0 0.0 1.0 1 8 17 0 7
r 2.578272 1 0 sctp 48 -------S 0 1.0 0.0 1 5 18 65535 65535
+ 2.578272 0 1 sctp 1500 -------D 0 0.0 1.0 1 9 20 0 8
- 2.578272 0 1 sctp 1500 -------D 0 0.0 1.0 1 9 20 0 8
+ 2.578272 0 1 sctp 1500 -------D 0 0.0 1.0 1 10 21 0 9
d 2.578272 0 1 sctp 1500 -------D 0 0.0 1.0 1 11 22 0 10
- 2.602272 0 1 sctp 1500 -------D 0 0.0 1.0 1 10 21 0 9
r 2.626272 1 0 sctp 48 -------S 0 1.0 0.0 1 7 19 65535 65535
d 2.626272 0 1 sctp 1500 -------D 0 0.0 1.0 1 12 23 0 11
+ 2.626272 0 1 sctp 1500 -------D 0 0.0 1.0 1 13 24 0 12
d 2.626272 0 1 sctp 1500 -------D 0 0.0 1.0 1 14 25 0 13
- 2.626272 0 1 sctp 1500 -------D 0 0.0 1.0 1 13 24 0 12
+ 2.649504 1 0 sctp 48 -------S 0 1.0 0.0 1 8 26 65535 65535
- 2.649504 1 0 sctp 48 -------S 0 1.0 0.0 1 8 26 65535 65535
r 2.802272 0 1 sctp 1500 -------D 0 0.0 1.0 1 9 20 0 8
r 2.826272 0 1 sctp 1500 -------D 0 0.0 1.0 1 10 21 0 9
+ 2.826272 1 0 sctp 48 -------S 0 1.0 0.0 1 10 27 65535 65535
- 2.826272 1 0 sctp 48 -------S 0 1.0 0.0 1 10 27 65535 65535
r 2.850272 0 1 sctp 1500 -------D 0 0.0 1.0 1 13 24 0 12
+ 2.850272 1 0 sctp 52 -------S 0 1.0 0.0 1 10 28 65535 65535
- 2.850272 1 0 sctp 52 -------S 0 1.0 0.0 1 10 28 65535 65535
r 2.850272 1 0 sctp 48 -------S 0 1.0 0.0 1 8 26 65535 65535
+ 2.850272 0 1 sctp 1500 -------D 0 0.0 1.0 1 15 29 0 14
- 2.850272 0 1 sctp 1500 -------D 0 0.0 1.0 1 15 29 0 14
+ 2.850272 0 1 sctp 1500 -------D 0 0.0 1.0 1 16 30 0 15
- 2.874272 0 1 sctp 1500 -------D 0 0.0 1.0 1 16 30 0 15
r 3.02704 1 0 sctp 48 -------S 0 1.0 0.0 1 10 27 65535 65535
+ 3.02704 0 1 sctp 1500 -------D 0 0.0 1.0 1 17 31 0 16
- 3.02704 0 1 sctp 1500 -------D 0 0.0 1.0 1 17 31 0 16
+ 3.02704 0 1 sctp 1500 -------D 0 0.0 1.0 1 18 32 0 17
+ 3.02704 0 1 sctp 1500 -------D 0 0.0 1.0 1 19 33 0 18
- 3.05104 0 1 sctp 1500 -------D 0 0.0 1.0 1 18 32 0 17
r 3.051104 1 0 sctp 52 -------S 0 1.0 0.0 1 10 28 65535 65535
+ 3.051104 0 1 sctp 1500 -------D 0 0.0 1.0 1 20 34 0 19
r 3.074272 0 1 sctp 1500 -------D 0 0.0 1.0 1 15 29 0 14
+ 3.074272 1 0 sctp 56 -------S 0 1.0 0.0 1 10 35 65535 65535
- 3.074272 1 0 sctp 56 -------S 0 1.0 0.0 1 10 35 65535 65535
- 3.07504 0 1 sctp 1500 -------D 0 0.0 1.0 1 19 33 0 18
r 3.098272 0 1 sctp 1500 -------D 0 0.0 1.0 1 16 30 0 15
+ 3.098272 1 0 sctp 56 -------S 0 1.0 0.0 1 10 36 65535 65535
- 3.098272 1 0 sctp 56 -------S 0 1.0 0.0 1 10 36 65535 65535
- 3.09904 0 1 sctp 1500 -------D 0 0.0 1.0 1 20 34 0 19
r 3.25104 0 1 sctp 1500 -------D 0 0.0 1.0 1 17 31 0 16
+ 3.25104 1 0 sctp 56 -------S 0 1.0 0.0 1 10 37 65535 65535
- 3.25104 1 0 sctp 56 -------S 0 1.0 0.0 1 10 37 65535 65535
r 3.27504 0 1 sctp 1500 -------D 0 0.0 1.0 1 18 32 0 17
+ 3.27504 1 0 sctp 56 -------S 0 1.0 0.0 1 10 38 65535 65535
- 3.27504 1 0 sctp 56 -------S 0 1.0 0.0 1 10 38 65535 65535
r 3.275168 1 0 sctp 56 -------S 0 1.0 0.0 1 10 35 65535 65535
+ 3.275168 0 1 sctp 1500 -------D 0 0.0 1.0 1 21 39 0 20
- 3.275168 0 1 sctp 1500 -------D 0 0.0 1.0 1 21 39 0 20
r 3.29904 0 1 sctp 1500 -------D 0 0.0 1.0 1 19 33 0 18
+ 3.29904 1 0 sctp 56 -------S 0 1.0 0.0 1 10 40 65535 65535
- 3.29904 1 0 sctp 56 -------S 0 1.0 0.0 1 10 40 65535 65535
r 3.299168 1 0 sctp 56 -------S 0 1.0 0.0 1 10 36 65535 65535
+ 3.299168 0 1 sctp 1500 -------D 0 0.0 1.0 1 11 41 0 10
- 3.299168 0 1 sctp 1500 -------D 0 0.0 1.0 1 11 41 0 10
r 3.32304 0 1 sctp 1500 -------D 0 0.0 1.0 1 20 34 0 19
+ 3.32304 1 0 sctp 56 -------S 0 1.0 0.0 1 10 42 65535 65535
- 3.32304 1 0 sctp 56 -------S 0 1.0 0.0 1 10 42 65535 65535
r 3.451936 1 0 sctp 56 -------S 0 1.0 0.0 1 10 37 65535 65535
+ 3.451936 0 1 sctp 1500 -------D 0 0.0 1.0 1 12 43 0 11
- 3.451936 0 1 sctp 1500 -------D 0 0.0 1.0 1 12 43 0 11
r 3.475936 1 0 sctp 56 -------S 0 1.0 0.0 1 10 38 65535 65535
r 3.499168 0 1 sctp 1500 -------D 0 0.0 1.0 1 21 39 0 20
+ 3.499168 1 0 sctp 56 -------S 0 1.0 0.0 1 10 44 65535 65535
- 3.499168 1 0 sctp 56 -------S 0 1.0 0.0 1 10 44 65535 65535
r 3.499936 1 0 sctp 56 -------S 0 1.0 0.0 1 10 40 65535 65535
+ 3.499936 0 1 sctp 1500 -------D 0 0.0 1.0 1 14 45 0 13
- 3.499936 0 1 sctp 1500 -------D 0 0.0 1.0 1 14 45 0 13
r 3.523168 0 1 sctp 1500 -------D 0 0.0 1.0 1 11 41 0 10
+ 3.523168 1 0 sctp 56 -------S 0 1.0 0.0 1 11 46 65535 65535
- 3.523168 1 0 sctp 56 -------S 0 1.0 0.0 1 11 46 65535 65535
r 3.523936 1 0 sctp 56 -------S 0 1.0 0.0 1 10 42 65535 65535
+ 3.523936 0 1 sctp 1500 -------D 0 0.0 1.0 1 22 47 0 21
- 3.523936 0 1 sctp 1500 -------D 0 0.0 1.0 1 22 47 0 21
r 3.675936 0 1 sctp 1500 -------D 0 0.0 1.0 1 12 43 0 11
+ 3.675936 1 0 sctp 52 -------S 0 1.0 0.0 1 13 48 65535 65535
- 3.675936 1 0 sctp 52 -------S 0 1.0 0.0 1 13 48 65535 65535
r 3.700064 1 0 sctp 56 -------S 0 1.0 0.0 1 10 44 65535 65535
+ 3.700064 0 1 sctp 1500 -------D 0 0.0 1.0 1 23 49 0 22
- 3.700064 0 1 sctp 1500 -------D 0 0.0 1.0 1 23 49 0 22
r 3.723936 0 1 sctp 1500 -------D 0 0.0 1.0 1 14 45 0 13
r 3.724064 1 0 sctp 56 -------S 0 1.0 0.0 1 11 46 65535 65535
+ 3.724064 0 1 sctp 1500 -------D 0 0.0 1.0 1 24 50 0 23
- 3.724064 0 1 sctp 1500 -------D 0 0.0 1.0 1 24 50 0 23
r 3.747936 0 1 sctp 1500 -------D 0 0.0 1.0 1 22 47 0 21
+ 3.747936 1 0 sctp 48 -------S 0 1.0 0.0 1 22 51 65535 65535
- 3.747936 1 0 sctp 48 -------S 0 1.0 0.0 1 22 51 65535 65535
r 3.876768 1 0 sctp 52 -------S 0 1.0 0.0 1 13 48 65535 65535
+ 3.876768 0 1 sctp 1500 -------D 0 0.0 1.0 1 25 52 0 24
- 3.876768 0 1 sctp 1500 -------D 0 0.0 1.0 1 25 52 0 24
r 3.924064 0 1 sctp 1500 -------D 0 0.0 1.0 1 23 49 0 22
r 3.948064 0 1 sctp 1500 -------D 0 0.0 1.0 1 24 50 0 23
+ 3.948064 1 0 sctp 48 -------S 0 1.0 0.0 1 24 53 65535 65535
- 3.948064 1 0 sctp 48 -------S 0 1.0 0.0 1 24 53 65535 65535
r 3.948704 1 0 sctp 48 -------S 0 1.0 0.0 1 22 51 65535 65535
+ 3.948704 0 1 sctp 1500 -------D 0 0.0 1.0 1 26 54 0 25
- 3.948704 0 1 sctp 1500 -------D 0 0.0 1.0 1 26 54 0 25
+ 3.948704 0 1 sctp 1500 -------D 0 0.0 1.0 1 27 55 0 26
+ 3.948704 0 1 sctp 1500 -------D 0 0.0 1.0 1 28 56 0 27
- 3.972704 0 1 sctp 1500 -------D 0 0.0 1.0 1 27 55 0 26
- 3.996704 0 1 sctp 1500 -------D 0 0.0 1.0 1 28 56 0 27
r 4.100768 0 1 sctp 1500 -------D 0 0.0 1.0 1 25 52 0 24
r 4.148832 1 0 sctp 48 -------S 0 1.0 0.0 1 24 53 65535 65535
+ 4.148832 0 1 sctp 1500 -------D 0 0.0 1.0 1 29 57 0 28
- 4.148832 0 1 sctp 1500 -------D 0 0.0 1.0 1 29 57 0 28
+ 4.148832 0 1 sctp 1500 -------D 0 0.0 1.0 1 30 58 0 29
r 4.172704 0 1 sctp 1500 -------D 0 0.0 1.0 1 26 54 0 25
+ 4.172704 1 0 sctp 48 -------S 0 1.0 0.0 1 26 59 65535 65535
- 4.172704 1 0 sctp 48 -------S 0 1.0 0.0 1 26 59 65535 65535
- 4.172832 0 1 sctp 1500 -------D 0 0.0 1.0 1 30 58 0 29
r 4.196704 0 1 sctp 1500 -------D 0 0.0 1.0 1 27 55 0 26
r 4.220704 0 1 sctp 1500 -------D 0 0.0 1.0 1 28 56 0 27
+ 4.220704 1 0 sctp 48 -------S 0 1.0 0.0 1 28 60 65535 65535
- 4.220704 1 0 sctp 48 -------S 0 1.0 0.0 1 28 60 65535 65535
r 4.372832 0 1 sctp 1500 -------D 0 0.0 1.0 1 29 57 0 28
r 4.373472 1 0 sctp 48 -------S 0 1.0 0.0 1 26 59 65535 65535
+ 4.373472 0 1 sctp 1500 -------D 0 0.0 1.0 1 31 61 0 30
- 4.373472 0 1 sctp 1500 -------D 0 0.0 1.0 1 31 61 0 30
+ 4.373472 0 1 sctp 1500 -------D 0 0.0 1.0 1 32 62 0 31
r 4.396832 0 1 sctp 1500 -------D 0 0.0 1.0 1 30 58 0 29
+ 4.396832 1 0 sctp 48 -------S 0 1.0 0.0 1 30 63 65535 65535
- 4.396832 1 0 sctp 48 -------S 0 1.0 0.0 1 30 63 65535 65535
- 4.397472 0 1 sctp 1500 -------D 0 0.0 1.0 1 32 62 0 31
r 4.421472 1 0 sctp 48 -------S 0 1.0 0.0 1 28 60 65535 65535
+ 4.421472 0 1 sctp 1500 -------D 0 0.0 1.0 1 33 64 0 32
+ 4.421472 0 1 sctp 1500 -------D 0 0.0 1.0 1 34 65 0 33
+ 4.421472 0 1 sctp 1500 -------D 0 0.0 1.0 1 35 66 0 34
- 4.421472 0 1 sctp 1500 -------D 0 0.0 1.0 1 33 64 0 32
- 4.445472 0 1 sctp 1500 -------D 0 0.0 1.0 1 34 65 0 33
- 4.469472 0 1 sctp 1500 -------D 0 0.0 1.0 1 35 66 0 34
r 4.597472 0 1 sctp 1500 -------D 0 0.0 1.0 1 31 61 0 30
r 4.5976 1 0 sctp 48 -------S 0 1.0 0.0 1 30 63 65535 65535
+ 4.5976 0 1 sctp 1500 -------D 0 0.0 1.0 1 36 67 0 35
- 4.5976 0 1 sctp 1500 -------D 0 0.0 1.0 1 36 67 0 35
+ 4.5976 0 1 sctp 1500 -------D 0 0.0 1.0 1 37 68 0 36
r 4.621472 0 1 sctp 1500 -------D 0 0.0 1.0 1 32 62 0 31
+ 4.621472 1 0 sctp 48 -------S 0 1.0 0.0 1 32 69 65535 65535
- 4.621472 1 0 sctp 48 -------S 0 1.0 0.0 1 32 69 65535 65535
- 4.6216 0 1 sctp 1500 -------D 0 0.0 1.0 1 37 68 0 36
r 4.645472 0 1 sctp 1500 -------D 0 0.0 1.0 1 33 64 0 32
r 4.669472 0 1 sctp 1500 -------D 0 0.0 1.0 1 34 65 0 33
+ 4.669472 1 0 sctp 48 -------S 0 1.0 0.0 1 34 70 65535 65535
- 4.669472 1 0 sctp 48 -------S 0 1.0 0.0 1 34 70 65535 65535
r 4.693472 0 1 sctp 1500 -------D 0 0.0 1.0 1 35 66 0 34
r 4.8216 0 1 sctp 1500 -------D 0 0.0 1.0 1 36 67 0 35
+ 4.8216 1 0 sctp 48 -------S 0 1.0 0.0 1 36 71 65535 65535
- 4.8216 1 0 sctp 48 -------S 0 1.0 0.0 1 36 71 65535 65535
r 4.82224 1 0 sctp 48 -------S 0 1.0 0.0 1 32 69 65535 65535
+ 4.82224 0 1 sctp 1500 -------D 0 0.0 1.0 1 38 72 0 37
- 4.82224 0 1 sctp 1500 -------D 0 0.0 1.0 1 38 72 0 37
+ 4.82224 0 1 sctp 1500 -------D 0 0.0 1.0 1 39 73 0 38
r 4.8456 0 1 sctp 1500 -------D 0 0.0 1.0 1 37 68 0 36
- 4.84624 0 1 sctp 1500 -------D 0 0.0 1.0 1 39 73 0 38
r 4.87024 1 0 sctp 48 -------S 0 1.0 0.0 1 34 70 65535 65535
+ 4.87024 0 1 sctp 1500 -------D 0 0.0 1.0 1 40 74 0 39
+ 4.87024 0 1 sctp 1500 -------D 0 0.0 1.0 1 41 75 0 40
+ 4.87024 0 1 sctp 1500 -------D 0 0.0 1.0 1 42 76 0 41
- 4.87024 0 1 sctp 1500 -------D 0 0.0 1.0 1 40 74 0 39
- 4.89424 0 1 sctp 1500 -------D 0 0.0 1.0 1 41 75 0 40
- 4.91824 0 1 sctp 1500 -------D 0 0.0 1.0 1 42 76 0 41
r 5.022368 1 0 sctp 48 -------S 0 1.0 0.0 1 36 71 65535 65535
+ 5.022368 0 1 sctp 1500 -------D 0 0.0 1.0 1 43 77 0 42
- 5.022368 0 1 sctp 1500 -------D 0 0.0 1.0 1 43 77 0 42
+ 5.022368 0 1 sctp 1500 -------D 0 0.0 1.0 1 44 78 0 43
+ 5.0456 1 0 sctp 48 -------S 0 1.0 0.0 1 37 79 65535 65535
- 5.0456 1 0 sctp 48 -------S 0 1.0 0.0 1 37 79 65535 65535
r 5.04624 0 1 sctp 1500 -------D 0 0.0 1.0 1 38 72 0 37
- 5.046368 0 1 sctp 1500 -------D 0 0.0 1.0 1 44 78 0 43
r 5.07024 0 1 sctp 1500 -------D 0 0.0 1.0 1 39 73 0 38
+ 5.07024 1 0 sctp 48 -------S 0 1.0 0.0 1 39 80 65535 65535
- 5.07024 1 0 sctp 48 -------S 0 1.0 0.0 1 39 80 65535 65535
r 5.09424 0 1 sctp 1500 -------D 0 0.0 1.0 1 40 74 0 39
r 5.11824 0 1 sctp 1500 -------D 0 0.0 1.0 1 41 75 0 40
+ 5.11824 1 0 sctp 48 -------S 0 1.0 0.0 1 41 81 65535 65535
- 5.11824 1 0 sctp 48 -------S 0 1.0 0.0 1 41 81 65535 65535
r 5.14224 0 1 sctp 1500 -------D 0 0.0 1.0 1 42 76 0 41
r 5.246368 0 1 sctp 1500 -------D 0 0.0 1.0 1 43 77 0 42
+ 5.246368 1 0 sctp 48 -------S 0 1.0 0.0 1 43 82 65535 65535
- 5.246368 1 0 sctp 48 -------S 0 1.0 0.0 1 43 82 65535 65535
r 5.246368 1 0 sctp 48 -------S 0 1.0 0.0 1 37 79 65535 65535
+ 5.246368 0 1 sctp 1500 -------D 0 0.0 1.0 1 45 83 0 44
- 5.246368 0 1 sctp 1500 -------D 0 0.0 1.0 1 45 83 0 44
r 5.270368 0 1 sctp 1500 -------D 0 0.0 1.0 1 44 78 0 43
r 5.271008 1 0 sctp 48 -------S 0 1.0 0.0 1 39 80 65535 65535
+ 5.271008 0 1 sctp 1500 -------D 0 0.0 1.0 1 46 84 0 45
- 5.271008 0 1 sctp 1500 -------D 0 0.0 1.0 1 46 84 0 45
+ 5.271008 0 1 sctp 1500 -------D 0 0.0 1.0 1 47 85 0 46
- 5.295008 0 1 sctp 1500 -------D 0 0.0 1.0 1 47 85 0 46
r 5.319008 1 0 sctp 48 -------S 0 1.0 0.0 1 41 81 65535 65535
+ 5.319008 0 1 sctp 1500 -------D 0 0.0 1.0 1 48 86 0 47
+ 5.319008 0 1 sctp 1500 -------D 0 0.0 1.0 1 49 87 0 48
- 5.319008 0 1 sctp 1500 -------D 0 0.0 1.0 1 48 86 0 47
- 5.343008 0 1 sctp 1500 -------D 0 0.0 1.0 1 49 87 0 48
r 5.447136 1 0 sctp 48 -------S 0 1.0 0.0 1 43 82 65535 65535
+ 5.447136 0 1 sctp 1500 -------D 0 0.0 1.0 1 50 88 0 49
- 5.447136 0 1 sctp 1500 -------D 0 0.0 1.0 1 50 88 0 49
+ 5.447136 0 1 sctp 1500 -------D 0 0.0 1.0 1 51 89 0 50
+ 5.447136 0 1 sctp 1500 -------D 0 0.0 1.0 1 52 90 0 51
r 5.470368 0 1 sctp 1500 -------D 0 0.0 1.0 1 45 83 0 44
+ 5.470368 1 0 sctp 48 -------S 0 1.0 0.0 1 45 91 65535 65535
- 5.470368 1 0 sctp 48 -------S 0 1.0 0.0 1 45 91 65535 65535
- 5.471136 0 1 sctp 1500 -------D 0 0.0 1.0 1 51 89 0 50
r 5.495008 0 1 sctp 1500 -------D 0 0.0 1.0 1 46 84 0 45
- 5.495136 0 1 sctp 1500 -------D 0 0.0 1.0 1 52 90 0 51
r 5.519008 0 1 sctp 1500 -------D 0 0.0 1.0 1 47 85 0 46
+ 5.519008 1 0 sctp 48 -------S 0 1.0 0.0 1 47 92 65535 65535
- 5.519008 1 0 sctp 48 -------S 0 1.0 0.0 1 47 92 65535 65535
r 5.543008 0 1 sctp 1500 -------D 0 0.0 1.0 1 48 86 0 47
r 5.567008 0 1 sctp 1500 -------D 0 0.0 1.0 1 49 87 0 48
+ 5.567008 1 0 sctp 48 -------S 0 1.0 0.0 1 49 93 65535 65535
- 5.567008 1 0 sctp 48 -------S 0 1.0 0.0 1 49 93 65535 65535
r 5.671136 0 1 sctp 1500 -------D 0 0.0 1.0 1 50 88 0 49
r 5.671136 1 0 sctp 48 -------S 0 1.0 0.0 1 45 91 65535 65535
+ 5.671136 0 1 sctp 1500 -------D 0 0.0 1.0 1 53 94 0 52
- 5.671136 0 1 sctp 1500 -------D 0 0.0 1.0 1 53 94 0 52
+ 5.671136 0 1 sctp 1500 -------D 0 0.0 1.0 1 54 95 0 53
r 5.695136 0 1 sctp 1500 -------D 0 0.0 1.0 1 51 89 0 50
+ 5.695136 1 0 sctp 48 -------S 0 1.0 0.0 1 51 96 65535 65535
- 5.695136 1 0 sctp 48 -------S 0 1.0 0.0 1 51 96 65535 65535
- 5.695136 0 1 sctp 1500 -------D 0 0.0 1.0 1 54 95 0 53
r 5.719136 0 1 sctp 1500 -------D 0 0.0 1.0 1 52 90 0 51
r 5.719776 1 0 sctp 48 -------S 0 1.0 0.0 1 47 92 65535 65535
+ 5.719776 0 1 sctp 1500 -------D 0 0.0 1.0 1 55 97 0 54
- 5.719776 0 1 sctp 1500 -------D 0 0.0 1.0 1 55 97 0 54
+ 5.719776 0 1 sctp 1500 -------D 0 0.0 1.0 1 56 98 0 55
- 5.743776 0 1 sctp 1500 -------D 0 0.0 1.0 1 56 98 0 55
r 5.767776 1 0 sctp 48 -------S 0 1.0 0.0 1 49 93 65535 65535
+ 5.767776 0 1 sctp 1500 -------D 0 0.0 1.0 1 57 99 0 56
+ 5.767776 0 1 sctp 1500 -------D 0 0.0 1.0 1 58 100 0 57
- 5.767776 0 1 sctp 1500 -------D 0 0.0 1.0 1 57 99 0 56
- 5.791776 0 1 sctp 1500 -------D 0 0.0 1.0 1 58 100 0 57
r 5.895136 0 1 sctp 1500 -------D 0 0.0 1.0 1 53 94 0 52
+ 5.895136 1 0 sctp 48 -------S 0 1.0 0.0 1 53 101 65535 65535
- 5.895136 1 0 sctp 48 -------S 0 1.0 0.0 1 53 101 65535 65535
r 5.895904 1 0 sctp 48 -------S 0 1.0 0.0 1 51 96 65535 65535
+ 5.895904 0 1 sctp 1500 -------D 0 0.0 1.0 1 59 102 0 58
- 5.895904 0 1 sctp 1500 -------D 0 0.0 1.0 1 59 102 0 58
+ 5.895904 0 1 sctp 1500 -------D 0 0.0 1.0 1 60 103 0 59
+ 5.895904 0 1 sctp 1500 -------D 0 0.0 1.0 1 61 104 0 60
r 5.919136 0 1 sctp 1500 -------D 0 0.0 1.0 1 54 95 0 53
- 5.919904 0 1 sctp 1500 -------D 0 0.0 1.0 1 60 103 0 59
r 5.943776 0 1 sctp 1500 -------D 0 0.0 1.0 1 55 97 0 54
+ 5.943776 1 0 sctp 48 -------S 0 1.0 0.0 1 55 105 65535 65535
- 5.943776 1 0 sctp 48 -------S 0 1.0 0.0 1 55 105 65535 65535
- 5.943904 0 1 sctp 1500 -------D 0 0.0 1.0 1 61 104 0 60
r 5.967776 0 1 sctp 1500 -------D 0 0.0 1.0 1 56 98 0 55
r 5.991776 0 1 sctp 1500 -------D 0 0.0 1.0 1 57 99 0 56
+ 5.991776 1 0 sctp 48 -------S 0 1.0 0.0 1 57 106 65535 65535
- 5.991776 1 0 sctp 48 -------S 0 1.0 0.0 1 57 106 65535 65535
r 6.015776 0 1 sctp 1500 -------D 0 0.0 1.0 1 58 100 0 57
r 6.095904 1 0 sctp 48 -------S 0 1.0 0.0 1 53 101 65535 65535
+ 6.095904 0 1 sctp 1500 -------D 0 0.0 1.0 1 62 107 0 61
- 6.095904 0 1 sctp 1500 -------D 0 0.0 1.0 1 62 107 0 61
+ 6.095904 0 1 sctp 1500 -------D 0 0.0 1.0 1 63 108 0 62
r 6.119904 0 1 sctp 1500 -------D 0 0.0 1.0 1 59 102 0 58
+ 6.119904 1 0 sctp 48 -------S 0 1.0 0.0 1 59 109 65535 65535
- 6.119904 1 0 sctp 48 -------S 0 1.0 0.0 1 59 109 65535 65535
- 6.119904 0 1 sctp 1500 -------D 0 0.0 1.0 1 63 108 0 62
r 6.143904 0 1 sctp 1500 -------D 0 0.0 1.0 1 60 103 0 59
r 6.144544 1 0 sctp 48 -------S 0 1.0 0.0 1 55 105 65535 65535
+ 6.144544 0 1 sctp 1500 -------D 0 0.0 1.0 1 64 110 0 63
- 6.144544 0 1 sctp 1500 -------D 0 0.0 1.0 1 64 110 0 63
+ 6.144544 0 1 sctp 1500 -------D 0 0.0 1.0 1 65 111 0 64
r 6.167904 0 1 sctp 1500 -------D 0 0.0 1.0 1 61 104 0 60
+ 6.167904 1 0 sctp 48 -------S 0 1.0 0.0 1 61 112 65535 65535
- 6.167904 1 0 sctp 48 -------S 0 1.0 0.0 1 61 112 65535 65535
- 6.168544 0 1 sctp 1500 -------D 0 0.0 1.0 1 65 111 0 64
r 6.192544 1 0 sctp 48 -------S 0 1.0 0.0 1 57 106 65535 65535
+ 6.192544 0 1 sctp 1500 -------D 0 0.0 1.0 1 66 113 0 65
+ 6.192544 0 1 sctp 1500 -------D 0 0.0 1.0 1 67 114 0 66
- 6.192544 0 1 sctp 1500 -------D 0 0.0 1.0 1 66 113 0 65
- 6.216544 0 1 sctp 1500 -------D 0 0.0 1.0 1 67 114 0 66
r 6.319904 0 1 sctp 1500 -------D 0 0.0 1.0 1 62 107 0 61
r 6.320672 1 0 sctp 48 -------S 0 1.0 0.0 1 59 109 65535 65535
+ 6.320672 0 1 sctp 1500 -------D 0 0.0 1.0 1 68 115 0 67
- 6.320672 0 1 sctp 1500 -------D 0 0.0 1.0 1 68 115 0 67
+ 6.320672 0 1 sctp 1500 -------D 0 0.0 1.0 1 69 116 0 68
r 6.343904 0 1 sctp 1500 -------D 0 0.0 1.0 1 63 108 0 62
+ 6.343904 1 0 sctp 48 -------S 0 1.0 0.0 1 63 117 65535 65535
- 6.343904 1 0 sctp 48 -------S 0 1.0 0.0 1 63 117 65535 65535
- 6.344672 0 1 sctp 1500 -------D 0 0.0 1.0 1 69 116 0 68
r 6.368544 0 1 sctp 1500 -------D 0 0.0 1.0 1 64 110 0 63
r 6.368672 1 0 sctp 48 -------S 0 1.0 0.0 1 61 112 65535 65535
+ 6.368672 0 1 sctp 1500 -------D 0 0.0 1.0 1 70 118 0 69
+ 6.368672 0 1 sctp 1500 -------D 0 0.0 1.0 1 71 119 0 70
+ 6.368672 0 1 sctp 1500 -------D 0 0.0 1.0 1 72 120 0 71
- 6.368672 0 1 sctp 1500 -------D 0 0.0 1.0 1 70 118 0 69
r 6.392544 0 1 sctp 1500 -------D 0 0.0 1.0 1 65 111 0 64
+ 6.392544 1 0 sctp 48 -------S 0 1.0 0.0 1 65 121 65535 65535
- 6.392544 1 0 sctp 48 -------S 0 1.0 0.0 1 65 121 65535 65535
- 6.392672 0 1 sctp 1500 -------D 0 0.0 1.0 1 71 119 0 70
r 6.416544 0 1 sctp 1500 -------D 0 0.0 1.0 1 66 113 0 65
- 6.416672 0 1 sctp 1500 -------D 0 0.0 1.0 1 72 120 0 71
r 6.440544 0 1 sctp 1500 -------D 0 0.0 1.0 1 67 114 0 66
+ 6.440544 1 0 sctp 48 -------S 0 1.0 0.0 1 67 122 65535 65535
- 6.440544 1 0 sctp 48 -------S 0 1.0 0.0 1 67 122 65535 65535
r 6.544672 0 1 sctp 1500 -------D 0 0.0 1.0 1 68 115 0 67
r 6.544672 1 0 sctp 48 -------S 0 1.0 0.0 1 63 117 65535 65535
+ 6.544672 0 1 sctp 1500 -------D 0 0.0 1.0 1 73 123 0 72
- 6.544672 0 1 sctp 1500 -------D 0 0.0 1.0 1 73 123 0 72
+ 6.544672 0 1 sctp 1500 -------D 0 0.0 1.0 1 74 124 0 73
r 6.568672 0 1 sctp 1500 -------D 0 0.0 1.0 1 69 116 0 68
+ 6.568672 1 0 sctp 48 -------S 0 1.0 0.0 1 69 125 65535 65535
- 6.568672 1 0 sctp 48 -------S 0 1.0 0.0 1 69 125 65535 65535
- 6.568672 0 1 sctp 1500 -------D 0 0.0 1.0 1 74 124 0 73
r 6.592672 0 1 sctp 1500 -------D 0 0.0 1.0 1 70 118 0 69
r 6.593312 1 0 sctp 48 -------S 0 1.0 0.0 1 65 121 65535 65535
+ 6.593312 0 1 sctp 1500 -------D 0 0.0 1.0 1 75 126 0 74
- 6.593312 0 1 sctp 1500 -------D 0 0.0 1.0 1 75 126 0 74
+ 6.593312 0 1 sctp 1500 -------D 0 0.0 1.0 1 76 127 0 75
r 6.616672 0 1 sctp 1500 -------D 0 0.0 1.0 1 71 119 0 70
+ 6.616672 1 0 sctp 48 -------S 0 1.0 0.0 1 71 128 65535 65535
- 6.616672 1 0 sctp 48 -------S 0 1.0 0.0 1 71 128 65535 65535
- 6.617312 0 1 sctp 1500 -------D 0 0.0 1.0 1 76 127 0 75
r 6.640672 0 1 sctp 1500 -------D 0 0.0 1.0 1 72 120 0 71
r 6.641312 1 0 sctp 48 -------S 0 1.0 0.0 1 67 122 65535 65535
+ 6.641312 0 1 sctp 1500 -------D 0 0.0 1.0 1 77 129 0 76
+ 6.641312 0 1 sctp 1500 -------D 0 0.0 1.0 1 78 130 0 77
- 6.641312 0 1 sctp 1500 -------D 0 0.0 1.0 1 77 129 0 76
- 6.665312 0 1 sctp 1500 -------D 0 0.0 1.0 1 78 130 0 77
r 6.768672 0 1 sctp 1500 -------D 0 0.0 1.0 1 73 123 0 72
+ 6.768672 1 0 sctp 48 -------S 0 1.0 0.0 1 73 131 65535 65535
- 6.768672 1 0 sctp 48 -------S 0 1.0 0.0 1 73 131 65535 65535
r 6.76944 1 0 sctp 48 -------S 0 1.0 0.0 1 69 125 65535 65535
+ 6.76944 0 1 sctp 1500 -------D 0 0.0 1.0 1 79 132 0 78
- 6.76944 0 1 sctp 1500 -------D 0 0.0 1.0 1 79 132 0 78
+ 6.76944 0 1 sctp 1500 -------D 0 0.0 1.0 1 80 133 0 79
r 6.792672 0 1 sctp 1500 -------D 0 0.0 1.0 1 74 124 0 73
- 6.79344 0 1 sctp 1500 -------D 0 0.0 1.0 1 80 133 0 79
r 6.817312 0 1 sctp 1500 -------D 0 0.0 1.0 1 75 126 0 74
+ 6.817312 1 0 sctp 48 -------S 0 1.0 0.0 1 75 134 65535 65535
- 6.817312 1 0 sctp 48 -------S 0 1.0 0.0 1 75 134 65535 65535
r 6.81744 1 0 sctp 48 -------S 0 1.0 0.0 1 71 128 65535 65535
+ 6.81744 0 1 sctp 1500 -------D 0 0.0 1.0 1 81 135 0 80
+ 6.81744 0 1 sctp 1500 -------D 0 0.0 1.0 1 82 136 0 81
+ 6.81744 0 1 sctp 1500 -------D 0 0.0 1.0 1 83 137 0 82
- 6.81744 0 1 sctp 1500 -------D 0 0.0 1.0 1 81 135 0 80
r 6.841312 0 1 sctp 1500 -------D 0 0.0 1.0 1 76 127 0 75
- 6.84144 0 1 sctp 1500 -------D 0 0.0 1.0 1 82 136 0 81
r 6.865312 0 1 sctp 1500 -------D 0 0.0 1.0 1 77 129 0 76
+ 6.865312 1 0 sctp 48 -------S 0 1.0 0.0 1 77 138 65535 65535
- 6.865312 1 0 sctp 48 -------S 0 1.0 0.0 1 77 138 65535 65535
- 6.86544 0 1 sctp 1500 -------D 0 0.0 1.0 1 83 137 0 82
r 6.889312 0 1 sctp 1500 -------D 0 0.0 1.0 1 78 130 0 77
r 6.96944 1 0 sctp 48 -------S 0 1.0 0.0 1 73 131 65535 65535
+ 6.96944 0 1 sctp 1500 -------D 0 0.0 1.0 1 84 139 0 83
- 6.96944 0 1 sctp 1500 -------D 0 0.0 1.0 1 84 139 0 83
+ 6.96944 0 1 sctp 1500 -------D 0 0.0 1.0 1 85 140 0 84
r 6.99344 0 1 sctp 1500 -------D 0 0.0 1.0 1 79 132 0 78
+ 6.99344 1 0 sctp 48 -------S 0 1.0 0.0 1 79 141 65535 65535
- 6.99344 1 0 sctp 48 -------S 0 1.0 0.0 1 79 141 65535 65535
- 6.99344 0 1 sctp 1500 -------D 0 0.0 1.0 1 85 140 0 84
