+ 0.5 1 4 sctp 56 -------I 0 1.0 4.0 1 -1 4 65535 65535
- 0.5 1 4 sctp 56 -------I 0 1.0 4.0 1 -1 4 65535 65535
r 0.700896 1 4 sctp 56 -------I 0 1.0 4.0 1 -1 4 65535 65535
+ 0.700896 4 1 sctp 56 -------I 0 4.0 1.0 1 -1 5 65535 65535
- 0.700896 4 1 sctp 56 -------I 0 4.0 1.0 1 -1 5 65535 65535
r 0.901792 4 1 sctp 56 -------I 0 4.0 1.0 1 -1 5 65535 65535
+ 0.901792 1 4 sctp 36 -------I 0 1.0 4.0 1 -1 6 65535 65535
- 0.901792 1 4 sctp 36 -------I 0 1.0 4.0 1 -1 6 65535 65535
r 1.102368 1 4 sctp 36 -------I 0 1.0 4.0 1 -1 6 65535 65535
+ 1.102368 4 1 sctp 36 -------I 0 4.0 1.0 1 -1 7 65535 65535
- 1.102368 4 1 sctp 36 -------I 0 4.0 1.0 1 -1 7 65535 65535
r 1.302944 4 1 sctp 36 -------I 0 4.0 1.0 1 -1 7 65535 65535
+ 1.302944 1 4 sctp 56 -------H 0 1.0 4.0 1 -1 8 65535 65535
- 1.302944 1 4 sctp 56 -------H 0 1.0 4.0 1 -1 8 65535 65535
+ 1.302944 2 5 sctp 56 -------H 0 2.0 5.0 1 -1 9 65535 65535
- 1.302944 2 5 sctp 56 -------H 0 2.0 5.0 1 -1 9 65535 65535
r 1.50384 1 4 sctp 56 -------H 0 1.0 4.0 1 -1 8 65535 65535
+ 1.50384 4 1 sctp 56 -------B 0 4.0 1.0 1 -1 10 65535 65535
- 1.50384 4 1 sctp 56 -------B 0 4.0 1.0 1 -1 10 65535 65535
r 1.50384 2 5 sctp 56 -------H 0 2.0 5.0 1 -1 9 65535 65535
+ 1.50384 5 2 sctp 56 -------B 0 5.0 2.0 1 -1 11 65535 65535
- 1.50384 5 2 sctp 56 -------B 0 5.0 2.0 1 -1 11 65535 65535
r 1.704736 4 1 sctp 56 -------B 0 4.0 1.0 1 -1 10 65535 65535
r 1.704736 5 2 sctp 56 -------B 0 5.0 2.0 1 -1 11 65535 65535
+ 1.704736 1 4 sctp 1500 -------D 0 1.0 4.0 1 1 12 0 0
- 1.704736 1 4 sctp 1500 -------D 0 1.0 4.0 1 1 12 0 0
+ 1.704736 1 4 sctp 1500 -------D 0 1.0 4.0 1 2 13 0 1
+ 1.704736 1 4 sctp 1500 -------D 0 1.0 4.0 1 3 14 0 2
+ 1.704736 1 4 sctp 1500 -------D 0 1.0 4.0 1 4 15 0 3
- 1.728736 1 4 sctp 1500 -------D 0 1.0 4.0 1 2 13 0 1
- 1.752736 1 4 sctp 1500 -------D 0 1.0 4.0 1 3 14 0 2
- 1.776736 1 4 sctp 1500 -------D 0 1.0 4.0 1 4 15 0 3
r 1.928736 1 4 sctp 1500 -------D 0 1.0 4.0 1 1 12 0 0
+ 1.928736 4 1 sctp 60 -------S 0 4.0 1.0 1 1 16 65535 65535
- 1.928736 4 1 sctp 60 -------S 0 4.0 1.0 1 1 16 65535 65535
r 1.952736 1 4 sctp 1500 -------D 0 1.0 4.0 1 2 13 0 1
r 1.976736 1 4 sctp 1500 -------D 0 1.0 4.0 1 3 14 0 2
+ 1.976736 4 1 sctp 60 -------S 0 4.0 1.0 1 3 17 65535 65535
- 1.976736 4 1 sctp 60 -------S 0 4.0 1.0 1 3 17 65535 65535
r 2.000736 1 4 sctp 1500 -------D 0 1.0 4.0 1 4 15 0 3
r 2.129696 4 1 sctp 60 -------S 0 4.0 1.0 1 1 16 65535 65535
+ 2.129696 1 4 sctp 1500 -------D 0 1.0 4.0 1 5 18 0 4
- 2.129696 1 4 sctp 1500 -------D 0 1.0 4.0 1 5 18 0 4
+ 2.129696 1 4 sctp 1500 -------D 0 1.0 4.0 1 6 19 0 5
- 2.153696 1 4 sctp 1500 -------D 0 1.0 4.0 1 6 19 0 5
r 2.177696 4 1 sctp 60 -------S 0 4.0 1.0 1 3 17 65535 65535
+ 2.177696 1 4 sctp 1500 -------D 0 1.0 4.0 1 7 20 0 6
+ 2.177696 1 4 sctp 1500 -------D 0 1.0 4.0 1 8 21 0 7
+ 2.177696 1 4 sctp 1500 -------D 0 1.0 4.0 1 9 22 0 8
- 2.177696 1 4 sctp 1500 -------D 0 1.0 4.0 1 7 20 0 6
+ 2.200736 4 1 sctp 60 -------S 0 4.0 1.0 1 4 23 65535 65535
- 2.200736 4 1 sctp 60 -------S 0 4.0 1.0 1 4 23 65535 65535
- 2.201696 1 4 sctp 1500 -------D 0 1.0 4.0 1 8 21 0 7
- 2.225696 1 4 sctp 1500 -------D 0 1.0 4.0 1 9 22 0 8
r 2.353696 1 4 sctp 1500 -------D 0 1.0 4.0 1 5 18 0 4
r 2.377696 1 4 sctp 1500 -------D 0 1.0 4.0 1 6 19 0 5
+ 2.377696 4 1 sctp 60 -------S 0 4.0 1.0 1 6 24 65535 65535
- 2.377696 4 1 sctp 60 -------S 0 4.0 1.0 1 6 24 65535 65535
r 2.401696 1 4 sctp 1500 -------D 0 1.0 4.0 1 7 20 0 6
r 2.401696 4 1 sctp 60 -------S 0 4.0 1.0 1 4 23 65535 65535
+ 2.401696 1 4 sctp 1500 -------D 0 1.0 4.0 1 10 25 0 9
- 2.401696 1 4 sctp 1500 -------D 0 1.0 4.0 1 10 25 0 9
+ 2.401696 1 4 sctp 1500 -------D 0 1.0 4.0 1 11 26 0 10
r 2.425696 1 4 sctp 1500 -------D 0 1.0 4.0 1 8 21 0 7
+ 2.425696 4 1 sctp 60 -------S 0 4.0 1.0 1 8 27 65535 65535
- 2.425696 4 1 sctp 60 -------S 0 4.0 1.0 1 8 27 65535 65535
- 2.425696 1 4 sctp 1500 -------D 0 1.0 4.0 1 11 26 0 10
r 2.449696 1 4 sctp 1500 -------D 0 1.0 4.0 1 9 22 0 8
r 2.578656 4 1 sctp 60 -------S 0 4.0 1.0 1 6 24 65535 65535
+ 2.578656 1 4 sctp 1500 -------D 0 1.0 4.0 1 12 28 0 11
- 2.578656 1 4 sctp 1500 -------D 0 1.0 4.0 1 12 28 0 11
+ 2.578656 1 4 sctp 1500 -------D 0 1.0 4.0 1 13 29 0 12
d 2.578656 1 4 sctp 1500 -------D 0 1.0 4.0 1 14 30 0 13
- 2.602656 1 4 sctp 1500 -------D 0 1.0 4.0 1 13 29 0 12
r 2.625696 1 4 sctp 1500 -------D 0 1.0 4.0 1 10 25 0 9
+ 2.625696 4 1 sctp 60 -------S 0 4.0 1.0 1 10 31 65535 65535
- 2.625696 4 1 sctp 60 -------S 0 4.0 1.0 1 10 31 65535 65535
r 2.626656 4 1 sctp 60 -------S 0 4.0 1.0 1 8 27 65535 65535
d 2.626656 1 4 sctp 1500 -------D 0 1.0 4.0 1 15 32 0 14
d 2.626656 1 4 sctp 1500 -------D 0 1.0 4.0 1 16 33 0 15
+ 2.626656 1 4 sctp 1500 -------D 0 1.0 4.0 1 17 34 0 16
- 2.626656 1 4 sctp 1500 -------D 0 1.0 4.0 1 17 34 0 16
r 2.649696 1 4 sctp 1500 -------D 0 1.0 4.0 1 11 26 0 10
r 2.802656 1 4 sctp 1500 -------D 0 1.0 4.0 1 12 28 0 11
+ 2.802656 4 1 sctp 60 -------S 0 4.0 1.0 1 12 35 65535 65535
- 2.802656 4 1 sctp 60 -------S 0 4.0 1.0 1 12 35 65535 65535
r 2.826656 1 4 sctp 1500 -------D 0 1.0 4.0 1 13 29 0 12
r 2.826656 4 1 sctp 60 -------S 0 4.0 1.0 1 10 31 65535 65535
+ 2.826656 1 4 sctp 1500 -------D 0 1.0 4.0 1 18 36 0 17
- 2.826656 1 4 sctp 1500 -------D 0 1.0 4.0 1 18 36 0 17
+ 2.826656 1 4 sctp 1500 -------D 0 1.0 4.0 1 19 37 0 18
+ 2.826656 1 4 sctp 1500 -------D 0 1.0 4.0 1 20 38 0 19
r 2.850656 1 4 sctp 1500 -------D 0 1.0 4.0 1 17 34 0 16
+ 2.850656 4 1 sctp 64 -------S 0 4.0 1.0 1 13 39 65535 65535
- 2.850656 4 1 sctp 64 -------S 0 4.0 1.0 1 13 39 65535 65535
- 2.850656 1 4 sctp 1500 -------D 0 1.0 4.0 1 19 37 0 18
- 2.874656 1 4 sctp 1500 -------D 0 1.0 4.0 1 20 38 0 19
r 3.003616 4 1 sctp 60 -------S 0 4.0 1.0 1 12 35 65535 65535
+ 3.003616 1 4 sctp 1500 -------D 0 1.0 4.0 1 21 40 0 20
- 3.003616 1 4 sctp 1500 -------D 0 1.0 4.0 1 21 40 0 20
+ 3.003616 1 4 sctp 1500 -------D 0 1.0 4.0 1 22 41 0 21
+ 3.003616 1 4 sctp 1500 -------D 0 1.0 4.0 1 23 42 0 22
- 3.027616 1 4 sctp 1500 -------D 0 1.0 4.0 1 22 41 0 21
r 3.050656 1 4 sctp 1500 -------D 0 1.0 4.0 1 18 36 0 17
+ 3.050656 4 1 sctp 64 -------S 0 4.0 1.0 1 13 43 65535 65535
- 3.050656 4 1 sctp 64 -------S 0 4.0 1.0 1 13 43 65535 65535
- 3.051616 1 4 sctp 1500 -------D 0 1.0 4.0 1 23 42 0 22
r 3.05168 4 1 sctp 64 -------S 0 4.0 1.0 1 13 39 65535 65535
+ 3.05168 1 4 sctp 1500 -------D 0 1.0 4.0 1 24 44 0 23
+ 3.05168 1 4 sctp 1500 -------D 0 1.0 4.0 1 25 45 0 24
+ 3.05168 1 4 sctp 1500 -------D 0 1.0 4.0 1 26 46 0 25
r 3.074656 1 4 sctp 1500 -------D 0 1.0 4.0 1 19 37 0 18
+ 3.074656 4 1 sctp 64 -------S 0 4.0 1.0 1 13 47 65535 65535
- 3.074656 4 1 sctp 64 -------S 0 4.0 1.0 1 13 47 65535 65535
- 3.075616 1 4 sctp 1500 -------D 0 1.0 4.0 1 24 44 0 23
r 3.098656 1 4 sctp 1500 -------D 0 1.0 4.0 1 20 38 0 19
+ 3.098656 4 1 sctp 64 -------S 0 4.0 1.0 1 13 48 65535 65535
- 3.098656 4 1 sctp 64 -------S 0 4.0 1.0 1 13 48 65535 65535
- 3.099616 1 4 sctp 1500 -------D 0 1.0 4.0 1 25 45 0 24
- 3.123616 1 4 sctp 1500 -------D 0 1.0 4.0 1 26 46 0 25
r 3.227616 1 4 sctp 1500 -------D 0 1.0 4.0 1 21 40 0 20
+ 3.227616 4 1 sctp 64 -------S 0 4.0 1.0 1 13 49 65535 65535
- 3.227616 4 1 sctp 64 -------S 0 4.0 1.0 1 13 49 65535 65535
r 3.251616 1 4 sctp 1500 -------D 0 1.0 4.0 1 22 41 0 21
+ 3.251616 4 1 sctp 64 -------S 0 4.0 1.0 1 13 50 65535 65535
- 3.251616 4 1 sctp 64 -------S 0 4.0 1.0 1 13 50 65535 65535
r 3.25168 4 1 sctp 64 -------S 0 4.0 1.0 1 13 43 65535 65535
+ 3.25168 1 4 sctp 1500 -------D 0 1.0 4.0 1 27 51 0 26
- 3.25168 1 4 sctp 1500 -------D 0 1.0 4.0 1 27 51 0 26
r 3.275616 1 4 sctp 1500 -------D 0 1.0 4.0 1 23 42 0 22
+ 3.275616 4 1 sctp 64 -------S 0 4.0 1.0 1 13 52 65535 65535
- 3.275616 4 1 sctp 64 -------S 0 4.0 1.0 1 13 52 65535 65535
r 3.27568 4 1 sctp 64 -------S 0 4.0 1.0 1 13 47 65535 65535
+ 3.27568 2 5 sctp 1500 -------D 0 2.0 5.0 1 14 53 0 13
- 3.27568 2 5 sctp 1500 -------D 0 2.0 5.0 1 14 53 0 13
r 3.299616 1 4 sctp 1500 -------D 0 1.0 4.0 1 24 44 0 23
+ 3.299616 4 1 sctp 64 -------S 0 4.0 1.0 1 13 54 65535 65535
- 3.299616 4 1 sctp 64 -------S 0 4.0 1.0 1 13 54 65535 65535
r 3.29968 4 1 sctp 64 -------S 0 4.0 1.0 1 13 48 65535 65535
+ 3.29968 2 5 sctp 1500 -------D 0 2.0 5.0 1 15 55 0 14
+ 3.29968 2 5 sctp 1500 -------D 0 2.0 5.0 1 16 56 0 15
- 3.29968 2 5 sctp 1500 -------D 0 2.0 5.0 1 15 55 0 14
r 3.323616 1 4 sctp 1500 -------D 0 1.0 4.0 1 25 45 0 24
+ 3.323616 4 1 sctp 64 -------S 0 4.0 1.0 1 13 57 65535 65535
- 3.323616 4 1 sctp 64 -------S 0 4.0 1.0 1 13 57 65535 65535
- 3.32368 2 5 sctp 1500 -------D 0 2.0 5.0 1 16 56 0 15
r 3.347616 1 4 sctp 1500 -------D 0 1.0 4.0 1 26 46 0 25
+ 3.347616 4 1 sctp 64 -------S 0 4.0 1.0 1 13 58 65535 65535
- 3.347616 4 1 sctp 64 -------S 0 4.0 1.0 1 13 58 65535 65535
r 3.42864 4 1 sctp 64 -------S 0 4.0 1.0 1 13 49 65535 65535
r 3.45264 4 1 sctp 64 -------S 0 4.0 1.0 1 13 50 65535 65535
+ 3.45264 1 4 sctp 1500 -------D 0 1.0 4.0 1 28 59 0 27
- 3.45264 1 4 sctp 1500 -------D 0 1.0 4.0 1 28 59 0 27
r 3.47568 1 4 sctp 1500 -------D 0 1.0 4.0 1 27 51 0 26
+ 3.47568 4 1 sctp 64 -------S 0 4.0 1.0 1 13 60 65535 65535
- 3.47568 4 1 sctp 64 -------S 0 4.0 1.0 1 13 60 65535 65535
r 3.47664 4 1 sctp 64 -------S 0 4.0 1.0 1 13 52 65535 65535
+ 3.47664 1 4 sctp 1500 -------D 0 1.0 4.0 1 29 61 0 28
- 3.47664 1 4 sctp 1500 -------D 0 1.0 4.0 1 29 61 0 28
r 3.49968 2 5 sctp 1500 -------D 0 2.0 5.0 1 14 53 0 13
+ 3.49968 5 2 sctp 64 -------S 0 5.0 2.0 1 14 62 65535 65535
- 3.49968 5 2 sctp 64 -------S 0 5.0 2.0 1 14 62 65535 65535
r 3.50064 4 1 sctp 64 -------S 0 4.0 1.0 1 13 54 65535 65535
+ 3.50064 1 4 sctp 1500 -------D 0 1.0 4.0 1 30 63 0 29
- 3.50064 1 4 sctp 1500 -------D 0 1.0 4.0 1 30 63 0 29
r 3.52368 2 5 sctp 1500 -------D 0 2.0 5.0 1 15 55 0 14
+ 3.52368 5 2 sctp 64 -------S 0 5.0 2.0 1 15 64 65535 65535
- 3.52368 5 2 sctp 64 -------S 0 5.0 2.0 1 15 64 65535 65535
r 3.52464 4 1 sctp 64 -------S 0 4.0 1.0 1 13 57 65535 65535
+ 3.52464 1 4 sctp 1500 -------D 0 1.0 4.0 1 31 65 0 30
- 3.52464 1 4 sctp 1500 -------D 0 1.0 4.0 1 31 65 0 30
r 3.54768 2 5 sctp 1500 -------D 0 2.0 5.0 1 16 56 0 15
r 3.54864 4 1 sctp 64 -------S 0 4.0 1.0 1 13 58 65535 65535
+ 3.54864 1 4 sctp 1500 -------D 0 1.0 4.0 1 32 66 0 31
- 3.54864 1 4 sctp 1500 -------D 0 1.0 4.0 1 32 66 0 31
r 3.67664 1 4 sctp 1500 -------D 0 1.0 4.0 1 28 59 0 27
+ 3.67664 4 1 sctp 60 -------S 0 4.0 1.0 1 28 67 65535 65535
- 3.67664 4 1 sctp 60 -------S 0 4.0 1.0 1 28 67 65535 65535
r 3.676704 4 1 sctp 64 -------S 0 4.0 1.0 1 13 60 65535 65535
+ 3.676704 1 4 sctp 1500 -------D 0 1.0 4.0 1 33 68 0 32
- 3.676704 1 4 sctp 1500 -------D 0 1.0 4.0 1 33 68 0 32
r 3.70064 1 4 sctp 1500 -------D 0 1.0 4.0 1 29 61 0 28
r 3.700704 5 2 sctp 64 -------S 0 5.0 2.0 1 14 62 65535 65535
r 3.72464 1 4 sctp 1500 -------D 0 1.0 4.0 1 30 63 0 29
+ 3.72464 4 1 sctp 60 -------S 0 4.0 1.0 1 30 69 65535 65535
- 3.72464 4 1 sctp 60 -------S 0 4.0 1.0 1 30 69 65535 65535
r 3.724704 5 2 sctp 64 -------S 0 5.0 2.0 1 15 64 65535 65535
r 3.74864 1 4 sctp 1500 -------D 0 1.0 4.0 1 31 65 0 30
r 3.77264 1 4 sctp 1500 -------D 0 1.0 4.0 1 32 66 0 31
+ 3.77264 4 1 sctp 60 -------S 0 4.0 1.0 1 32 70 65535 65535
- 3.77264 4 1 sctp 60 -------S 0 4.0 1.0 1 32 70 65535 65535
r 3.8776 4 1 sctp 60 -------S 0 4.0 1.0 1 28 67 65535 65535
+ 3.8776 1 4 sctp 1500 -------D 0 1.0 4.0 1 34 71 0 33
- 3.8776 1 4 sctp 1500 -------D 0 1.0 4.0 1 34 71 0 33
+ 3.8776 1 4 sctp 1500 -------D 0 1.0 4.0 1 35 72 0 34
r 3.900704 1 4 sctp 1500 -------D 0 1.0 4.0 1 33 68 0 32
- 3.9016 1 4 sctp 1500 -------D 0 1.0 4.0 1 35 72 0 34
r 3.9256 4 1 sctp 60 -------S 0 4.0 1.0 1 30 69 65535 65535
+ 3.9256 1 4 sctp 1500 -------D 0 1.0 4.0 1 36 73 0 35
+ 3.9256 1 4 sctp 1500 -------D 0 1.0 4.0 1 37 74 0 36
- 3.9256 1 4 sctp 1500 -------D 0 1.0 4.0 1 36 73 0 35
- 3.9496 1 4 sctp 1500 -------D 0 1.0 4.0 1 37 74 0 36
r 3.9736 4 1 sctp 60 -------S 0 4.0 1.0 1 32 70 65535 65535
+ 3.9736 1 4 sctp 1500 -------D 0 1.0 4.0 1 38 75 0 37
+ 3.9736 1 4 sctp 1500 -------D 0 1.0 4.0 1 39 76 0 38
- 3.9736 1 4 sctp 1500 -------D 0 1.0 4.0 1 38 75 0 37
- 3.9976 1 4 sctp 1500 -------D 0 1.0 4.0 1 39 76 0 38
+ 4.100704 4 1 sctp 60 -------S 0 4.0 1.0 1 33 77 65535 65535
- 4.100704 4 1 sctp 60 -------S 0 4.0 1.0 1 33 77 65535 65535
r 4.1016 1 4 sctp 1500 -------D 0 1.0 4.0 1 34 71 0 33
r 4.1256 1 4 sctp 1500 -------D 0 1.0 4.0 1 35 72 0 34
+ 4.1256 4 1 sctp 60 -------S 0 4.0 1.0 1 35 78 65535 65535
- 4.1256 4 1 sctp 60 -------S 0 4.0 1.0 1 35 78 65535 65535
r 4.1496 1 4 sctp 1500 -------D 0 1.0 4.0 1 36 73 0 35
r 4.1736 1 4 sctp 1500 -------D 0 1.0 4.0 1 37 74 0 36
+ 4.1736 4 1 sctp 60 -------S 0 4.0 1.0 1 37 79 65535 65535
- 4.1736 4 1 sctp 60 -------S 0 4.0 1.0 1 37 79 65535 65535
r 4.1976 1 4 sctp 1500 -------D 0 1.0 4.0 1 38 75 0 37
r 4.2216 1 4 sctp 1500 -------D 0 1.0 4.0 1 39 76 0 38
+ 4.2216 4 1 sctp 60 -------S 0 4.0 1.0 1 39 80 65535 65535
- 4.2216 4 1 sctp 60 -------S 0 4.0 1.0 1 39 80 65535 65535
r 4.301664 4 1 sctp 60 -------S 0 4.0 1.0 1 33 77 65535 65535
+ 4.301664 1 4 sctp 1500 -------D 0 1.0 4.0 1 40 81 0 39
- 4.301664 1 4 sctp 1500 -------D 0 1.0 4.0 1 40 81 0 39
r 4.32656 4 1 sctp 60 -------S 0 4.0 1.0 1 35 78 65535 65535
+ 4.32656 1 4 sctp 1500 -------D 0 1.0 4.0 1 41 82 0 40
- 4.32656 1 4 sctp 1500 -------D 0 1.0 4.0 1 41 82 0 40
+ 4.32656 1 4 sctp 1500 -------D 0 1.0 4.0 1 42 83 0 41
+ 4.32656 1 4 sctp 1500 -------D 0 1.0 4.0 1 43 84 0 42
- 4.35056 1 4 sctp 1500 -------D 0 1.0 4.0 1 42 83 0 41
r 4.37456 4 1 sctp 60 -------S 0 4.0 1.0 1 37 79 65535 65535
+ 4.37456 1 4 sctp 1500 -------D 0 1.0 4.0 1 44 85 0 43
+ 4.37456 1 4 sctp 1500 -------D 0 1.0 4.0 1 45 86 0 44
- 4.37456 1 4 sctp 1500 -------D 0 1.0 4.0 1 43 84 0 42
- 4.39856 1 4 sctp 1500 -------D 0 1.0 4.0 1 44 85 0 43
r 4.42256 4 1 sctp 60 -------S 0 4.0 1.0 1 39 80 65535 65535
+ 4.42256 1 4 sctp 1500 -------D 0 1.0 4.0 1 46 87 0 45
+ 4.42256 1 4 sctp 1500 -------D 0 1.0 4.0 1 47 88 0 46
- 4.42256 1 4 sctp 1500 -------D 0 1.0 4.0 1 45 86 0 44
- 4.44656 1 4 sctp 1500 -------D 0 1.0 4.0 1 46 87 0 45
- 4.47056 1 4 sctp 1500 -------D 0 1.0 4.0 1 47 88 0 46
r 4.525664 1 4 sctp 1500 -------D 0 1.0 4.0 1 40 81 0 39
r 4.55056 1 4 sctp 1500 -------D 0 1.0 4.0 1 41 82 0 40
+ 4.55056 4 1 sctp 60 -------S 0 4.0 1.0 1 41 89 65535 65535
- 4.55056 4 1 sctp 60 -------S 0 4.0 1.0 1 41 89 65535 65535
r 4.57456 1 4 sctp 1500 -------D 0 1.0 4.0 1 42 83 0 41
r 4.59856 1 4 sctp 1500 -------D 0 1.0 4.0 1 43 84 0 42
+ 4.59856 4 1 sctp 60 -------S 0 4.0 1.0 1 43 90 65535 65535
- 4.59856 4 1 sctp 60 -------S 0 4.0 1.0 1 43 90 65535 65535
r 4.62256 1 4 sctp 1500 -------D 0 1.0 4.0 1 44 85 0 43
r 4.64656 1 4 sctp 1500 -------D 0 1.0 4.0 1 45 86 0 44
+ 4.64656 4 1 sctp 60 -------S 0 4.0 1.0 1 45 91 65535 65535
- 4.64656 4 1 sctp 60 -------S 0 4.0 1.0 1 45 91 65535 65535
r 4.67056 1 4 sctp 1500 -------D 0 1.0 4.0 1 46 87 0 45
r 4.69456 1 4 sctp 1500 -------D 0 1.0 4.0 1 47 88 0 46
+ 4.69456 4 1 sctp 60 -------S 0 4.0 1.0 1 47 92 65535 65535
- 4.69456 4 1 sctp 60 -------S 0 4.0 1.0 1 47 92 65535 65535
r 4.75152 4 1 sctp 60 -------S 0 4.0 1.0 1 41 89 65535 65535
r 4.79952 4 1 sctp 60 -------S 0 4.0 1.0 1 43 90 65535 65535
r 4.84752 4 1 sctp 60 -------S 0 4.0 1.0 1 45 91 65535 65535
r 4.89552 4 1 sctp 60 -------S 0 4.0 1.0 1 47 92 65535 65535
