+ 0.5 1 4 sctp 56 -------I 0 1.0 4.0 1 -1 4 65535 65535
- 0.5 1 4 sctp 56 -------I 0 1.0 4.0 1 -1 4 65535 65535
r 0.700896 1 4 sctp 56 -------I 0 1.0 4.0 1 -1 4 65535 65535
+ 0.700896 4 1 sctp 56 -------I 0 4.0 1.0 1 -1 5 65535 65535
- 0.700896 4 1 sctp 56 -------I 0 4.0 1.0 1 -1 5 65535 65535
r 0.901792 4 1 sctp 56 -------I 0 4.0 1.0 1 -1 5 65535 65535
+ 0.901792 1 4 sctp 36 -------I 0 1.0 4.0 1 -1 6 65535 65535
- 0.901792 1 4 sctp 36 -------I 0 1.0 4.0 1 -1 6 65535 65535
r 1.102368 1 4 sctp 36 -------I 0 1.0 4.0 1 -1 6 65535 65535
+ 1.102368 4 1 sctp 36 -------I 0 4.0 1.0 1 -1 7 65535 65535
- 1.102368 4 1 sctp 36 -------I 0 4.0 1.0 1 -1 7 65535 65535
r 1.302944 4 1 sctp 36 -------I 0 4.0 1.0 1 -1 7 65535 65535
+ 1.302944 1 4 sctp 56 -------H 0 1.0 4.0 1 -1 8 65535 65535
- 1.302944 1 4 sctp 56 -------H 0 1.0 4.0 1 -1 8 65535 65535
+ 1.302944 2 5 sctp 56 -------H 0 2.0 5.0 1 -1 9 65535 65535
- 1.302944 2 5 sctp 56 -------H 0 2.0 5.0 1 -1 9 65535 65535
r 1.50384 1 4 sctp 56 -------H 0 1.0 4.0 1 -1 8 65535 65535
+ 1.50384 4 1 sctp 56 -------B 0 4.0 1.0 1 -1 10 65535 65535
- 1.50384 4 1 sctp 56 -------B 0 4.0 1.0 1 -1 10 65535 65535
r 1.50384 2 5 sctp 56 -------H 0 2.0 5.0 1 -1 9 65535 65535
+ 1.50384 5 2 sctp 56 -------B 0 5.0 2.0 1 -1 11 65535 65535
- 1.50384 5 2 sctp 56 -------B 0 5.0 2.0 1 -1 11 65535 65535
r 1.704736 4 1 sctp 56 -------B 0 4.0 1.0 1 -1 10 65535 65535
r 1.704736 5 2 sctp 56 -------B 0 5.0 2.0 1 -1 11 65535 65535
+ 1.704736 1 4 sctp 1500 -------D 0 1.0 4.0 1 1 12 0 0
- 1.704736 1 4 sctp 1500 -------D 0 1.0 4.0 1 1 12 0 0
+ 1.704736 1 4 sctp 1500 -------D 0 1.0 4.0 1 2 13 0 1
+ 1.704736 1 4 sctp 1500 -------D 0 1.0 4.0 1 3 14 0 2
- 1.728736 1 4 sctp 1500 -------D 0 1.0 4.0 1 2 13 0 1
- 1.752736 1 4 sctp 1500 -------D 0 1.0 4.0 1 3 14 0 2
r 1.928736 1 4 sctp 1500 -------D 0 1.0 4.0 1 1 12 0 0
+ 1.928736 4 1 sctp 48 -------S 0 4.0 1.0 1 1 15 65535 65535
- 1.928736 4 1 sctp 48 -------S 0 4.0 1.0 1 1 15 65535 65535
r 1.952736 1 4 sctp 1500 -------D 0 1.0 4.0 1 2 13 0 1
r 1.976736 1 4 sctp 1500 -------D 0 1.0 4.0 1 3 14 0 2
+ 1.976736 4 1 sctp 48 -------S 0 4.0 1.0 1 3 16 65535 65535
- 1.976736 4 1 sctp 48 -------S 0 4.0 1.0 1 3 16 65535 65535
r 2.129504 4 1 sctp 48 -------S 0 4.0 1.0 1 1 15 65535 65535
+ 2.129504 1 4 sctp 1500 -------D 0 1.0 4.0 1 4 17 0 3
- 2.129504 1 4 sctp 1500 -------D 0 1.0 4.0 1 4 17 0 3
+ 2.129504 1 4 sctp 1500 -------D 0 1.0 4.0 1 5 18 0 4
- 2.153504 1 4 sctp 1500 -------D 0 1.0 4.0 1 5 18 0 4
r 2.177504 4 1 sctp 48 -------S 0 4.0 1.0 1 3 16 65535 65535
+ 2.177504 1 4 sctp 1500 -------D 0 1.0 4.0 1 6 19 0 5
+ 2.177504 1 4 sctp 1500 -------D 0 1.0 4.0 1 7 20 0 6
+ 2.177504 1 4 sctp 1500 -------D 0 1.0 4.0 1 8 21 0 7
- 2.177504 1 4 sctp 1500 -------D 0 1.0 4.0 1 6 19 0 5
- 2.201504 1 4 sctp 1500 -------D 0 1.0 4.0 1 7 20 0 6
- 2.225504 1 4 sctp 1500 -------D 0 1.0 4.0 1 8 21 0 7
r 2.353504 1 4 sctp 1500 -------D 0 1.0 4.0 1 4 17 0 3
r 2.377504 1 4 sctp 1500 -------D 0 1.0 4.0 1 5 18 0 4
+ 2.377504 4 1 sctp 48 -------S 0 4.0 1.0 1 5 22 65535 65535
- 2.377504 4 1 sctp 48 -------S 0 4.0 1.0 1 5 22 65535 65535
r 2.401504 1 4 sctp 1500 -------D 0 1.0 4.0 1 6 19 0 5
r 2.425504 1 4 sctp 1500 -------D 0 1.0 4.0 1 7 20 0 6
+ 2.425504 4 1 sctp 48 -------S 0 4.0 1.0 1 7 23 65535 65535
- 2.425504 4 1 sctp 48 -------S 0 4.0 1.0 1 7 23 65535 65535
r 2.449504 1 4 sctp 1500 -------D 0 1.0 4.0 1 8 21 0 7
r 2.578272 4 1 sctp 48 -------S 0 4.0 1.0 1 5 22 65535 65535
+ 2.578272 1 4 sctp 1500 -------D 0 1.0 4.0 1 9 24 0 8
- 2.578272 1 4 sctp 1500 -------D 0 1.0 4.0 1 9 24 0 8
+ 2.578272 1 4 sctp 1500 -------D 0 1.0 4.0 1 10 25 0 9
+ 2.578272 1 4 sctp 1500 -------D 0 1.0 4.0 1 11 26 0 10
- 2.602272 1 4 sctp 1500 -------D 0 1.0 4.0 1 10 25 0 9
r 2.626272 4 1 sctp 48 -------S 0 4.0 1.0 1 7 23 65535 65535
+ 2.626272 1 4 sctp 1500 -------D 0 1.0 4.0 1 12 27 0 11
+ 2.626272 1 4 sctp 1500 -------D 0 1.0 4.0 1 13 28 0 12
d 2.626272 1 4 sctp 1500 -------D 0 1.0 4.0 1 14 29 0 13
- 2.626272 1 4 sctp 1500 -------D 0 1.0 4.0 1 11 26 0 10
+ 2.649504 4 1 sctp 48 -------S 0 4.0 1.0 1 8 30 65535 65535
- 2.649504 4 1 sctp 48 -------S 0 4.0 1.0 1 8 30 65535 65535
- 2.650272 1 4 sctp 1500 -------D 0 1.0 4.0 1 12 27 0 11
- 2.674272 1 4 sctp 1500 -------D 0 1.0 4.0 1 13 28 0 12
r 2.802272 1 4 sctp 1500 -------D 0 1.0 4.0 1 9 24 0 8
r 2.826272 1 4 sctp 1500 -------D 0 1.0 4.0 1 10 25 0 9
+ 2.826272 4 1 sctp 48 -------S 0 4.0 1.0 1 10 31 65535 65535
- 2.826272 4 1 sctp 48 -------S 0 4.0 1.0 1 10 31 65535 65535
r 2.850272 1 4 sctp 1500 -------D 0 1.0 4.0 1 11 26 0 10
r 2.850272 4 1 sctp 48 -------S 0 4.0 1.0 1 8 30 65535 65535
d 2.850272 1 4 sctp 1500 -------D 0 1.0 4.0 1 15 32 0 14
d 2.850272 1 4 sctp 1500 -------D 0 1.0 4.0 1 16 33 0 15
r 2.874272 1 4 sctp 1500 -------D 0 1.0 4.0 1 12 27 0 11
+ 2.874272 4 1 sctp 48 -------S 0 4.0 1.0 1 12 34 65535 65535
- 2.874272 4 1 sctp 48 -------S 0 4.0 1.0 1 12 34 65535 65535
r 2.898272 1 4 sctp 1500 -------D 0 1.0 4.0 1 13 28 0 12
r 3.02704 4 1 sctp 48 -------S 0 4.0 1.0 1 10 31 65535 65535
d 3.02704 1 4 sctp 1500 -------D 0 1.0 4.0 1 17 35 0 16
d 3.02704 1 4 sctp 1500 -------D 0 1.0 4.0 1 18 36 0 17
d 3.02704 1 4 sctp 1500 -------D 0 1.0 4.0 1 19 37 0 18
r 3.07504 4 1 sctp 48 -------S 0 4.0 1.0 1 12 34 65535 65535
d 3.07504 1 4 sctp 1500 -------D 0 1.0 4.0 1 20 38 0 19
d 3.07504 1 4 sctp 1500 -------D 0 1.0 4.0 1 21 39 0 20
d 3.07504 1 4 sctp 1500 -------D 0 1.0 4.0 1 22 40 0 21
+ 3.098272 4 1 sctp 48 -------S 0 4.0 1.0 1 13 41 65535 65535
- 3.098272 4 1 sctp 48 -------S 0 4.0 1.0 1 13 41 65535 65535
r 3.29904 4 1 sctp 48 -------S 0 4.0 1.0 1 13 41 65535 65535
d 3.29904 1 4 sctp 1500 -------D 0 1.0 4.0 1 23 42 0 22
d 3.29904 1 4 sctp 1500 -------D 0 1.0 4.0 1 24 43 0 23
d 4.29904 2 5 sctp 1500 -------D 0 2.0 5.0 1 14 44 0 13
d 5.504416 1 4 sctp 1500 -------D 0 1.0 4.0 1 14 45 0 13
d 7.504416 2 5 sctp 1500 -------D 0 2.0 5.0 1 14 46 0 13
d 9.915168 1 4 sctp 1500 -------D 0 1.0 4.0 1 14 47 0 13
d 13.915168 2 5 sctp 1500 -------D 0 2.0 5.0 1 14 48 0 13
d 18.736672 1 4 sctp 1500 -------D 0 1.0 4.0 1 14 49 0 13
d 26.736672 2 5 sctp 1500 -------D 0 2.0 5.0 1 14 50 0 13
+ 32.603387 4 1 sctp 56 -------H 0 4.0 1.0 1 -1 51 65535 65535
- 32.603387 4 1 sctp 56 -------H 0 4.0 1.0 1 -1 51 65535 65535
r 32.804283 4 1 sctp 56 -------H 0 4.0 1.0 1 -1 51 65535 65535
d 32.804283 1 4 sctp 56 -------B 0 1.0 4.0 1 -1 52 65535 65535
d 32.977469 2 5 sctp 56 -------H 0 2.0 5.0 1 -1 53 65535 65535
+ 35.603387 4 1 sctp 56 -------H 0 4.0 1.0 1 -1 54 65535 65535
- 35.603387 4 1 sctp 56 -------H 0 4.0 1.0 1 -1 54 65535 65535
r 35.804283 4 1 sctp 56 -------H 0 4.0 1.0 1 -1 54 65535 65535
d 35.804283 1 4 sctp 56 -------B 0 1.0 4.0 1 -1 55 65535 65535
d 36.37968 1 4 sctp 1500 -------D 0 1.0 4.0 1 14 56 0 13
+ 41.603387 4 1 sctp 56 -------H 0 4.0 1.0 1 -1 57 65535 65535
- 41.603387 4 1 sctp 56 -------H 0 4.0 1.0 1 -1 57 65535 65535
r 41.804283 4 1 sctp 56 -------H 0 4.0 1.0 1 -1 57 65535 65535
d 41.804283 1 4 sctp 56 -------B 0 1.0 4.0 1 -1 58 65535 65535
d 42.620477 2 5 sctp 56 -------H 0 2.0 5.0 1 -1 59 65535 65535
d 52.37968 2 5 sctp 1500 -------D 0 2.0 5.0 1 14 60 0 13
+ 53.603387 4 1 sctp 56 -------H 0 4.0 1.0 1 -1 61 65535 65535
- 53.603387 4 1 sctp 56 -------H 0 4.0 1.0 1 -1 61 65535 65535
r 53.804283 4 1 sctp 56 -------H 0 4.0 1.0 1 -1 61 65535 65535
d 53.804283 1 4 sctp 56 -------B 0 1.0 4.0 1 -1 62 65535 65535
+ 64.146001 5 2 sctp 56 -------H 0 5.0 2.0 1 -1 63 65535 65535
- 64.146001 5 2 sctp 56 -------H 0 5.0 2.0 1 -1 63 65535 65535
r 64.346897 5 2 sctp 56 -------H 0 5.0 2.0 1 -1 63 65535 65535
d 64.346897 2 5 sctp 56 -------B 0 2.0 5.0 1 -1 64 65535 65535
+ 67.146001 5 2 sctp 56 -------H 0 5.0 2.0 1 -1 65 65535 65535
- 67.146001 5 2 sctp 56 -------H 0 5.0 2.0 1 -1 65 65535 65535
r 67.346897 5 2 sctp 56 -------H 0 5.0 2.0 1 -1 65 65535 65535
d 67.346897 2 5 sctp 56 -------B 0 2.0 5.0 1 -1 66 65535 65535
d 68.648741 1 4 sctp 56 -------H 0 1.0 4.0 1 -1 67 65535 65535
+ 73.146001 5 2 sctp 56 -------H 0 5.0 2.0 1 -1 68 65535 65535
- 73.146001 5 2 sctp 56 -------H 0 5.0 2.0 1 -1 68 65535 65535
r 73.346897 5 2 sctp 56 -------H 0 5.0 2.0 1 -1 68 65535 65535
d 73.346897 2 5 sctp 56 -------B 0 2.0 5.0 1 -1 69 65535 65535
+ 77.603387 4 1 sctp 56 -------H 0 4.0 1.0 1 -1 70 65535 65535
- 77.603387 4 1 sctp 56 -------H 0 4.0 1.0 1 -1 70 65535 65535
r 77.804283 4 1 sctp 56 -------H 0 4.0 1.0 1 -1 70 65535 65535
d 77.804283 1 4 sctp 56 -------B 0 1.0 4.0 1 -1 71 65535 65535
+ 85.146001 5 2 sctp 56 -------H 0 5.0 2.0 1 -1 72 65535 65535
- 85.146001 5 2 sctp 56 -------H 0 5.0 2.0 1 -1 72 65535 65535
r 85.346897 5 2 sctp 56 -------H 0 5.0 2.0 1 -1 72 65535 65535
+ 109.146001 5 2 sctp 56 -------H 0 5.0 2.0 1 -1 73 65535 65535
- 109.146001 5 2 sctp 56 -------H 0 5.0 2.0 1 -1 73 65535 65535
r 109.346897 5 2 sctp 56 -------H 0 5.0 2.0 1 -1 73 65535 65535
+ 125.603387 4 1 sctp 56 -------H 0 4.0 1.0 1 -1 74 65535 65535
- 125.603387 4 1 sctp 56 -------H 0 4.0 1.0 1 -1 74 65535 65535
r 125.804283 4 1 sctp 56 -------H 0 4.0 1.0 1 -1 74 65535 65535
+ 157.146001 5 2 sctp 56 -------H 0 5.0 2.0 1 -1 75 65535 65535
- 157.146001 5 2 sctp 56 -------H 0 5.0 2.0 1 -1 75 65535 65535
r 157.346897 5 2 sctp 56 -------H 0 5.0 2.0 1 -1 75 65535 65535
