+ 0.5 0 1 sctp 56 -------I 0 0.0 1.0 1 -1 2 65535 65535
- 0.5 0 1 sctp 56 -------I 0 0.0 1.0 1 -1 2 65535 65535
r 0.700896 0 1 sctp 56 -------I 0 0.0 1.0 1 -1 2 65535 65535
+ 0.700896 1 0 sctp 56 -------I 0 1.0 0.0 1 -1 3 65535 65535
- 0.700896 1 0 sctp 56 -------I 0 1.0 0.0 1 -1 3 65535 65535
r 0.901792 1 0 sctp 56 -------I 0 1.0 0.0 1 -1 3 65535 65535
+ 0.901792 0 1 sctp 36 -------I 0 0.0 1.0 1 -1 4 65535 65535
- 0.901792 0 1 sctp 36 -------I 0 0.0 1.0 1 -1 4 65535 65535
r 1.102368 0 1 sctp 36 -------I 0 0.0 1.0 1 -1 4 65535 65535
+ 1.102368 1 0 sctp 36 -------I 0 1.0 0.0 1 -1 5 65535 65535
- 1.102368 1 0 sctp 36 -------I 0 1.0 0.0 1 -1 5 65535 65535
r 1.302944 1 0 sctp 36 -------I 0 1.0 0.0 1 -1 5 65535 65535
+ 1.302944 0 1 sctp 56 -------H 0 0.0 1.0 1 -1 6 65535 65535
- 1.302944 0 1 sctp 56 -------H 0 0.0 1.0 1 -1 6 65535 65535
r 1.50384 0 1 sctp 56 -------H 0 0.0 1.0 1 -1 6 65535 65535
+ 1.50384 1 0 sctp 56 -------B 0 1.0 0.0 1 -1 7 65535 65535
- 1.50384 1 0 sctp 56 -------B 0 1.0 0.0 1 -1 7 65535 65535
r 1.704736 1 0 sctp 56 -------B 0 1.0 0.0 1 -1 7 65535 65535
+ 1.704736 0 1 sctp 1500 -------D 0 0.0 1.0 1 1 8 0 0
- 1.704736 0 1 sctp 1500 -------D 0 0.0 1.0 1 1 8 0 0
+ 1.704736 0 1 sctp 1500 -------D 0 0.0 1.0 1 2 9 0 1
+ 1.704736 0 1 sctp 1500 -------D 0 0.0 1.0 1 3 10 0 2
- 1.728736 0 1 sctp 1500 -------D 0 0.0 1.0 1 2 9 0 1
- 1.752736 0 1 sctp 1500 -------D 0 0.0 1.0 1 3 10 0 2
r 1.928736 0 1 sctp 1500 -------D 0 0.0 1.0 1 1 8 0 0
+ 1.928736 1 0 sctp 48 -------S 0 1.0 0.0 1 1 11 65535 65535
- 1.928736 1 0 sctp 48 -------S 0 1.0 0.0 1 1 11 65535 65535
r 1.952736 0 1 sctp 1500 -------D 0 0.0 1.0 1 2 9 0 1
r 1.976736 0 1 sctp 1500 -------D 0 0.0 1.0 1 3 10 0 2
+ 1.976736 1 0 sctp 48 -------S 0 1.0 0.0 1 3 12 65535 65535
- 1.976736 1 0 sctp 48 -------S 0 1.0 0.0 1 3 12 65535 65535
r 2.129504 1 0 sctp 48 -------S 0 1.0 0.0 1 1 11 65535 65535
+ 2.129504 0 1 sctp 1500 -------D 0 0.0 1.0 1 4 13 0 3
- 2.129504 0 1 sctp 1500 -------D 0 0.0 1.0 1 4 13 0 3
+ 2.129504 0 1 sctp 1500 -------D 0 0.0 1.0 1 5 14 0 4
- 2.153504 0 1 sctp 1500 -------D 0 0.0 1.0 1 5 14 0 4
r 2.177504 1 0 sctp 48 -------S 0 1.0 0.0 1 3 12 65535 65535
+ 2.177504 0 1 sctp 1500 -------D 0 0.0 1.0 1 6 15 0 5
+ 2.177504 0 1 sctp 1500 -------D 0 0.0 1.0 1 7 16 0 6
+ 2.177504 0 1 sctp 1500 -------D 0 0.0 1.0 1 8 17 0 7
- 2.177504 0 1 sctp 1500 -------D 0 0.0 1.0 1 6 15 0 5
- 2.201504 0 1 sctp 1500 -------D 0 0.0 1.0 1 7 16 0 6
- 2.225504 0 1 sctp 1500 -------D 0 0.0 1.0 1 8 17 0 7
r 2.353504 0 1 sctp 1500 -------D 0 0.0 1.0 1 4 13 0 3
r 2.377504 0 1 sctp 1500 -------D 0 0.0 1.0 1 5 14 0 4
+ 2.377504 1 0 sctp 48 -------S 0 1.0 0.0 1 5 18 65535 65535
- 2.377504 1 0 sctp 48 -------S 0 1.0 0.0 1 5 18 65535 65535
r 2.401504 0 1 sctp 1500 -------D 0 0.0 1.0 1 6 15 0 5
r 2.425504 0 1 sctp 1500 -------D 0 0.0 1.0 1 7 16 0 6
+ 2.425504 1 0 sctp 48 -------S 0 1.0 0.0 1 7 19 65535 65535
- 2.425504 1 0 sctp 48 -------S 0 1.0 0.0 1 7 19 65535 65535
r 2.449504 0 1 sctp 1500 -------D 0 0.0 1.0 1 8 17 0 7
r 2.578272 1 0 sctp 48 -------S 0 1.0 0.0 1 5 18 65535 65535
+ 2.578272 0 1 sctp 1500 -------D 0 0.0 1.0 1 9 20 0 8
- 2.578272 0 1 sctp 1500 -------D 0 0.0 1.0 1 9 20 0 8
+ 2.578272 0 1 sctp 1500 -------D 0 0.0 1.0 1 10 21 0 9
+ 2.578272 0 1 sctp 1500 -------D 0 0.0 1.0 1 11 22 0 10
- 2.602272 0 1 sctp 1500 -------D 0 0.0 1.0 1 10 21 0 9
r 2.626272 1 0 sctp 48 -------S 0 1.0 0.0 1 7 19 65535 65535
+ 2.626272 0 1 sctp 1500 -------D 0 0.0 1.0 1 12 23 0 11
d 2.626272 0 1 sctp 1500 -------D 0 0.0 1.0 1 13 24 0 12
d 2.626272 0 1 sctp 1500 -------D 0 0.0 1.0 1 14 25 0 13
- 2.626272 0 1 sctp 1500 -------D 0 0.0 1.0 1 11 22 0 10
+ 2.649504 1 0 sctp 48 -------S 0 1.0 0.0 1 8 26 65535 65535
- 2.649504 1 0 sctp 48 -------S 0 1.0 0.0 1 8 26 65535 65535
- 2.650272 0 1 sctp 1500 -------D 0 0.0 1.0 1 12 23 0 11
r 2.802272 0 1 sctp 1500 -------D 0 0.0 1.0 1 9 20 0 8
r 2.826272 0 1 sctp 1500 -------D 0 0.0 1.0 1 10 21 0 9
+ 2.826272 1 0 sctp 48 -------S 0 1.0 0.0 1 10 27 65535 65535
- 2.826272 1 0 sctp 48 -------S 0 1.0 0.0 1 10 27 65535 65535
r 2.850272 0 1 sctp 1500 -------D 0 0.0 1.0 1 11 22 0 10
r 2.850272 1 0 sctp 48 -------S 0 1.0 0.0 1 8 26 65535 65535
d 2.850272 0 1 sctp 1500 -------D 0 0.0 1.0 1 15 28 0 14
d 2.850272 0 1 sctp 1500 -------D 0 0.0 1.0 1 16 29 0 15
r 2.874272 0 1 sctp 1500 -------D 0 0.0 1.0 1 12 23 0 11
+ 2.874272 1 0 sctp 48 -------S 0 1.0 0.0 1 12 30 65535 65535
- 2.874272 1 0 sctp 48 -------S 0 1.0 0.0 1 12 30 65535 65535
r 3.02704 1 0 sctp 48 -------S 0 1.0 0.0 1 10 27 65535 65535
+ 3.02704 0 1 sctp 1500 -------D 0 0.0 1.0 1 17 31 0 16
- 3.02704 0 1 sctp 1500 -------D 0 0.0 1.0 1 17 31 0 16
+ 3.02704 0 1 sctp 1500 -------D 0 0.0 1.0 1 18 32 0 17
+ 3.02704 0 1 sctp 1500 -------D 0 0.0 1.0 1 19 33 0 18
- 3.05104 0 1 sctp 1500 -------D 0 0.0 1.0 1 18 32 0 17
r 3.07504 1 0 sctp 48 -------S 0 1.0 0.0 1 12 30 65535 65535
+ 3.07504 0 1 sctp 1500 -------D 0 0.0 1.0 1 20 34 0 19
+ 3.07504 0 1 sctp 1500 -------D 0 0.0 1.0 1 21 35 0 20
+ 3.07504 0 1 sctp 1500 -------D 0 0.0 1.0 1 22 36 0 21
- 3.07504 0 1 sctp 1500 -------D 0 0.0 1.0 1 19 33 0 18
- 3.09904 0 1 sctp 1500 -------D 0 0.0 1.0 1 20 34 0 19
- 3.12304 0 1 sctp 1500 -------D 0 0.0 1.0 1 21 35 0 20
- 3.14704 0 1 sctp 1500 -------D 0 0.0 1.0 1 22 36 0 21
r 3.25104 0 1 sctp 1500 -------D 0 0.0 1.0 1 17 31 0 16
+ 3.25104 1 0 sctp 52 -------S 0 1.0 0.0 1 12 37 65535 65535
- 3.25104 1 0 sctp 52 -------S 0 1.0 0.0 1 12 37 65535 65535
r 3.27504 0 1 sctp 1500 -------D 0 0.0 1.0 1 18 32 0 17
+ 3.27504 1 0 sctp 52 -------S 0 1.0 0.0 1 12 38 65535 65535
- 3.27504 1 0 sctp 52 -------S 0 1.0 0.0 1 12 38 65535 65535
r 3.29904 0 1 sctp 1500 -------D 0 0.0 1.0 1 19 33 0 18
+ 3.29904 1 0 sctp 52 -------S 0 1.0 0.0 1 12 39 65535 65535
- 3.29904 1 0 sctp 52 -------S 0 1.0 0.0 1 12 39 65535 65535
r 3.32304 0 1 sctp 1500 -------D 0 0.0 1.0 1 20 34 0 19
+ 3.32304 1 0 sctp 52 -------S 0 1.0 0.0 1 12 40 65535 65535
- 3.32304 1 0 sctp 52 -------S 0 1.0 0.0 1 12 40 65535 65535
r 3.34704 0 1 sctp 1500 -------D 0 0.0 1.0 1 21 35 0 20
+ 3.34704 1 0 sctp 52 -------S 0 1.0 0.0 1 12 41 65535 65535
- 3.34704 1 0 sctp 52 -------S 0 1.0 0.0 1 12 41 65535 65535
r 3.37104 0 1 sctp 1500 -------D 0 0.0 1.0 1 22 36 0 21
+ 3.37104 1 0 sctp 52 -------S 0 1.0 0.0 1 12 42 65535 65535
- 3.37104 1 0 sctp 52 -------S 0 1.0 0.0 1 12 42 65535 65535
r 3.451872 1 0 sctp 52 -------S 0 1.0 0.0 1 12 37 65535 65535
+ 3.451872 0 1 sctp 1500 -------D 0 0.0 1.0 1 23 43 0 22
- 3.451872 0 1 sctp 1500 -------D 0 0.0 1.0 1 23 43 0 22
r 3.475872 1 0 sctp 52 -------S 0 1.0 0.0 1 12 38 65535 65535
+ 3.475872 0 1 sctp 1500 -------D 0 0.0 1.0 1 24 44 0 23
- 3.475872 0 1 sctp 1500 -------D 0 0.0 1.0 1 24 44 0 23
r 3.499872 1 0 sctp 52 -------S 0 1.0 0.0 1 12 39 65535 65535
+ 3.499872 0 1 sctp 1500 -------D 0 0.0 1.0 1 13 45 0 12
- 3.499872 0 1 sctp 1500 -------D 0 0.0 1.0 1 13 45 0 12
r 3.523872 1 0 sctp 52 -------S 0 1.0 0.0 1 12 40 65535 65535
r 3.547872 1 0 sctp 52 -------S 0 1.0 0.0 1 12 41 65535 65535
+ 3.547872 0 1 sctp 1500 -------D 0 0.0 1.0 1 14 46 0 13
- 3.547872 0 1 sctp 1500 -------D 0 0.0 1.0 1 14 46 0 13
r 3.571872 1 0 sctp 52 -------S 0 1.0 0.0 1 12 42 65535 65535
+ 3.571872 0 1 sctp 1500 -------D 0 0.0 1.0 1 15 47 0 14
- 3.571872 0 1 sctp 1500 -------D 0 0.0 1.0 1 15 47 0 14
r 3.675872 0 1 sctp 1500 -------D 0 0.0 1.0 1 23 43 0 22
+ 3.675872 1 0 sctp 52 -------S 0 1.0 0.0 1 12 48 65535 65535
- 3.675872 1 0 sctp 52 -------S 0 1.0 0.0 1 12 48 65535 65535
r 3.699872 0 1 sctp 1500 -------D 0 0.0 1.0 1 24 44 0 23
+ 3.699872 1 0 sctp 52 -------S 0 1.0 0.0 1 12 49 65535 65535
- 3.699872 1 0 sctp 52 -------S 0 1.0 0.0 1 12 49 65535 65535
r 3.723872 0 1 sctp 1500 -------D 0 0.0 1.0 1 13 45 0 12
+ 3.723872 1 0 sctp 52 -------S 0 1.0 0.0 1 13 50 65535 65535
- 3.723872 1 0 sctp 52 -------S 0 1.0 0.0 1 13 50 65535 65535
r 3.771872 0 1 sctp 1500 -------D 0 0.0 1.0 1 14 46 0 13
+ 3.771872 1 0 sctp 52 -------S 0 1.0 0.0 1 14 51 65535 65535
- 3.771872 1 0 sctp 52 -------S 0 1.0 0.0 1 14 51 65535 65535
r 3.795872 0 1 sctp 1500 -------D 0 0.0 1.0 1 15 47 0 14
+ 3.795872 1 0 sctp 52 -------S 0 1.0 0.0 1 15 52 65535 65535
- 3.795872 1 0 sctp 52 -------S 0 1.0 0.0 1 15 52 65535 65535
r 3.876704 1 0 sctp 52 -------S 0 1.0 0.0 1 12 48 65535 65535
+ 3.876704 0 1 sctp 1500 -------D 0 0.0 1.0 1 16 53 0 15
- 3.876704 0 1 sctp 1500 -------D 0 0.0 1.0 1 16 53 0 15
r 3.900704 1 0 sctp 52 -------S 0 1.0 0.0 1 12 49 65535 65535
+ 3.900704 0 1 sctp 1500 -------D 0 0.0 1.0 1 25 54 0 24
- 3.900704 0 1 sctp 1500 -------D 0 0.0 1.0 1 25 54 0 24
r 3.924704 1 0 sctp 52 -------S 0 1.0 0.0 1 13 50 65535 65535
+ 3.924704 0 1 sctp 1500 -------D 0 0.0 1.0 1 26 55 0 25
- 3.924704 0 1 sctp 1500 -------D 0 0.0 1.0 1 26 55 0 25
r 3.972704 1 0 sctp 52 -------S 0 1.0 0.0 1 14 51 65535 65535
+ 3.972704 0 1 sctp 1500 -------D 0 0.0 1.0 1 27 56 0 26
- 3.972704 0 1 sctp 1500 -------D 0 0.0 1.0 1 27 56 0 26
r 3.996704 1 0 sctp 52 -------S 0 1.0 0.0 1 15 52 65535 65535
+ 3.996704 0 1 sctp 1500 -------D 0 0.0 1.0 1 28 57 0 27
- 3.996704 0 1 sctp 1500 -------D 0 0.0 1.0 1 28 57 0 27
r 4.100704 0 1 sctp 1500 -------D 0 0.0 1.0 1 16 53 0 15
r 4.124704 0 1 sctp 1500 -------D 0 0.0 1.0 1 25 54 0 24
+ 4.124704 1 0 sctp 48 -------S 0 1.0 0.0 1 25 58 65535 65535
- 4.124704 1 0 sctp 48 -------S 0 1.0 0.0 1 25 58 65535 65535
r 4.148704 0 1 sctp 1500 -------D 0 0.0 1.0 1 26 55 0 25
r 4.196704 0 1 sctp 1500 -------D 0 0.0 1.0 1 27 56 0 26
+ 4.196704 1 0 sctp 48 -------S 0 1.0 0.0 1 27 59 65535 65535
- 4.196704 1 0 sctp 48 -------S 0 1.0 0.0 1 27 59 65535 65535
r 4.220704 0 1 sctp 1500 -------D 0 0.0 1.0 1 28 57 0 27
r 4.325472 1 0 sctp 48 -------S 0 1.0 0.0 1 25 58 65535 65535
+ 4.325472 0 1 sctp 1500 -------D 0 0.0 1.0 1 29 60 0 28
- 4.325472 0 1 sctp 1500 -------D 0 0.0 1.0 1 29 60 0 28
+ 4.325472 0 1 sctp 1500 -------D 0 0.0 1.0 1 30 61 0 29
+ 4.325472 0 1 sctp 1500 -------D 0 0.0 1.0 1 31 62 0 30
- 4.349472 0 1 sctp 1500 -------D 0 0.0 1.0 1 30 61 0 29
- 4.373472 0 1 sctp 1500 -------D 0 0.0 1.0 1 31 62 0 30
r 4.397472 1 0 sctp 48 -------S 0 1.0 0.0 1 27 59 65535 65535
+ 4.397472 0 1 sctp 1500 -------D 0 0.0 1.0 1 32 63 0 31
+ 4.397472 0 1 sctp 1500 -------D 0 0.0 1.0 1 33 64 0 32
- 4.397472 0 1 sctp 1500 -------D 0 0.0 1.0 1 32 63 0 31
+ 4.420704 1 0 sctp 48 -------S 0 1.0 0.0 1 28 65 65535 65535
- 4.420704 1 0 sctp 48 -------S 0 1.0 0.0 1 28 65 65535 65535
- 4.421472 0 1 sctp 1500 -------D 0 0.0 1.0 1 33 64 0 32
r 4.549472 0 1 sctp 1500 -------D 0 0.0 1.0 1 29 60 0 28
r 4.573472 0 1 sctp 1500 -------D 0 0.0 1.0 1 30 61 0 29
+ 4.573472 1 0 sctp 48 -------S 0 1.0 0.0 1 30 66 65535 65535
- 4.573472 1 0 sctp 48 -------S 0 1.0 0.0 1 30 66 65535 65535
r 4.597472 0 1 sctp 1500 -------D 0 0.0 1.0 1 31 62 0 30
r 4.621472 0 1 sctp 1500 -------D 0 0.0 1.0 1 32 63 0 31
+ 4.621472 1 0 sctp 48 -------S 0 1.0 0.0 1 32 67 65535 65535
- 4.621472 1 0 sctp 48 -------S 0 1.0 0.0 1 32 67 65535 65535
r 4.621472 1 0 sctp 48 -------S 0 1.0 0.0 1 28 65 65535 65535
+ 4.621472 0 1 sctp 1500 -------D 0 0.0 1.0 1 34 68 0 33
- 4.621472 0 1 sctp 1500 -------D 0 0.0 1.0 1 34 68 0 33
r 4.645472 0 1 sctp 1500 -------D 0 0.0 1.0 1 33 64 0 32
r 4.77424 1 0 sctp 48 -------S 0 1.0 0.0 1 30 66 65535 65535
+ 4.77424 0 1 sctp 1500 -------D 0 0.0 1.0 1 35 69 0 34
- 4.77424 0 1 sctp 1500 -------D 0 0.0 1.0 1 35 69 0 34
+ 4.77424 0 1 sctp 1500 -------D 0 0.0 1.0 1 36 70 0 35
- 4.79824 0 1 sctp 1500 -------D 0 0.0 1.0 1 36 70 0 35
r 4.82224 1 0 sctp 48 -------S 0 1.0 0.0 1 32 67 65535 65535
+ 4.82224 0 1 sctp 1500 -------D 0 0.0 1.0 1 37 71 0 36
+ 4.82224 0 1 sctp 1500 -------D 0 0.0 1.0 1 38 72 0 37
+ 4.82224 0 1 sctp 1500 -------D 0 0.0 1.0 1 39 73 0 38
- 4.82224 0 1 sctp 1500 -------D 0 0.0 1.0 1 37 71 0 36
r 4.845472 0 1 sctp 1500 -------D 0 0.0 1.0 1 34 68 0 33
+ 4.845472 1 0 sctp 48 -------S 0 1.0 0.0 1 34 74 65535 65535
- 4.845472 1 0 sctp 48 -------S 0 1.0 0.0 1 34 74 65535 65535
- 4.84624 0 1 sctp 1500 -------D 0 0.0 1.0 1 38 72 0 37
- 4.87024 0 1 sctp 1500 -------D 0 0.0 1.0 1 39 73 0 38
r 4.99824 0 1 sctp 1500 -------D 0 0.0 1.0 1 35 69 0 34
r 5.02224 0 1 sctp 1500 -------D 0 0.0 1.0 1 36 70 0 35
+ 5.02224 1 0 sctp 48 -------S 0 1.0 0.0 1 36 75 65535 65535
- 5.02224 1 0 sctp 48 -------S 0 1.0 0.0 1 36 75 65535 65535
r 5.04624 0 1 sctp 1500 -------D 0 0.0 1.0 1 37 71 0 36
r 5.04624 1 0 sctp 48 -------S 0 1.0 0.0 1 34 74 65535 65535
+ 5.04624 0 1 sctp 1500 -------D 0 0.0 1.0 1 40 76 0 39
- 5.04624 0 1 sctp 1500 -------D 0 0.0 1.0 1 40 76 0 39
+ 5.04624 0 1 sctp 1500 -------D 0 0.0 1.0 1 41 77 0 40
r 5.07024 0 1 sctp 1500 -------D 0 0.0 1.0 1 38 72 0 37
+ 5.07024 1 0 sctp 48 -------S 0 1.0 0.0 1 38 78 65535 65535
- 5.07024 1 0 sctp 48 -------S 0 1.0 0.0 1 38 78 65535 65535
- 5.07024 0 1 sctp 1500 -------D 0 0.0 1.0 1 41 77 0 40
r 5.09424 0 1 sctp 1500 -------D 0 0.0 1.0 1 39 73 0 38
r 5.223008 1 0 sctp 48 -------S 0 1.0 0.0 1 36 75 65535 65535
+ 5.223008 0 1 sctp 1500 -------D 0 0.0 1.0 1 42 79 0 41
- 5.223008 0 1 sctp 1500 -------D 0 0.0 1.0 1 42 79 0 41
+ 5.223008 0 1 sctp 1500 -------D 0 0.0 1.0 1 43 80 0 42
- 5.247008 0 1 sctp 1500 -------D 0 0.0 1.0 1 43 80 0 42
r 5.27024 0 1 sctp 1500 -------D 0 0.0 1.0 1 40 76 0 39
+ 5.27024 1 0 sctp 48 -------S 0 1.0 0.0 1 40 81 65535 65535
- 5.27024 1 0 sctp 48 -------S 0 1.0 0.0 1 40 81 65535 65535
r 5.271008 1 0 sctp 48 -------S 0 1.0 0.0 1 38 78 65535 65535
+ 5.271008 0 1 sctp 1500 -------D 0 0.0 1.0 1 44 82 0 43
+ 5.271008 0 1 sctp 1500 -------D 0 0.0 1.0 1 45 83 0 44
+ 5.271008 0 1 sctp 1500 -------D 0 0.0 1.0 1 46 84 0 45
- 5.271008 0 1 sctp 1500 -------D 0 0.0 1.0 1 44 82 0 43
r 5.29424 0 1 sctp 1500 -------D 0 0.0 1.0 1 41 77 0 40
- 5.295008 0 1 sctp 1500 -------D 0 0.0 1.0 1 45 83 0 44
- 5.319008 0 1 sctp 1500 -------D 0 0.0 1.0 1 46 84 0 45
r 5.447008 0 1 sctp 1500 -------D 0 0.0 1.0 1 42 79 0 41
+ 5.447008 1 0 sctp 48 -------S 0 1.0 0.0 1 42 85 65535 65535
- 5.447008 1 0 sctp 48 -------S 0 1.0 0.0 1 42 85 65535 65535
r 5.471008 0 1 sctp 1500 -------D 0 0.0 1.0 1 43 80 0 42
r 5.471008 1 0 sctp 48 -------S 0 1.0 0.0 1 40 81 65535 65535
+ 5.471008 0 1 sctp 1500 -------D 0 0.0 1.0 1 47 86 0 46
- 5.471008 0 1 sctp 1500 -------D 0 0.0 1.0 1 47 86 0 46
+ 5.471008 0 1 sctp 1500 -------D 0 0.0 1.0 1 48 87 0 47
r 5.495008 0 1 sctp 1500 -------D 0 0.0 1.0 1 44 82 0 43
+ 5.495008 1 0 sctp 48 -------S 0 1.0 0.0 1 44 88 65535 65535
- 5.495008 1 0 sctp 48 -------S 0 1.0 0.0 1 44 88 65535 65535
- 5.495008 0 1 sctp 1500 -------D 0 0.0 1.0 1 48 87 0 47
r 5.519008 0 1 sctp 1500 -------D 0 0.0 1.0 1 45 83 0 44
r 5.543008 0 1 sctp 1500 -------D 0 0.0 1.0 1 46 84 0 45
+ 5.543008 1 0 sctp 48 -------S 0 1.0 0.0 1 46 89 65535 65535
- 5.543008 1 0 sctp 48 -------S 0 1.0 0.0 1 46 89 65535 65535
r 5.647776 1 0 sctp 48 -------S 0 1.0 0.0 1 42 85 65535 65535
+ 5.647776 0 1 sctp 1500 -------D 0 0.0 1.0 1 49 90 0 48
- 5.647776 0 1 sctp 1500 -------D 0 0.0 1.0 1 49 90 0 48
+ 5.647776 0 1 sctp 1500 -------D 0 0.0 1.0 1 50 91 0 49
- 5.671776 0 1 sctp 1500 -------D 0 0.0 1.0 1 50 91 0 49
r 5.695008 0 1 sctp 1500 -------D 0 0.0 1.0 1 47 86 0 46
r 5.695776 1 0 sctp 48 -------S 0 1.0 0.0 1 44 88 65535 65535
+ 5.695776 0 1 sctp 1500 -------D 0 0.0 1.0 1 51 92 0 50
+ 5.695776 0 1 sctp 1500 -------D 0 0.0 1.0 1 52 93 0 51
- 5.695776 0 1 sctp 1500 -------D 0 0.0 1.0 1 51 92 0 50
r 5.719008 0 1 sctp 1500 -------D 0 0.0 1.0 1 48 87 0 47
+ 5.719008 1 0 sctp 48 -------S 0 1.0 0.0 1 48 94 65535 65535
- 5.719008 1 0 sctp 48 -------S 0 1.0 0.0 1 48 94 65535 65535
- 5.719776 0 1 sctp 1500 -------D 0 0.0 1.0 1 52 93 0 51
r 5.743776 1 0 sctp 48 -------S 0 1.0 0.0 1 46 89 65535 65535
+ 5.743776 0 1 sctp 1500 -------D 0 0.0 1.0 1 53 95 0 52
+ 5.743776 0 1 sctp 1500 -------D 0 0.0 1.0 1 54 96 0 53
+ 5.743776 0 1 sctp 1500 -------D 0 0.0 1.0 1 55 97 0 54
- 5.743776 0 1 sctp 1500 -------D 0 0.0 1.0 1 53 95 0 52
- 5.767776 0 1 sctp 1500 -------D 0 0.0 1.0 1 54 96 0 53
- 5.791776 0 1 sctp 1500 -------D 0 0.0 1.0 1 55 97 0 54
r 5.871776 0 1 sctp 1500 -------D 0 0.0 1.0 1 49 90 0 48
r 5.895776 0 1 sctp 1500 -------D 0 0.0 1.0 1 50 91 0 49
+ 5.895776 1 0 sctp 48 -------S 0 1.0 0.0 1 50 98 65535 65535
- 5.895776 1 0 sctp 48 -------S 0 1.0 0.0 1 50 98 65535 65535
r 5.919776 0 1 sctp 1500 -------D 0 0.0 1.0 1 51 92 0 50
r 5.919776 1 0 sctp 48 -------S 0 1.0 0.0 1 48 94 65535 65535
+ 5.919776 0 1 sctp 1500 -------D 0 0.0 1.0 1 56 99 0 55
- 5.919776 0 1 sctp 1500 -------D 0 0.0 1.0 1 56 99 0 55
+ 5.919776 0 1 sctp 1500 -------D 0 0.0 1.0 1 57 100 0 56
r 5.943776 0 1 sctp 1500 -------D 0 0.0 1.0 1 52 93 0 51
+ 5.943776 1 0 sctp 48 -------S 0 1.0 0.0 1 52 101 65535 65535
- 5.943776 1 0 sctp 48 -------S 0 1.0 0.0 1 52 101 65535 65535
- 5.943776 0 1 sctp 1500 -------D 0 0.0 1.0 1 57 100 0 56
r 5.967776 0 1 sctp 1500 -------D 0 0.0 1.0 1 53 95 0 52
r 5.991776 0 1 sctp 1500 -------D 0 0.0 1.0 1 54 96 0 53
+ 5.991776 1 0 sctp 48 -------S 0 1.0 0.0 1 54 102 65535 65535
- 5.991776 1 0 sctp 48 -------S 0 1.0 0.0 1 54 102 65535 65535
r 6.015776 0 1 sctp 1500 -------D 0 0.0 1.0 1 55 97 0 54
r 6.096544 1 0 sctp 48 -------S 0 1.0 0.0 1 50 98 65535 65535
+ 6.096544 0 1 sctp 1500 -------D 0 0.0 1.0 1 58 103 0 57
- 6.096544 0 1 sctp 1500 -------D 0 0.0 1.0 1 58 103 0 57
+ 6.096544 0 1 sctp 1500 -------D 0 0.0 1.0 1 59 104 0 58
- 6.120544 0 1 sctp 1500 -------D 0 0.0 1.0 1 59 104 0 58
r 6.143776 0 1 sctp 1500 -------D 0 0.0 1.0 1 56 99 0 55
+ 6.143776 1 0 sctp 48 -------S 0 1.0 0.0 1 56 105 65535 65535
- 6.143776 1 0 sctp 48 -------S 0 1.0 0.0 1 56 105 65535 65535
r 6.144544 1 0 sctp 48 -------S 0 1.0 0.0 1 52 101 65535 65535
+ 6.144544 0 1 sctp 1500 -------D 0 0.0 1.0 1 60 106 0 59
+ 6.144544 0 1 sctp 1500 -------D 0 0.0 1.0 1 61 107 0 60
- 6.144544 0 1 sctp 1500 -------D 0 0.0 1.0 1 60 106 0 59
r 6.167776 0 1 sctp 1500 -------D 0 0.0 1.0 1 57 100 0 56
- 6.168544 0 1 sctp 1500 -------D 0 0.0 1.0 1 61 107 0 60
r 6.192544 1 0 sctp 48 -------S 0 1.0 0.0 1 54 102 65535 65535
+ 6.192544 0 1 sctp 1500 -------D 0 0.0 1.0 1 62 108 0 61
+ 6.192544 0 1 sctp 1500 -------D 0 0.0 1.0 1 63 109 0 62
- 6.192544 0 1 sctp 1500 -------D 0 0.0 1.0 1 62 108 0 61
- 6.216544 0 1 sctp 1500 -------D 0 0.0 1.0 1 63 109 0 62
r 6.320544 0 1 sctp 1500 -------D 0 0.0 1.0 1 58 103 0 57
+ 6.320544 1 0 sctp 48 -------S 0 1.0 0.0 1 58 110 65535 65535
- 6.320544 1 0 sctp 48 -------S 0 1.0 0.0 1 58 110 65535 65535
r 6.344544 0 1 sctp 1500 -------D 0 0.0 1.0 1 59 104 0 58
r 6.344544 1 0 sctp 48 -------S 0 1.0 0.0 1 56 105 65535 65535
+ 6.344544 0 1 sctp 1500 -------D 0 0.0 1.0 1 64 111 0 63
- 6.344544 0 1 sctp 1500 -------D 0 0.0 1.0 1 64 111 0 63
+ 6.344544 0 1 sctp 1500 -------D 0 0.0 1.0 1 65 112 0 64
+ 6.344544 0 1 sctp 1500 -------D 0 0.0 1.0 1 66 113 0 65
r 6.368544 0 1 sctp 1500 -------D 0 0.0 1.0 1 60 106 0 59
+ 6.368544 1 0 sctp 48 -------S 0 1.0 0.0 1 60 114 65535 65535
- 6.368544 1 0 sctp 48 -------S 0 1.0 0.0 1 60 114 65535 65535
- 6.368544 0 1 sctp 1500 -------D 0 0.0 1.0 1 65 112 0 64
r 6.392544 0 1 sctp 1500 -------D 0 0.0 1.0 1 61 107 0 60
- 6.392544 0 1 sctp 1500 -------D 0 0.0 1.0 1 66 113 0 65
r 6.416544 0 1 sctp 1500 -------D 0 0.0 1.0 1 62 108 0 61
+ 6.416544 1 0 sctp 48 -------S 0 1.0 0.0 1 62 115 65535 65535
- 6.416544 1 0 sctp 48 -------S 0 1.0 0.0 1 62 115 65535 65535
r 6.440544 0 1 sctp 1500 -------D 0 0.0 1.0 1 63 109 0 62
r 6.521312 1 0 sctp 48 -------S 0 1.0 0.0 1 58 110 65535 65535
+ 6.521312 0 1 sctp 1500 -------D 0 0.0 1.0 1 67 116 0 66
- 6.521312 0 1 sctp 1500 -------D 0 0.0 1.0 1 67 116 0 66
+ 6.521312 0 1 sctp 1500 -------D 0 0.0 1.0 1 68 117 0 67
- 6.545312 0 1 sctp 1500 -------D 0 0.0 1.0 1 68 117 0 67
r 6.568544 0 1 sctp 1500 -------D 0 0.0 1.0 1 64 111 0 63
+ 6.568544 1 0 sctp 48 -------S 0 1.0 0.0 1 64 118 65535 65535
- 6.568544 1 0 sctp 48 -------S 0 1.0 0.0 1 64 118 65535 65535
r 6.569312 1 0 sctp 48 -------S 0 1.0 0.0 1 60 114 65535 65535
+ 6.569312 0 1 sctp 1500 -------D 0 0.0 1.0 1 69 119 0 68
+ 6.569312 0 1 sctp 1500 -------D 0 0.0 1.0 1 70 120 0 69
- 6.569312 0 1 sctp 1500 -------D 0 0.0 1.0 1 69 119 0 68
r 6.592544 0 1 sctp 1500 -------D 0 0.0 1.0 1 65 112 0 64
- 6.593312 0 1 sctp 1500 -------D 0 0.0 1.0 1 70 120 0 69
r 6.616544 0 1 sctp 1500 -------D 0 0.0 1.0 1 66 113 0 65
+ 6.616544 1 0 sctp 48 -------S 0 1.0 0.0 1 66 121 65535 65535
- 6.616544 1 0 sctp 48 -------S 0 1.0 0.0 1 66 121 65535 65535
r 6.617312 1 0 sctp 48 -------S 0 1.0 0.0 1 62 115 65535 65535
+ 6.617312 0 1 sctp 1500 -------D 0 0.0 1.0 1 71 122 0 70
+ 6.617312 0 1 sctp 1500 -------D 0 0.0 1.0 1 72 123 0 71
- 6.617312 0 1 sctp 1500 -------D 0 0.0 1.0 1 71 122 0 70
- 6.641312 0 1 sctp 1500 -------D 0 0.0 1.0 1 72 123 0 71
r 6.745312 0 1 sctp 1500 -------D 0 0.0 1.0 1 67 116 0 66
r 6.769312 0 1 sctp 1500 -------D 0 0.0 1.0 1 68 117 0 67
+ 6.769312 1 0 sctp 48 -------S 0 1.0 0.0 1 68 124 65535 65535
- 6.769312 1 0 sctp 48 -------S 0 1.0 0.0 1 68 124 65535 65535
r 6.769312 1 0 sctp 48 -------S 0 1.0 0.0 1 64 118 65535 65535
+ 6.769312 0 1 sctp 1500 -------D 0 0.0 1.0 1 73 125 0 72
- 6.769312 0 1 sctp 1500 -------D 0 0.0 1.0 1 73 125 0 72
+ 6.769312 0 1 sctp 1500 -------D 0 0.0 1.0 1 74 126 0 73
r 6.793312 0 1 sctp 1500 -------D 0 0.0 1.0 1 69 119 0 68
- 6.793312 0 1 sctp 1500 -------D 0 0.0 1.0 1 74 126 0 73
r 6.817312 0 1 sctp 1500 -------D 0 0.0 1.0 1 70 120 0 69
+ 6.817312 1 0 sctp 48 -------S 0 1.0 0.0 1 70 127 65535 65535
- 6.817312 1 0 sctp 48 -------S 0 1.0 0.0 1 70 127 65535 65535
r 6.817312 1 0 sctp 48 -------S 0 1.0 0.0 1 66 121 65535 65535
+ 6.817312 0 1 sctp 1500 -------D 0 0.0 1.0 1 75 128 0 74
+ 6.817312 0 1 sctp 1500 -------D 0 0.0 1.0 1 76 129 0 75
+ 6.817312 0 1 sctp 1500 -------D 0 0.0 1.0 1 77 130 0 76
- 6.817312 0 1 sctp 1500 -------D 0 0.0 1.0 1 75 128 0 74
r 6.841312 0 1 sctp 1500 -------D 0 0.0 1.0 1 71 122 0 70
- 6.841312 0 1 sctp 1500 -------D 0 0.0 1.0 1 76 129 0 75
r 6.865312 0 1 sctp 1500 -------D 0 0.0 1.0 1 72 123 0 71
+ 6.865312 1 0 sctp 48 -------S 0 1.0 0.0 1 72 131 65535 65535
- 6.865312 1 0 sctp 48 -------S 0 1.0 0.0 1 72 131 65535 65535
- 6.865312 0 1 sctp 1500 -------D 0 0.0 1.0 1 77 130 0 76
r 6.97008 1 0 sctp 48 -------S 0 1.0 0.0 1 68 124 65535 65535
+ 6.97008 0 1 sctp 1500 -------D 0 0.0 1.0 1 78 132 0 77
- 6.97008 0 1 sctp 1500 -------D 0 0.0 1.0 1 78 132 0 77
+ 6.97008 0 1 sctp 1500 -------D 0 0.0 1.0 1 79 133 0 78
r 6.993312 0 1 sctp 1500 -------D 0 0.0 1.0 1 73 125 0 72
- 6.99408 0 1 sctp 1500 -------D 0 0.0 1.0 1 79 133 0 78
r 7.017312 0 1 sctp 1500 -------D 0 0.0 1.0 1 74 126 0 73
+ 7.017312 1 0 sctp 48 -------S 0 1.0 0.0 1 74 134 65535 65535
- 7.017312 1 0 sctp 48 -------S 0 1.0 0.0 1 74 134 65535 65535
r 7.01808 1 0 sctp 48 -------S 0 1.0 0.0 1 70 127 65535 65535
+ 7.01808 0 1 sctp 1500 -------D 0 0.0 1.0 1 80 135 0 79
+ 7.01808 0 1 sctp 1500 -------D 0 0.0 1.0 1 81 136 0 80
- 7.01808 0 1 sctp 1500 -------D 0 0.0 1.0 1 80 135 0 79
r 7.041312 0 1 sctp 1500 -------D 0 0.0 1.0 1 75 128 0 74
- 7.04208 0 1 sctp 1500 -------D 0 0.0 1.0 1 81 136 0 80
r 7.065312 0 1 sctp 1500 -------D 0 0.0 1.0 1 76 129 0 75
+ 7.065312 1 0 sctp 48 -------S 0 1.0 0.0 1 76 137 65535 65535
- 7.065312 1 0 sctp 48 -------S 0 1.0 0.0 1 76 137 65535 65535
r 7.06608 1 0 sctp 48 -------S 0 1.0 0.0 1 72 131 65535 65535
+ 7.06608 0 1 sctp 1500 -------D 0 0.0 1.0 1 82 138 0 81
+ 7.06608 0 1 sctp 1500 -------D 0 0.0 1.0 1 83 139 0 82
- 7.06608 0 1 sctp 1500 -------D 0 0.0 1.0 1 82 138 0 81
r 7.089312 0 1 sctp 1500 -------D 0 0.0 1.0 1 77 130 0 76
- 7.09008 0 1 sctp 1500 -------D 0 0.0 1.0 1 83 139 0 82
r 7.19408 0 1 sctp 1500 -------D 0 0.0 1.0 1 78 132 0 77
+ 7.19408 1 0 sctp 48 -------S 0 1.0 0.0 1 78 140 65535 65535
- 7.19408 1 0 sctp 48 -------S 0 1.0 0.0 1 78 140 65535 65535
r 7.21808 0 1 sctp 1500 -------D 0 0.0 1.0 1 79 133 0 78
r 7.21808 1 0 sctp 48 -------S 0 1.0 0.0 1 74 134 65535 65535
+ 7.21808 0 1 sctp 1500 -------D 0 0.0 1.0 1 84 141 0 83
- 7.21808 0 1 sctp 1500 -------D 0 0.0 1.0 1 84 141 0 83
+ 7.21808 0 1 sctp 1500 -------D 0 0.0 1.0 1 85 142 0 84
r 7.24208 0 1 sctp 1500 -------D 0 0.0 1.0 1 80 135 0 79
+ 7.24208 1 0 sctp 48 -------S 0 1.0 0.0 1 80 143 65535 65535
- 7.24208 1 0 sctp 48 -------S 0 1.0 0.0 1 80 143 65535 65535
- 7.24208 0 1 sctp 1500 -------D 0 0.0 1.0 1 85 142 0 84
r 7.26608 0 1 sctp 1500 -------D 0 0.0 1.0 1 81 136 0 80
r 7.26608 1 0 sctp 48 -------S 0 1.0 0.0 1 76 137 65535 65535
+ 7.26608 0 1 sctp 1500 -------D 0 0.0 1.0 1 86 144 0 85
+ 7.26608 0 1 sctp 1500 -------D 0 0.0 1.0 1 87 145 0 86
+ 7.26608 0 1 sctp 1500 -------D 0 0.0 1.0 1 88 146 0 87
- 7.26608 0 1 sctp 1500 -------D 0 0.0 1.0 1 86 144 0 85
r 7.29008 0 1 sctp 1500 -------D 0 0.0 1.0 1 82 138 0 81
+ 7.29008 1 0 sctp 48 -------S 0 1.0 0.0 1 82 147 65535 65535
- 7.29008 1 0 sctp 48 -------S 0 1.0 0.0 1 82 147 65535 65535
- 7.29008 0 1 sctp 1500 -------D 0 0.0 1.0 1 87 145 0 86
r 7.31408 0 1 sctp 1500 -------D 0 0.0 1.0 1 83 139 0 82
- 7.31408 0 1 sctp 1500 -------D 0 0.0 1.0 1 88 146 0 87
r 7.394848 1 0 sctp 48 -------S 0 1.0 0.0 1 78 140 65535 65535
+ 7.394848 0 1 sctp 1500 -------D 0 0.0 1.0 1 89 148 0 88
- 7.394848 0 1 sctp 1500 -------D 0 0.0 1.0 1 89 148 0 88
+ 7.394848 0 1 sctp 1500 -------D 0 0.0 1.0 1 90 149 0 89
- 7.418848 0 1 sctp 1500 -------D 0 0.0 1.0 1 90 149 0 89
r 7.44208 0 1 sctp 1500 -------D 0 0.0 1.0 1 84 141 0 83
+ 7.44208 1 0 sctp 48 -------S 0 1.0 0.0 1 84 150 65535 65535
- 7.44208 1 0 sctp 48 -------S 0 1.0 0.0 1 84 150 65535 65535
r 7.442848 1 0 sctp 48 -------S 0 1.0 0.0 1 80 143 65535 65535
+ 7.442848 0 1 sctp 1500 -------D 0 0.0 1.0 1 91 151 0 90
+ 7.442848 0 1 sctp 1500 -------D 0 0.0 1.0 1 92 152 0 91
- 7.442848 0 1 sctp 1500 -------D 0 0.0 1.0 1 91 151 0 90
r 7.46608 0 1 sctp 1500 -------D 0 0.0 1.0 1 85 142 0 84
- 7.466848 0 1 sctp 1500 -------D 0 0.0 1.0 1 92 152 0 91
r 7.49008 0 1 sctp 1500 -------D 0 0.0 1.0 1 86 144 0 85
+ 7.49008 1 0 sctp 48 -------S 0 1.0 0.0 1 86 153 65535 65535
- 7.49008 1 0 sctp 48 -------S 0 1.0 0.0 1 86 153 65535 65535
r 7.490848 1 0 sctp 48 -------S 0 1.0 0.0 1 82 147 65535 65535
+ 7.490848 0 1 sctp 1500 -------D 0 0.0 1.0 1 93 154 0 92
+ 7.490848 0 1 sctp 1500 -------D 0 0.0 1.0 1 94 155 0 93
- 7.490848 0 1 sctp 1500 -------D 0 0.0 1.0 1 93 154 0 92
r 7.51408 0 1 sctp 1500 -------D 0 0.0 1.0 1 87 145 0 86
- 7.514848 0 1 sctp 1500 -------D 0 0.0 1.0 1 94 155 0 93
r 7.53808 0 1 sctp 1500 -------D 0 0.0 1.0 1 88 146 0 87
+ 7.53808 1 0 sctp 48 -------S 0 1.0 0.0 1 88 156 65535 65535
- 7.53808 1 0 sctp 48 -------S 0 1.0 0.0 1 88 156 65535 65535
r 7.618848 0 1 sctp 1500 -------D 0 0.0 1.0 1 89 148 0 88
r 7.642848 0 1 sctp 1500 -------D 0 0.0 1.0 1 90 149 0 89
+ 7.642848 1 0 sctp 48 -------S 0 1.0 0.0 1 90 157 65535 65535
- 7.642848 1 0 sctp 48 -------S 0 1.0 0.0 1 90 157 65535 65535
r 7.642848 1 0 sctp 48 -------S 0 1.0 0.0 1 84 150 65535 65535
+ 7.642848 0 1 sctp 1500 -------D 0 0.0 1.0 1 95 158 0 94
- 7.642848 0 1 sctp 1500 -------D 0 0.0 1.0 1 95 158 0 94
+ 7.642848 0 1 sctp 1500 -------D 0 0.0 1.0 1 96 159 0 95
r 7.666848 0 1 sctp 1500 -------D 0 0.0 1.0 1 91 151 0 90
- 7.666848 0 1 sctp 1500 -------D 0 0.0 1.0 1 96 159 0 95
r 7.690848 0 1 sctp 1500 -------D 0 0.0 1.0 1 92 152 0 91
+ 7.690848 1 0 sctp 48 -------S 0 1.0 0.0 1 92 160 65535 65535
- 7.690848 1 0 sctp 48 -------S 0 1.0 0.0 1 92 160 65535 65535
r 7.690848 1 0 sctp 48 -------S 0 1.0 0.0 1 86 153 65535 65535
+ 7.690848 0 1 sctp 1500 -------D 0 0.0 1.0 1 97 161 0 96
+ 7.690848 0 1 sctp 1500 -------D 0 0.0 1.0 1 98 162 0 97
- 7.690848 0 1 sctp 1500 -------D 0 0.0 1.0 1 97 161 0 96
r 7.714848 0 1 sctp 1500 -------D 0 0.0 1.0 1 93 154 0 92
- 7.714848 0 1 sctp 1500 -------D 0 0.0 1.0 1 98 162 0 97
r 7.738848 0 1 sctp 1500 -------D 0 0.0 1.0 1 94 155 0 93
+ 7.738848 1 0 sctp 48 -------S 0 1.0 0.0 1 94 163 65535 65535
- 7.738848 1 0 sctp 48 -------S 0 1.0 0.0 1 94 163 65535 65535
r 7.738848 1 0 sctp 48 -------S 0 1.0 0.0 1 88 156 65535 65535
+ 7.738848 0 1 sctp 1500 -------D 0 0.0 1.0 1 99 164 0 98
+ 7.738848 0 1 sctp 1500 -------D 0 0.0 1.0 1 100 165 0 99
+ 7.738848 0 1 sctp 1500 -------D 0 0.0 1.0 1 101 166 0 100
- 7.738848 0 1 sctp 1500 -------D 0 0.0 1.0 1 99 164 0 98
- 7.762848 0 1 sctp 1500 -------D 0 0.0 1.0 1 100 165 0 99
- 7.786848 0 1 sctp 1500 -------D 0 0.0 1.0 1 101 166 0 100
r 7.843616 1 0 sctp 48 -------S 0 1.0 0.0 1 90 157 65535 65535
+ 7.843616 0 1 sctp 1500 -------D 0 0.0 1.0 1 102 167 0 101
- 7.843616 0 1 sctp 1500 -------D 0 0.0 1.0 1 102 167 0 101
+ 7.843616 0 1 sctp 1500 -------D 0 0.0 1.0 1 103 168 0 102
r 7.866848 0 1 sctp 1500 -------D 0 0.0 1.0 1 95 158 0 94
- 7.867616 0 1 sctp 1500 -------D 0 0.0 1.0 1 103 168 0 102
r 7.890848 0 1 sctp 1500 -------D 0 0.0 1.0 1 96 159 0 95
+ 7.890848 1 0 sctp 48 -------S 0 1.0 0.0 1 96 169 65535 65535
- 7.890848 1 0 sctp 48 -------S 0 1.0 0.0 1 96 169 65535 65535
r 7.891616 1 0 sctp 48 -------S 0 1.0 0.0 1 92 160 65535 65535
+ 7.891616 0 1 sctp 1500 -------D 0 0.0 1.0 1 104 170 0 103
+ 7.891616 0 1 sctp 1500 -------D 0 0.0 1.0 1 105 171 0 104
- 7.891616 0 1 sctp 1500 -------D 0 0.0 1.0 1 104 170 0 103
r 7.914848 0 1 sctp 1500 -------D 0 0.0 1.0 1 97 161 0 96
- 7.915616 0 1 sctp 1500 -------D 0 0.0 1.0 1 105 171 0 104
r 7.938848 0 1 sctp 1500 -------D 0 0.0 1.0 1 98 162 0 97
+ 7.938848 1 0 sctp 48 -------S 0 1.0 0.0 1 98 172 65535 65535
- 7.938848 1 0 sctp 48 -------S 0 1.0 0.0 1 98 172 65535 65535
r 7.939616 1 0 sctp 48 -------S 0 1.0 0.0 1 94 163 65535 65535
+ 7.939616 0 1 sctp 1500 -------D 0 0.0 1.0 1 106 173 0 105
+ 7.939616 0 1 sctp 1500 -------D 0 0.0 1.0 1 107 174 0 106
- 7.939616 0 1 sctp 1500 -------D 0 0.0 1.0 1 106 173 0 105
r 7.962848 0 1 sctp 1500 -------D 0 0.0 1.0 1 99 164 0 98
- 7.963616 0 1 sctp 1500 -------D 0 0.0 1.0 1 107 174 0 106
r 7.986848 0 1 sctp 1500 -------D 0 0.0 1.0 1 100 165 0 99
+ 7.986848 1 0 sctp 48 -------S 0 1.0 0.0 1 100 175 65535 65535
- 7.986848 1 0 sctp 48 -------S 0 1.0 0.0 1 100 175 65535 65535
r 8.010848 0 1 sctp 1500 -------D 0 0.0 1.0 1 101 166 0 100
r 8.067616 0 1 sctp 1500 -------D 0 0.0 1.0 1 102 167 0 101
+ 8.067616 1 0 sctp 48 -------S 0 1.0 0.0 1 102 176 65535 65535
- 8.067616 1 0 sctp 48 -------S 0 1.0 0.0 1 102 176 65535 65535
r 8.091616 0 1 sctp 1500 -------D 0 0.0 1.0 1 103 168 0 102