+ 0.5 0 1 sctp 56 -------I 0 0.0 1.0 1 -1 2 65535 65535
- 0.5 0 1 sctp 56 -------I 0 0.0 1.0 1 -1 2 65535 65535
r 0.800896 0 1 sctp 56 -------I 0 0.0 1.0 1 -1 2 65535 65535
+ 0.800896 1 0 sctp 56 -------I 0 1.0 0.0 1 -1 3 65535 65535
- 0.800896 1 0 sctp 56 -------I 0 1.0 0.0 1 -1 3 65535 65535
r 1.101792 1 0 sctp 56 -------I 0 1.0 0.0 1 -1 3 65535 65535
+ 1.101792 0 1 sctp 36 -------I 0 0.0 1.0 1 -1 4 65535 65535
- 1.101792 0 1 sctp 36 -------I 0 0.0 1.0 1 -1 4 65535 65535
r 1.402368 0 1 sctp 36 -------I 0 0.0 1.0 1 -1 4 65535 65535
+ 1.402368 1 0 sctp 36 -------I 0 1.0 0.0 1 -1 5 65535 65535
- 1.402368 1 0 sctp 36 -------I 0 1.0 0.0 1 -1 5 65535 65535
r 1.702944 1 0 sctp 36 -------I 0 1.0 0.0 1 -1 5 65535 65535
+ 1.702944 0 1 sctp 56 -------H 0 0.0 1.0 1 -1 6 65535 65535
- 1.702944 0 1 sctp 56 -------H 0 0.0 1.0 1 -1 6 65535 65535
r 2.00384 0 1 sctp 56 -------H 0 0.0 1.0 1 -1 6 65535 65535
+ 2.00384 1 0 sctp 56 -------B 0 1.0 0.0 1 -1 7 65535 65535
- 2.00384 1 0 sctp 56 -------B 0 1.0 0.0 1 -1 7 65535 65535
r 2.304736 1 0 sctp 56 -------B 0 1.0 0.0 1 -1 7 65535 65535
+ 2.304736 0 1 sctp 1500 -------D 0 0.0 1.0 1 1 8 0 0
- 2.304736 0 1 sctp 1500 -------D 0 0.0 1.0 1 1 8 0 0
+ 2.304736 0 1 sctp 1500 -------D 0 0.0 1.0 1 2 9 0 1
+ 2.304736 0 1 sctp 1500 -------D 0 0.0 1.0 1 3 10 0 2
- 2.328736 0 1 sctp 1500 -------D 0 0.0 1.0 1 2 9 0 1
- 2.352736 0 1 sctp 1500 -------D 0 0.0 1.0 1 3 10 0 2
r 2.628736 0 1 sctp 1500 -------D 0 0.0 1.0 1 1 8 0 0
+ 2.628736 1 0 sctp 48 -------S 0 1.0 0.0 1 1 11 65535 65535
- 2.628736 1 0 sctp 48 -------S 0 1.0 0.0 1 1 11 65535 65535
r 2.652736 0 1 sctp 1500 -------D 0 0.0 1.0 1 2 9 0 1
+ 2.652736 1 0 sctp 48 -------S 0 1.0 0.0 1 2 12 65535 65535
- 2.652736 1 0 sctp 48 -------S 0 1.0 0.0 1 2 12 65535 65535
r 2.676736 0 1 sctp 1500 -------D 0 0.0 1.0 1 3 10 0 2
+ 2.676736 1 0 sctp 48 -------S 0 1.0 0.0 1 3 13 65535 65535
- 2.676736 1 0 sctp 48 -------S 0 1.0 0.0 1 3 13 65535 65535
r 2.929504 1 0 sctp 48 -------S 0 1.0 0.0 1 1 11 65535 65535
+ 2.929504 0 1 sctp 1500 -------D 0 0.0 1.0 1 4 14 0 3
- 2.929504 0 1 sctp 1500 -------D 0 0.0 1.0 1 4 14 0 3
+ 2.929504 0 1 sctp 1500 -------D 0 0.0 1.0 1 5 15 0 4
r 2.953504 1 0 sctp 48 -------S 0 1.0 0.0 1 2 12 65535 65535
+ 2.953504 0 1 sctp 1500 -------D 0 0.0 1.0 1 6 16 0 5
+ 2.953504 0 1 sctp 1500 -------D 0 0.0 1.0 1 7 17 0 6
- 2.953504 0 1 sctp 1500 -------D 0 0.0 1.0 1 5 15 0 4
r 2.977504 1 0 sctp 48 -------S 0 1.0 0.0 1 3 13 65535 65535
+ 2.977504 0 1 sctp 1500 -------D 0 0.0 1.0 1 8 18 0 7
+ 2.977504 0 1 sctp 1500 -------D 0 0.0 1.0 1 9 19 0 8
- 2.977504 0 1 sctp 1500 -------D 0 0.0 1.0 1 6 16 0 5
- 3.001504 0 1 sctp 1500 -------D 0 0.0 1.0 1 7 17 0 6
- 3.025504 0 1 sctp 1500 -------D 0 0.0 1.0 1 8 18 0 7
- 3.049504 0 1 sctp 1500 -------D 0 0.0 1.0 1 9 19 0 8
r 3.253504 0 1 sctp 1500 -------D 0 0.0 1.0 1 4 14 0 3
+ 3.253504 1 0 sctp 48 -------S 0 1.0 0.0 1 4 20 65535 65535
- 3.253504 1 0 sctp 48 -------S 0 1.0 0.0 1 4 20 65535 65535
r 3.277504 0 1 sctp 1500 -------D 0 0.0 1.0 1 5 15 0 4
+ 3.277504 1 0 sctp 48 -------S 0 1.0 0.0 1 5 21 65535 65535
- 3.277504 1 0 sctp 48 -------S 0 1.0 0.0 1 5 21 65535 65535
r 3.301504 0 1 sctp 1500 -------D 0 0.0 1.0 1 6 16 0 5
+ 3.301504 1 0 sctp 48 -------S 0 1.0 0.0 1 6 22 65535 65535
- 3.301504 1 0 sctp 48 -------S 0 1.0 0.0 1 6 22 65535 65535
r 3.325504 0 1 sctp 1500 -------D 0 0.0 1.0 1 7 17 0 6
+ 3.325504 1 0 sctp 48 -------S 0 1.0 0.0 1 7 23 65535 65535
- 3.325504 1 0 sctp 48 -------S 0 1.0 0.0 1 7 23 65535 65535
r 3.349504 0 1 sctp 1500 -------D 0 0.0 1.0 1 8 18 0 7
+ 3.349504 1 0 sctp 48 -------S 0 1.0 0.0 1 8 24 65535 65535
- 3.349504 1 0 sctp 48 -------S 0 1.0 0.0 1 8 24 65535 65535
r 3.373504 0 1 sctp 1500 -------D 0 0.0 1.0 1 9 19 0 8
+ 3.373504 1 0 sctp 48 -------S 0 1.0 0.0 1 9 25 65535 65535
- 3.373504 1 0 sctp 48 -------S 0 1.0 0.0 1 9 25 65535 65535
r 3.554272 1 0 sctp 48 -------S 0 1.0 0.0 1 4 20 65535 65535
+ 3.554272 0 1 sctp 1500 -------D 0 0.0 1.0 1 10 26 0 9
- 3.554272 0 1 sctp 1500 -------D 0 0.0 1.0 1 10 26 0 9
+ 3.554272 0 1 sctp 1500 -------D 0 0.0 1.0 1 11 27 0 10
r 3.578272 1 0 sctp 48 -------S 0 1.0 0.0 1 5 21 65535 65535
+ 3.578272 0 1 sctp 1500 -------D 0 0.0 1.0 1 12 28 0 11
+ 3.578272 0 1 sctp 1500 -------D 0 0.0 1.0 1 13 29 0 12
- 3.578272 0 1 sctp 1500 -------D 0 0.0 1.0 1 11 27 0 10
r 3.602272 1 0 sctp 48 -------S 0 1.0 0.0 1 6 22 65535 65535
+ 3.602272 0 1 sctp 1500 -------D 0 0.0 1.0 1 14 30 0 13
d 3.602272 0 1 sctp 1500 -------D 0 0.0 1.0 1 15 31 0 14
- 3.602272 0 1 sctp 1500 -------D 0 0.0 1.0 1 12 28 0 11
r 3.626272 1 0 sctp 48 -------S 0 1.0 0.0 1 7 23 65535 65535
+ 3.626272 0 1 sctp 1500 -------D 0 0.0 1.0 1 16 32 0 15
+ 3.626272 0 1 sctp 1500 -------D 0 0.0 1.0 1 17 33 0 16
- 3.626272 0 1 sctp 1500 -------D 0 0.0 1.0 1 13 29 0 12
r 3.650272 1 0 sctp 48 -------S 0 1.0 0.0 1 8 24 65535 65535
+ 3.650272 0 1 sctp 1500 -------D 0 0.0 1.0 1 18 34 0 17
+ 3.650272 0 1 sctp 1500 -------D 0 0.0 1.0 1 19 35 0 18
- 3.650272 0 1 sctp 1500 -------D 0 0.0 1.0 1 14 30 0 13
r 3.674272 1 0 sctp 48 -------S 0 1.0 0.0 1 9 25 65535 65535
+ 3.674272 0 1 sctp 1500 -------D 0 0.0 1.0 1 20 36 0 19
+ 3.674272 0 1 sctp 1500 -------D 0 0.0 1.0 1 21 37 0 20
- 3.674272 0 1 sctp 1500 -------D 0 0.0 1.0 1 16 32 0 15
- 3.698272 0 1 sctp 1500 -------D 0 0.0 1.0 1 17 33 0 16
- 3.722272 0 1 sctp 1500 -------D 0 0.0 1.0 1 18 34 0 17
- 3.746272 0 1 sctp 1500 -------D 0 0.0 1.0 1 19 35 0 18
- 3.770272 0 1 sctp 1500 -------D 0 0.0 1.0 1 20 36 0 19
- 3.794272 0 1 sctp 1500 -------D 0 0.0 1.0 1 21 37 0 20
r 3.878272 0 1 sctp 1500 -------D 0 0.0 1.0 1 10 26 0 9
+ 3.878272 1 0 sctp 48 -------S 0 1.0 0.0 1 10 38 65535 65535
- 3.878272 1 0 sctp 48 -------S 0 1.0 0.0 1 10 38 65535 65535
r 3.902272 0 1 sctp 1500 -------D 0 0.0 1.0 1 11 27 0 10
+ 3.902272 1 0 sctp 48 -------S 0 1.0 0.0 1 11 39 65535 65535
- 3.902272 1 0 sctp 48 -------S 0 1.0 0.0 1 11 39 65535 65535
r 3.926272 0 1 sctp 1500 -------D 0 0.0 1.0 1 12 28 0 11
+ 3.926272 1 0 sctp 48 -------S 0 1.0 0.0 1 12 40 65535 65535
- 3.926272 1 0 sctp 48 -------S 0 1.0 0.0 1 12 40 65535 65535
r 3.950272 0 1 sctp 1500 -------D 0 0.0 1.0 1 13 29 0 12
+ 3.950272 1 0 sctp 48 -------S 0 1.0 0.0 1 13 41 65535 65535
- 3.950272 1 0 sctp 48 -------S 0 1.0 0.0 1 13 41 65535 65535
r 3.974272 0 1 sctp 1500 -------D 0 0.0 1.0 1 14 30 0 13
+ 3.974272 1 0 sctp 48 -------S 0 1.0 0.0 1 14 42 65535 65535
- 3.974272 1 0 sctp 48 -------S 0 1.0 0.0 1 14 42 65535 65535
r 3.998272 0 1 sctp 1500 -------D 0 0.0 1.0 1 16 32 0 15
+ 3.998272 1 0 sctp 52 -------S 0 1.0 0.0 1 14 43 65535 65535
- 3.998272 1 0 sctp 52 -------S 0 1.0 0.0 1 14 43 65535 65535
r 4.022272 0 1 sctp 1500 -------D 0 0.0 1.0 1 17 33 0 16
+ 4.022272 1 0 sctp 52 -------S 0 1.0 0.0 1 14 44 65535 65535
- 4.022272 1 0 sctp 52 -------S 0 1.0 0.0 1 14 44 65535 65535
r 4.046272 0 1 sctp 1500 -------D 0 0.0 1.0 1 18 34 0 17
+ 4.046272 1 0 sctp 52 -------S 0 1.0 0.0 1 14 45 65535 65535
- 4.046272 1 0 sctp 52 -------S 0 1.0 0.0 1 14 45 65535 65535
r 4.070272 0 1 sctp 1500 -------D 0 0.0 1.0 1 19 35 0 18
+ 4.070272 1 0 sctp 52 -------S 0 1.0 0.0 1 14 46 65535 65535
- 4.070272 1 0 sctp 52 -------S 0 1.0 0.0 1 14 46 65535 65535
r 4.094272 0 1 sctp 1500 -------D 0 0.0 1.0 1 20 36 0 19
+ 4.094272 1 0 sctp 52 -------S 0 1.0 0.0 1 14 47 65535 65535
- 4.094272 1 0 sctp 52 -------S 0 1.0 0.0 1 14 47 65535 65535
r 4.118272 0 1 sctp 1500 -------D 0 0.0 1.0 1 21 37 0 20
+ 4.118272 1 0 sctp 52 -------S 0 1.0 0.0 1 14 48 65535 65535
- 4.118272 1 0 sctp 52 -------S 0 1.0 0.0 1 14 48 65535 65535
r 4.17904 1 0 sctp 48 -------S 0 1.0 0.0 1 10 38 65535 65535
+ 4.17904 0 1 sctp 1500 -------D 0 0.0 1.0 1 22 49 0 21
- 4.17904 0 1 sctp 1500 -------D 0 0.0 1.0 1 22 49 0 21
+ 4.17904 0 1 sctp 1500 -------D 0 0.0 1.0 1 23 50 0 22
r 4.20304 1 0 sctp 48 -------S 0 1.0 0.0 1 11 39 65535 65535
+ 4.20304 0 1 sctp 1500 -------D 0 0.0 1.0 1 24 51 0 23
+ 4.20304 0 1 sctp 1500 -------D 0 0.0 1.0 1 25 52 0 24
- 4.20304 0 1 sctp 1500 -------D 0 0.0 1.0 1 23 50 0 22
r 4.22704 1 0 sctp 48 -------S 0 1.0 0.0 1 12 40 65535 65535
+ 4.22704 0 1 sctp 1500 -------D 0 0.0 1.0 1 26 53 0 25
+ 4.22704 0 1 sctp 1500 -------D 0 0.0 1.0 1 27 54 0 26
- 4.22704 0 1 sctp 1500 -------D 0 0.0 1.0 1 24 51 0 23
r 4.25104 1 0 sctp 48 -------S 0 1.0 0.0 1 13 41 65535 65535
+ 4.25104 0 1 sctp 1500 -------D 0 0.0 1.0 1 28 55 0 27
+ 4.25104 0 1 sctp 1500 -------D 0 0.0 1.0 1 29 56 0 28
- 4.25104 0 1 sctp 1500 -------D 0 0.0 1.0 1 25 52 0 24
r 4.27504 1 0 sctp 48 -------S 0 1.0 0.0 1 14 42 65535 65535
+ 4.27504 0 1 sctp 1500 -------D 0 0.0 1.0 1 30 57 0 29
+ 4.27504 0 1 sctp 1500 -------D 0 0.0 1.0 1 31 58 0 30
- 4.27504 0 1 sctp 1500 -------D 0 0.0 1.0 1 26 53 0 25
- 4.29904 0 1 sctp 1500 -------D 0 0.0 1.0 1 27 54 0 26
r 4.299104 1 0 sctp 52 -------S 0 1.0 0.0 1 14 43 65535 65535
+ 4.299104 0 1 sctp 1500 -------D 0 0.0 1.0 1 32 59 0 31
- 4.32304 0 1 sctp 1500 -------D 0 0.0 1.0 1 28 55 0 27
r 4.323104 1 0 sctp 52 -------S 0 1.0 0.0 1 14 44 65535 65535
+ 4.323104 0 1 sctp 1500 -------D 0 0.0 1.0 1 33 60 0 32
- 4.34704 0 1 sctp 1500 -------D 0 0.0 1.0 1 29 56 0 28
r 4.347104 1 0 sctp 52 -------S 0 1.0 0.0 1 14 45 65535 65535
d 4.347104 0 1 sctp 1500 -------D 0 0.0 1.0 1 15 61 0 14
- 4.37104 0 1 sctp 1500 -------D 0 0.0 1.0 1 30 57 0 29
r 4.371104 1 0 sctp 52 -------S 0 1.0 0.0 1 14 46 65535 65535
- 4.39504 0 1 sctp 1500 -------D 0 0.0 1.0 1 31 58 0 30
r 4.395104 1 0 sctp 52 -------S 0 1.0 0.0 1 14 47 65535 65535
- 4.41904 0 1 sctp 1500 -------D 0 0.0 1.0 1 32 59 0 31
r 4.419104 1 0 sctp 52 -------S 0 1.0 0.0 1 14 48 65535 65535
- 4.44304 0 1 sctp 1500 -------D 0 0.0 1.0 1 33 60 0 32
r 4.50304 0 1 sctp 1500 -------D 0 0.0 1.0 1 22 49 0 21
+ 4.50304 1 0 sctp 52 -------S 0 1.0 0.0 1 14 62 65535 65535
- 4.50304 1 0 sctp 52 -------S 0 1.0 0.0 1 14 62 65535 65535
r 4.52704 0 1 sctp 1500 -------D 0 0.0 1.0 1 23 50 0 22
+ 4.52704 1 0 sctp 52 -------S 0 1.0 0.0 1 14 63 65535 65535
- 4.52704 1 0 sctp 52 -------S 0 1.0 0.0 1 14 63 65535 65535
r 4.55104 0 1 sctp 1500 -------D 0 0.0 1.0 1 24 51 0 23
+ 4.55104 1 0 sctp 52 -------S 0 1.0 0.0 1 14 64 65535 65535
- 4.55104 1 0 sctp 52 -------S 0 1.0 0.0 1 14 64 65535 65535
r 4.57504 0 1 sctp 1500 -------D 0 0.0 1.0 1 25 52 0 24
+ 4.57504 1 0 sctp 52 -------S 0 1.0 0.0 1 14 65 65535 65535
- 4.57504 1 0 sctp 52 -------S 0 1.0 0.0 1 14 65 65535 65535
r 4.59904 0 1 sctp 1500 -------D 0 0.0 1.0 1 26 53 0 25
+ 4.59904 1 0 sctp 52 -------S 0 1.0 0.0 1 14 66 65535 65535
- 4.59904 1 0 sctp 52 -------S 0 1.0 0.0 1 14 66 65535 65535
r 4.62304 0 1 sctp 1500 -------D 0 0.0 1.0 1 27 54 0 26
+ 4.62304 1 0 sctp 52 -------S 0 1.0 0.0 1 14 67 65535 65535
- 4.62304 1 0 sctp 52 -------S 0 1.0 0.0 1 14 67 65535 65535
r 4.64704 0 1 sctp 1500 -------D 0 0.0 1.0 1 28 55 0 27
+ 4.64704 1 0 sctp 52 -------S 0 1.0 0.0 1 14 68 65535 65535
- 4.64704 1 0 sctp 52 -------S 0 1.0 0.0 1 14 68 65535 65535
r 4.67104 0 1 sctp 1500 -------D 0 0.0 1.0 1 29 56 0 28
+ 4.67104 1 0 sctp 52 -------S 0 1.0 0.0 1 14 69 65535 65535
- 4.67104 1 0 sctp 52 -------S 0 1.0 0.0 1 14 69 65535 65535
r 4.69504 0 1 sctp 1500 -------D 0 0.0 1.0 1 30 57 0 29
+ 4.69504 1 0 sctp 52 -------S 0 1.0 0.0 1 14 70 65535 65535
- 4.69504 1 0 sctp 52 -------S 0 1.0 0.0 1 14 70 65535 65535
r 4.71904 0 1 sctp 1500 -------D 0 0.0 1.0 1 31 58 0 30
+ 4.71904 1 0 sctp 52 -------S 0 1.0 0.0 1 14 71 65535 65535
- 4.71904 1 0 sctp 52 -------S 0 1.0 0.0 1 14 71 65535 65535
r 4.74304 0 1 sctp 1500 -------D 0 0.0 1.0 1 32 59 0 31
+ 4.74304 1 0 sctp 52 -------S 0 1.0 0.0 1 14 72 65535 65535
- 4.74304 1 0 sctp 52 -------S 0 1.0 0.0 1 14 72 65535 65535
r 4.76704 0 1 sctp 1500 -------D 0 0.0 1.0 1 33 60 0 32
+ 4.76704 1 0 sctp 52 -------S 0 1.0 0.0 1 14 73 65535 65535
- 4.76704 1 0 sctp 52 -------S 0 1.0 0.0 1 14 73 65535 65535
r 4.803872 1 0 sctp 52 -------S 0 1.0 0.0 1 14 62 65535 65535
r 4.827872 1 0 sctp 52 -------S 0 1.0 0.0 1 14 63 65535 65535
r 4.851872 1 0 sctp 52 -------S 0 1.0 0.0 1 14 64 65535 65535
r 4.875872 1 0 sctp 52 -------S 0 1.0 0.0 1 14 65 65535 65535
r 4.899872 1 0 sctp 52 -------S 0 1.0 0.0 1 14 66 65535 65535
+ 4.899872 0 1 sctp 1500 -------D 0 0.0 1.0 1 34 74 0 33
- 4.899872 0 1 sctp 1500 -------D 0 0.0 1.0 1 34 74 0 33
r 4.923872 1 0 sctp 52 -------S 0 1.0 0.0 1 14 67 65535 65535
+ 4.923872 0 1 sctp 1500 -------D 0 0.0 1.0 1 35 75 0 34
- 4.923872 0 1 sctp 1500 -------D 0 0.0 1.0 1 35 75 0 34
r 4.947872 1 0 sctp 52 -------S 0 1.0 0.0 1 14 68 65535 65535
+ 4.947872 0 1 sctp 1500 -------D 0 0.0 1.0 1 36 76 0 35
- 4.947872 0 1 sctp 1500 -------D 0 0.0 1.0 1 36 76 0 35
r 4.971872 1 0 sctp 52 -------S 0 1.0 0.0 1 14 69 65535 65535
+ 4.971872 0 1 sctp 1500 -------D 0 0.0 1.0 1 37 77 0 36
- 4.971872 0 1 sctp 1500 -------D 0 0.0 1.0 1 37 77 0 36
r 4.995872 1 0 sctp 52 -------S 0 1.0 0.0 1 14 70 65535 65535
+ 4.995872 0 1 sctp 1500 -------D 0 0.0 1.0 1 38 78 0 37
- 4.995872 0 1 sctp 1500 -------D 0 0.0 1.0 1 38 78 0 37
r 5.019872 1 0 sctp 52 -------S 0 1.0 0.0 1 14 71 65535 65535
+ 5.019872 0 1 sctp 1500 -------D 0 0.0 1.0 1 39 79 0 38
- 5.019872 0 1 sctp 1500 -------D 0 0.0 1.0 1 39 79 0 38
r 5.043872 1 0 sctp 52 -------S 0 1.0 0.0 1 14 72 65535 65535
+ 5.043872 0 1 sctp 1500 -------D 0 0.0 1.0 1 40 80 0 39
- 5.043872 0 1 sctp 1500 -------D 0 0.0 1.0 1 40 80 0 39
r 5.067872 1 0 sctp 52 -------S 0 1.0 0.0 1 14 73 65535 65535
+ 5.067872 0 1 sctp 1500 -------D 0 0.0 1.0 1 41 81 0 40
- 5.067872 0 1 sctp 1500 -------D 0 0.0 1.0 1 41 81 0 40
r 5.223872 0 1 sctp 1500 -------D 0 0.0 1.0 1 34 74 0 33
+ 5.223872 1 0 sctp 52 -------S 0 1.0 0.0 1 14 82 65535 65535
- 5.223872 1 0 sctp 52 -------S 0 1.0 0.0 1 14 82 65535 65535
r 5.247872 0 1 sctp 1500 -------D 0 0.0 1.0 1 35 75 0 34
+ 5.247872 1 0 sctp 52 -------S 0 1.0 0.0 1 14 83 65535 65535
- 5.247872 1 0 sctp 52 -------S 0 1.0 0.0 1 14 83 65535 65535
r 5.271872 0 1 sctp 1500 -------D 0 0.0 1.0 1 36 76 0 35
+ 5.271872 1 0 sctp 52 -------S 0 1.0 0.0 1 14 84 65535 65535
- 5.271872 1 0 sctp 52 -------S 0 1.0 0.0 1 14 84 65535 65535
r 5.295872 0 1 sctp 1500 -------D 0 0.0 1.0 1 37 77 0 36
+ 5.295872 1 0 sctp 52 -------S 0 1.0 0.0 1 14 85 65535 65535
- 5.295872 1 0 sctp 52 -------S 0 1.0 0.0 1 14 85 65535 65535
r 5.319872 0 1 sctp 1500 -------D 0 0.0 1.0 1 38 78 0 37
+ 5.319872 1 0 sctp 52 -------S 0 1.0 0.0 1 14 86 65535 65535
- 5.319872 1 0 sctp 52 -------S 0 1.0 0.0 1 14 86 65535 65535
r 5.343872 0 1 sctp 1500 -------D 0 0.0 1.0 1 39 79 0 38
+ 5.343872 1 0 sctp 52 -------S 0 1.0 0.0 1 14 87 65535 65535
- 5.343872 1 0 sctp 52 -------S 0 1.0 0.0 1 14 87 65535 65535
r 5.367872 0 1 sctp 1500 -------D 0 0.0 1.0 1 40 80 0 39
+ 5.367872 1 0 sctp 52 -------S 0 1.0 0.0 1 14 88 65535 65535
- 5.367872 1 0 sctp 52 -------S 0 1.0 0.0 1 14 88 65535 65535
r 5.391872 0 1 sctp 1500 -------D 0 0.0 1.0 1 41 81 0 40
+ 5.391872 1 0 sctp 52 -------S 0 1.0 0.0 1 14 89 65535 65535
- 5.391872 1 0 sctp 52 -------S 0 1.0 0.0 1 14 89 65535 65535
+ 5.509835 0 1 sctp 1500 -------D 0 0.0 1.0 1 15 90 0 14
- 5.509835 0 1 sctp 1500 -------D 0 0.0 1.0 1 15 90 0 14
r 5.524704 1 0 sctp 52 -------S 0 1.0 0.0 1 14 82 65535 65535
r 5.548704 1 0 sctp 52 -------S 0 1.0 0.0 1 14 83 65535 65535
r 5.572704 1 0 sctp 52 -------S 0 1.0 0.0 1 14 84 65535 65535
r 5.596704 1 0 sctp 52 -------S 0 1.0 0.0 1 14 85 65535 65535
r 5.620704 1 0 sctp 52 -------S 0 1.0 0.0 1 14 86 65535 65535
r 5.644704 1 0 sctp 52 -------S 0 1.0 0.0 1 14 87 65535 65535
r 5.668704 1 0 sctp 52 -------S 0 1.0 0.0 1 14 88 65535 65535
r 5.692704 1 0 sctp 52 -------S 0 1.0 0.0 1 14 89 65535 65535
r 5.833835 0 1 sctp 1500 -------D 0 0.0 1.0 1 15 90 0 14
+ 5.833835 1 0 sctp 48 -------S 0 1.0 0.0 1 41 91 65535 65535
- 5.833835 1 0 sctp 48 -------S 0 1.0 0.0 1 41 91 65535 65535
r 6.134603 1 0 sctp 48 -------S 0 1.0 0.0 1 41 91 65535 65535
+ 6.134603 0 1 sctp 1500 -------D 0 0.0 1.0 1 42 92 0 41
- 6.134603 0 1 sctp 1500 -------D 0 0.0 1.0 1 42 92 0 41
+ 6.134603 0 1 sctp 1500 -------D 0 0.0 1.0 1 43 93 0 42
- 6.158603 0 1 sctp 1500 -------D 0 0.0 1.0 1 43 93 0 42
r 6.458603 0 1 sctp 1500 -------D 0 0.0 1.0 1 42 92 0 41
+ 6.458603 1 0 sctp 48 -------S 0 1.0 0.0 1 42 94 65535 65535
- 6.458603 1 0 sctp 48 -------S 0 1.0 0.0 1 42 94 65535 65535
r 6.482603 0 1 sctp 1500 -------D 0 0.0 1.0 1 43 93 0 42
+ 6.482603 1 0 sctp 48 -------S 0 1.0 0.0 1 43 95 65535 65535
- 6.482603 1 0 sctp 48 -------S 0 1.0 0.0 1 43 95 65535 65535
r 6.759371 1 0 sctp 48 -------S 0 1.0 0.0 1 42 94 65535 65535
+ 6.759371 0 1 sctp 1500 -------D 0 0.0 1.0 1 44 96 0 43
- 6.759371 0 1 sctp 1500 -------D 0 0.0 1.0 1 44 96 0 43
+ 6.759371 0 1 sctp 1500 -------D 0 0.0 1.0 1 45 97 0 44
r 6.783371 1 0 sctp 48 -------S 0 1.0 0.0 1 43 95 65535 65535
+ 6.783371 0 1 sctp 1500 -------D 0 0.0 1.0 1 46 98 0 45
+ 6.783371 0 1 sctp 1500 -------D 0 0.0 1.0 1 47 99 0 46
- 6.783371 0 1 sctp 1500 -------D 0 0.0 1.0 1 45 97 0 44
- 6.807371 0 1 sctp 1500 -------D 0 0.0 1.0 1 46 98 0 45
- 6.831371 0 1 sctp 1500 -------D 0 0.0 1.0 1 47 99 0 46
r 7.083371 0 1 sctp 1500 -------D 0 0.0 1.0 1 44 96 0 43
+ 7.083371 1 0 sctp 48 -------S 0 1.0 0.0 1 44 100 65535 65535
- 7.083371 1 0 sctp 48 -------S 0 1.0 0.0 1 44 100 65535 65535
r 7.107371 0 1 sctp 1500 -------D 0 0.0 1.0 1 45 97 0 44
+ 7.107371 1 0 sctp 48 -------S 0 1.0 0.0 1 45 101 65535 65535
- 7.107371 1 0 sctp 48 -------S 0 1.0 0.0 1 45 101 65535 65535
r 7.131371 0 1 sctp 1500 -------D 0 0.0 1.0 1 46 98 0 45
+ 7.131371 1 0 sctp 48 -------S 0 1.0 0.0 1 46 102 65535 65535
- 7.131371 1 0 sctp 48 -------S 0 1.0 0.0 1 46 102 65535 65535
r 7.155371 0 1 sctp 1500 -------D 0 0.0 1.0 1 47 99 0 46
+ 7.155371 1 0 sctp 48 -------S 0 1.0 0.0 1 47 103 65535 65535
- 7.155371 1 0 sctp 48 -------S 0 1.0 0.0 1 47 103 65535 65535
r 7.384139 1 0 sctp 48 -------S 0 1.0 0.0 1 44 100 65535 65535
+ 7.384139 0 1 sctp 1500 -------D 0 0.0 1.0 1 48 104 0 47
- 7.384139 0 1 sctp 1500 -------D 0 0.0 1.0 1 48 104 0 47
+ 7.384139 0 1 sctp 1500 -------D 0 0.0 1.0 1 49 105 0 48
r 7.408139 1 0 sctp 48 -------S 0 1.0 0.0 1 45 101 65535 65535
+ 7.408139 0 1 sctp 1500 -------D 0 0.0 1.0 1 50 106 0 49
- 7.408139 0 1 sctp 1500 -------D 0 0.0 1.0 1 49 105 0 48
r 7.432139 1 0 sctp 48 -------S 0 1.0 0.0 1 46 102 65535 65535
+ 7.432139 0 1 sctp 1500 -------D 0 0.0 1.0 1 51 107 0 50
- 7.432139 0 1 sctp 1500 -------D 0 0.0 1.0 1 50 106 0 49
r 7.456139 1 0 sctp 48 -------S 0 1.0 0.0 1 47 103 65535 65535
+ 7.456139 0 1 sctp 1500 -------D 0 0.0 1.0 1 52 108 0 51
- 7.456139 0 1 sctp 1500 -------D 0 0.0 1.0 1 51 107 0 50
- 7.480139 0 1 sctp 1500 -------D 0 0.0 1.0 1 52 108 0 51
r 7.708139 0 1 sctp 1500 -------D 0 0.0 1.0 1 48 104 0 47
+ 7.708139 1 0 sctp 48 -------S 0 1.0 0.0 1 48 109 65535 65535
- 7.708139 1 0 sctp 48 -------S 0 1.0 0.0 1 48 109 65535 65535
r 7.732139 0 1 sctp 1500 -------D 0 0.0 1.0 1 49 105 0 48
+ 7.732139 1 0 sctp 48 -------S 0 1.0 0.0 1 49 110 65535 65535
- 7.732139 1 0 sctp 48 -------S 0 1.0 0.0 1 49 110 65535 65535
r 7.756139 0 1 sctp 1500 -------D 0 0.0 1.0 1 50 106 0 49
+ 7.756139 1 0 sctp 48 -------S 0 1.0 0.0 1 50 111 65535 65535
- 7.756139 1 0 sctp 48 -------S 0 1.0 0.0 1 50 111 65535 65535
r 7.780139 0 1 sctp 1500 -------D 0 0.0 1.0 1 51 107 0 50
+ 7.780139 1 0 sctp 48 -------S 0 1.0 0.0 1 51 112 65535 65535
- 7.780139 1 0 sctp 48 -------S 0 1.0 0.0 1 51 112 65535 65535
r 7.804139 0 1 sctp 1500 -------D 0 0.0 1.0 1 52 108 0 51
+ 7.804139 1 0 sctp 48 -------S 0 1.0 0.0 1 52 113 65535 65535
- 7.804139 1 0 sctp 48 -------S 0 1.0 0.0 1 52 113 65535 65535
r 8.008907 1 0 sctp 48 -------S 0 1.0 0.0 1 48 109 65535 65535
+ 8.008907 0 1 sctp 1500 -------D 0 0.0 1.0 1 53 114 0 52
- 8.008907 0 1 sctp 1500 -------D 0 0.0 1.0 1 53 114 0 52
r 8.032907 1 0 sctp 48 -------S 0 1.0 0.0 1 49 110 65535 65535
+ 8.032907 0 1 sctp 1500 -------D 0 0.0 1.0 1 54 115 0 53
+ 8.032907 0 1 sctp 1500 -------D 0 0.0 1.0 1 55 116 0 54
- 8.032907 0 1 sctp 1500 -------D 0 0.0 1.0 1 54 115 0 53
- 8.056907 0 1 sctp 1500 -------D 0 0.0 1.0 1 55 116 0 54
r 8.056907 1 0 sctp 48 -------S 0 1.0 0.0 1 50 111 65535 65535
+ 8.056907 0 1 sctp 1500 -------D 0 0.0 1.0 1 56 117 0 55
- 8.080907 0 1 sctp 1500 -------D 0 0.0 1.0 1 56 117 0 55
r 8.080907 1 0 sctp 48 -------S 0 1.0 0.0 1 51 112 65535 65535
+ 8.080907 0 1 sctp 1500 -------D 0 0.0 1.0 1 57 118 0 56
- 8.104907 0 1 sctp 1500 -------D 0 0.0 1.0 1 57 118 0 56
r 8.104907 1 0 sctp 48 -------S 0 1.0 0.0 1 52 113 65535 65535
+ 8.104907 0 1 sctp 1500 -------D 0 0.0 1.0 1 58 119 0 57
- 8.128907 0 1 sctp 1500 -------D 0 0.0 1.0 1 58 119 0 57
r 8.332907 0 1 sctp 1500 -------D 0 0.0 1.0 1 53 114 0 52
+ 8.332907 1 0 sctp 48 -------S 0 1.0 0.0 1 53 120 65535 65535
- 8.332907 1 0 sctp 48 -------S 0 1.0 0.0 1 53 120 65535 65535
r 8.356907 0 1 sctp 1500 -------D 0 0.0 1.0 1 54 115 0 53
+ 8.356907 1 0 sctp 48 -------S 0 1.0 0.0 1 54 121 65535 65535
- 8.356907 1 0 sctp 48 -------S 0 1.0 0.0 1 54 121 65535 65535
r 8.380907 0 1 sctp 1500 -------D 0 0.0 1.0 1 55 116 0 54
+ 8.380907 1 0 sctp 48 -------S 0 1.0 0.0 1 55 122 65535 65535
- 8.380907 1 0 sctp 48 -------S 0 1.0 0.0 1 55 122 65535 65535
r 8.404907 0 1 sctp 1500 -------D 0 0.0 1.0 1 56 117 0 55
+ 8.404907 1 0 sctp 48 -------S 0 1.0 0.0 1 56 123 65535 65535
- 8.404907 1 0 sctp 48 -------S 0 1.0 0.0 1 56 123 65535 65535
r 8.428907 0 1 sctp 1500 -------D 0 0.0 1.0 1 57 118 0 56
+ 8.428907 1 0 sctp 48 -------S 0 1.0 0.0 1 57 124 65535 65535
- 8.428907 1 0 sctp 48 -------S 0 1.0 0.0 1 57 124 65535 65535
r 8.452907 0 1 sctp 1500 -------D 0 0.0 1.0 1 58 119 0 57
+ 8.452907 1 0 sctp 48 -------S 0 1.0 0.0 1 58 125 65535 65535
- 8.452907 1 0 sctp 48 -------S 0 1.0 0.0 1 58 125 65535 65535
r 8.633675 1 0 sctp 48 -------S 0 1.0 0.0 1 53 120 65535 65535
+ 8.633675 0 1 sctp 1500 -------D 0 0.0 1.0 1 59 126 0 58
- 8.633675 0 1 sctp 1500 -------D 0 0.0 1.0 1 59 126 0 58
r 8.657675 1 0 sctp 48 -------S 0 1.0 0.0 1 54 121 65535 65535
+ 8.657675 0 1 sctp 1500 -------D 0 0.0 1.0 1 60 127 0 59
- 8.657675 0 1 sctp 1500 -------D 0 0.0 1.0 1 60 127 0 59
r 8.681675 1 0 sctp 48 -------S 0 1.0 0.0 1 55 122 65535 65535
+ 8.681675 0 1 sctp 1500 -------D 0 0.0 1.0 1 61 128 0 60
+ 8.681675 0 1 sctp 1500 -------D 0 0.0 1.0 1 62 129 0 61
- 8.681675 0 1 sctp 1500 -------D 0 0.0 1.0 1 61 128 0 60
r 8.705675 1 0 sctp 48 -------S 0 1.0 0.0 1 56 123 65535 65535
+ 8.705675 0 1 sctp 1500 -------D 0 0.0 1.0 1 63 130 0 62
- 8.705675 0 1 sctp 1500 -------D 0 0.0 1.0 1 62 129 0 61
r 8.729675 1 0 sctp 48 -------S 0 1.0 0.0 1 57 124 65535 65535
+ 8.729675 0 1 sctp 1500 -------D 0 0.0 1.0 1 64 131 0 63
- 8.729675 0 1 sctp 1500 -------D 0 0.0 1.0 1 63 130 0 62
r 8.753675 1 0 sctp 48 -------S 0 1.0 0.0 1 58 125 65535 65535
+ 8.753675 0 1 sctp 1500 -------D 0 0.0 1.0 1 65 132 0 64
- 8.753675 0 1 sctp 1500 -------D 0 0.0 1.0 1 64 131 0 63
- 8.777675 0 1 sctp 1500 -------D 0 0.0 1.0 1 65 132 0 64
r 8.957675 0 1 sctp 1500 -------D 0 0.0 1.0 1 59 126 0 58
+ 8.957675 1 0 sctp 48 -------S 0 1.0 0.0 1 59 133 65535 65535
- 8.957675 1 0 sctp 48 -------S 0 1.0 0.0 1 59 133 65535 65535
r 8.981675 0 1 sctp 1500 -------D 0 0.0 1.0 1 60 127 0 59
+ 8.981675 1 0 sctp 48 -------S 0 1.0 0.0 1 60 134 65535 65535
- 8.981675 1 0 sctp 48 -------S 0 1.0 0.0 1 60 134 65535 65535
r 9.005675 0 1 sctp 1500 -------D 0 0.0 1.0 1 61 128 0 60
+ 9.005675 1 0 sctp 48 -------S 0 1.0 0.0 1 61 135 65535 65535
- 9.005675 1 0 sctp 48 -------S 0 1.0 0.0 1 61 135 65535 65535
r 9.029675 0 1 sctp 1500 -------D 0 0.0 1.0 1 62 129 0 61
+ 9.029675 1 0 sctp 48 -------S 0 1.0 0.0 1 62 136 65535 65535
- 9.029675 1 0 sctp 48 -------S 0 1.0 0.0 1 62 136 65535 65535
r 9.053675 0 1 sctp 1500 -------D 0 0.0 1.0 1 63 130 0 62
+ 9.053675 1 0 sctp 48 -------S 0 1.0 0.0 1 63 137 65535 65535
- 9.053675 1 0 sctp 48 -------S 0 1.0 0.0 1 63 137 65535 65535
r 9.077675 0 1 sctp 1500 -------D 0 0.0 1.0 1 64 131 0 63
+ 9.077675 1 0 sctp 48 -------S 0 1.0 0.0 1 64 138 65535 65535
- 9.077675 1 0 sctp 48 -------S 0 1.0 0.0 1 64 138 65535 65535
r 9.101675 0 1 sctp 1500 -------D 0 0.0 1.0 1 65 132 0 64
+ 9.101675 1 0 sctp 48 -------S 0 1.0 0.0 1 65 139 65535 65535
- 9.101675 1 0 sctp 48 -------S 0 1.0 0.0 1 65 139 65535 65535
r 9.258443 1 0 sctp 48 -------S 0 1.0 0.0 1 59 133 65535 65535
+ 9.258443 0 1 sctp 1500 -------D 0 0.0 1.0 1 66 140 0 65
- 9.258443 0 1 sctp 1500 -------D 0 0.0 1.0 1 66 140 0 65
r 9.282443 1 0 sctp 48 -------S 0 1.0 0.0 1 60 134 65535 65535
+ 9.282443 0 1 sctp 1500 -------D 0 0.0 1.0 1 67 141 0 66
- 9.282443 0 1 sctp 1500 -------D 0 0.0 1.0 1 67 141 0 66
r 9.306443 1 0 sctp 48 -------S 0 1.0 0.0 1 61 135 65535 65535
+ 9.306443 0 1 sctp 1500 -------D 0 0.0 1.0 1 68 142 0 67
- 9.306443 0 1 sctp 1500 -------D 0 0.0 1.0 1 68 142 0 67
r 9.330443 1 0 sctp 48 -------S 0 1.0 0.0 1 62 136 65535 65535
+ 9.330443 0 1 sctp 1500 -------D 0 0.0 1.0 1 69 143 0 68
+ 9.330443 0 1 sctp 1500 -------D 0 0.0 1.0 1 70 144 0 69
- 9.330443 0 1 sctp 1500 -------D 0 0.0 1.0 1 69 143 0 68
r 9.354443 1 0 sctp 48 -------S 0 1.0 0.0 1 63 137 65535 65535
+ 9.354443 0 1 sctp 1500 -------D 0 0.0 1.0 1 71 145 0 70
- 9.354443 0 1 sctp 1500 -------D 0 0.0 1.0 1 70 144 0 69
r 9.378443 1 0 sctp 48 -------S 0 1.0 0.0 1 64 138 65535 65535
+ 9.378443 0 1 sctp 1500 -------D 0 0.0 1.0 1 72 146 0 71
- 9.378443 0 1 sctp 1500 -------D 0 0.0 1.0 1 71 145 0 70
r 9.402443 1 0 sctp 48 -------S 0 1.0 0.0 1 65 139 65535 65535
+ 9.402443 0 1 sctp 1500 -------D 0 0.0 1.0 1 73 147 0 72
- 9.402443 0 1 sctp 1500 -------D 0 0.0 1.0 1 72 146 0 71
- 9.426443 0 1 sctp 1500 -------D 0 0.0 1.0 1 73 147 0 72
r 9.582443 0 1 sctp 1500 -------D 0 0.0 1.0 1 66 140 0 65
+ 9.582443 1 0 sctp 48 -------S 0 1.0 0.0 1 66 148 65535 65535
- 9.582443 1 0 sctp 48 -------S 0 1.0 0.0 1 66 148 65535 65535
r 9.606443 0 1 sctp 1500 -------D 0 0.0 1.0 1 67 141 0 66
+ 9.606443 1 0 sctp 48 -------S 0 1.0 0.0 1 67 149 65535 65535
- 9.606443 1 0 sctp 48 -------S 0 1.0 0.0 1 67 149 65535 65535
r 9.630443 0 1 sctp 1500 -------D 0 0.0 1.0 1 68 142 0 67
+ 9.630443 1 0 sctp 48 -------S 0 1.0 0.0 1 68 150 65535 65535
- 9.630443 1 0 sctp 48 -------S 0 1.0 0.0 1 68 150 65535 65535
r 9.654443 0 1 sctp 1500 -------D 0 0.0 1.0 1 69 143 0 68
+ 9.654443 1 0 sctp 48 -------S 0 1.0 0.0 1 69 151 65535 65535
- 9.654443 1 0 sctp 48 -------S 0 1.0 0.0 1 69 151 65535 65535
r 9.678443 0 1 sctp 1500 -------D 0 0.0 1.0 1 70 144 0 69
+ 9.678443 1 0 sctp 48 -------S 0 1.0 0.0 1 70 152 65535 65535
- 9.678443 1 0 sctp 48 -------S 0 1.0 0.0 1 70 152 65535 65535
r 9.702443 0 1 sctp 1500 -------D 0 0.0 1.0 1 71 145 0 70
+ 9.702443 1 0 sctp 48 -------S 0 1.0 0.0 1 71 153 65535 65535
- 9.702443 1 0 sctp 48 -------S 0 1.0 0.0 1 71 153 65535 65535
r 9.726443 0 1 sctp 1500 -------D 0 0.0 1.0 1 72 146 0 71
+ 9.726443 1 0 sctp 48 -------S 0 1.0 0.0 1 72 154 65535 65535
- 9.726443 1 0 sctp 48 -------S 0 1.0 0.0 1 72 154 65535 65535
r 9.750443 0 1 sctp 1500 -------D 0 0.0 1.0 1 73 147 0 72
+ 9.750443 1 0 sctp 48 -------S 0 1.0 0.0 1 73 155 65535 65535
- 9.750443 1 0 sctp 48 -------S 0 1.0 0.0 1 73 155 65535 65535
r 9.883211 1 0 sctp 48 -------S 0 1.0 0.0 1 66 148 65535 65535
+ 9.883211 0 1 sctp 1500 -------D 0 0.0 1.0 1 74 156 0 73
- 9.883211 0 1 sctp 1500 -------D 0 0.0 1.0 1 74 156 0 73
r 9.907211 1 0 sctp 48 -------S 0 1.0 0.0 1 67 149 65535 65535
+ 9.907211 0 1 sctp 1500 -------D 0 0.0 1.0 1 75 157 0 74
- 9.907211 0 1 sctp 1500 -------D 0 0.0 1.0 1 75 157 0 74
r 9.931211 1 0 sctp 48 -------S 0 1.0 0.0 1 68 150 65535 65535
+ 9.931211 0 1 sctp 1500 -------D 0 0.0 1.0 1 76 158 0 75
- 9.931211 0 1 sctp 1500 -------D 0 0.0 1.0 1 76 158 0 75
r 9.955211 1 0 sctp 48 -------S 0 1.0 0.0 1 69 151 65535 65535
+ 9.955211 0 1 sctp 1500 -------D 0 0.0 1.0 1 77 159 0 76
- 9.955211 0 1 sctp 1500 -------D 0 0.0 1.0 1 77 159 0 76
r 9.979211 1 0 sctp 48 -------S 0 1.0 0.0 1 70 152 65535 65535
+ 9.979211 0 1 sctp 1500 -------D 0 0.0 1.0 1 78 160 0 77
+ 9.979211 0 1 sctp 1500 -------D 0 0.0 1.0 1 79 161 0 78
- 9.979211 0 1 sctp 1500 -------D 0 0.0 1.0 1 78 160 0 77
