+ 0.5 0 1 sctp 56 -------I 0 0.0 1.0 1 -1 2 65535 65535
- 0.5 0 1 sctp 56 -------I 0 0.0 1.0 1 -1 2 65535 65535
r 0.700896 0 1 sctp 56 -------I 0 0.0 1.0 1 -1 2 65535 65535
+ 0.700896 1 0 sctp 56 -------I 0 1.0 0.0 1 -1 3 65535 65535
- 0.700896 1 0 sctp 56 -------I 0 1.0 0.0 1 -1 3 65535 65535
r 0.901792 1 0 sctp 56 -------I 0 1.0 0.0 1 -1 3 65535 65535
+ 0.901792 0 1 sctp 36 -------I 0 0.0 1.0 1 -1 4 65535 65535
- 0.901792 0 1 sctp 36 -------I 0 0.0 1.0 1 -1 4 65535 65535
r 1.102368 0 1 sctp 36 -------I 0 0.0 1.0 1 -1 4 65535 65535
+ 1.102368 1 0 sctp 36 -------I 0 1.0 0.0 1 -1 5 65535 65535
- 1.102368 1 0 sctp 36 -------I 0 1.0 0.0 1 -1 5 65535 65535
r 1.302944 1 0 sctp 36 -------I 0 1.0 0.0 1 -1 5 65535 65535
+ 1.302944 0 1 sctp 56 -------H 0 0.0 1.0 1 -1 6 65535 65535
- 1.302944 0 1 sctp 56 -------H 0 0.0 1.0 1 -1 6 65535 65535
r 1.50384 0 1 sctp 56 -------H 0 0.0 1.0 1 -1 6 65535 65535
+ 1.50384 1 0 sctp 56 -------B 0 1.0 0.0 1 -1 7 65535 65535
- 1.50384 1 0 sctp 56 -------B 0 1.0 0.0 1 -1 7 65535 65535
r 1.704736 1 0 sctp 56 -------B 0 1.0 0.0 1 -1 7 65535 65535
+ 1.704736 0 1 sctp 1500 -------D 0 0.0 1.0 1 1 8 0 0
- 1.704736 0 1 sctp 1500 -------D 0 0.0 1.0 1 1 8 0 0
+ 1.704736 0 1 sctp 1500 -------D 0 0.0 1.0 1 2 9 0 1
+ 1.704736 0 1 sctp 1500 -------D 0 0.0 1.0 1 3 10 0 2
- 1.728736 0 1 sctp 1500 -------D 0 0.0 1.0 1 2 9 0 1
- 1.752736 0 1 sctp 1500 -------D 0 0.0 1.0 1 3 10 0 2
r 1.928736 0 1 sctp 1500 -------D 0 0.0 1.0 1 1 8 0 0
+ 1.928736 1 0 sctp 48 -------S 0 1.0 0.0 1 1 11 65535 65535
- 1.928736 1 0 sctp 48 -------S 0 1.0 0.0 1 1 11 65535 65535
r 1.952736 0 1 sctp 1500 -------D 0 0.0 1.0 1 2 9 0 1
+ 1.952736 1 0 sctp 48 -------S 0 1.0 0.0 1 2 12 65535 65535
- 1.952736 1 0 sctp 48 -------S 0 1.0 0.0 1 2 12 65535 65535
r 1.976736 0 1 sctp 1500 -------D 0 0.0 1.0 1 3 10 0 2
+ 1.976736 1 0 sctp 48 -------S 0 1.0 0.0 1 3 13 65535 65535
- 1.976736 1 0 sctp 48 -------S 0 1.0 0.0 1 3 13 65535 65535
r 2.129504 1 0 sctp 48 -------S 0 1.0 0.0 1 1 11 65535 65535
+ 2.129504 0 1 sctp 1500 -------D 0 0.0 1.0 1 4 14 0 3
- 2.129504 0 1 sctp 1500 -------D 0 0.0 1.0 1 4 14 0 3
+ 2.129504 0 1 sctp 1500 -------D 0 0.0 1.0 1 5 15 0 4
r 2.153504 1 0 sctp 48 -------S 0 1.0 0.0 1 2 12 65535 65535
+ 2.153504 0 1 sctp 1500 -------D 0 0.0 1.0 1 6 16 0 5
+ 2.153504 0 1 sctp 1500 -------D 0 0.0 1.0 1 7 17 0 6
- 2.153504 0 1 sctp 1500 -------D 0 0.0 1.0 1 5 15 0 4
r 2.177504 1 0 sctp 48 -------S 0 1.0 0.0 1 3 13 65535 65535
+ 2.177504 0 1 sctp 1500 -------D 0 0.0 1.0 1 8 18 0 7
+ 2.177504 0 1 sctp 1500 -------D 0 0.0 1.0 1 9 19 0 8
- 2.177504 0 1 sctp 1500 -------D 0 0.0 1.0 1 6 16 0 5
- 2.201504 0 1 sctp 1500 -------D 0 0.0 1.0 1 7 17 0 6
- 2.225504 0 1 sctp 1500 -------D 0 0.0 1.0 1 8 18 0 7
- 2.249504 0 1 sctp 1500 -------D 0 0.0 1.0 1 9 19 0 8
r 2.353504 0 1 sctp 1500 -------D 0 0.0 1.0 1 4 14 0 3
+ 2.353504 1 0 sctp 48 -------S 0 1.0 0.0 1 4 20 65535 65535
- 2.353504 1 0 sctp 48 -------S 0 1.0 0.0 1 4 20 65535 65535
r 2.377504 0 1 sctp 1500 -------D 0 0.0 1.0 1 5 15 0 4
+ 2.377504 1 0 sctp 48 -------S 0 1.0 0.0 1 5 21 65535 65535
- 2.377504 1 0 sctp 48 -------S 0 1.0 0.0 1 5 21 65535 65535
r 2.401504 0 1 sctp 1500 -------D 0 0.0 1.0 1 6 16 0 5
+ 2.401504 1 0 sctp 48 -------S 0 1.0 0.0 1 6 22 65535 65535
- 2.401504 1 0 sctp 48 -------S 0 1.0 0.0 1 6 22 65535 65535
r 2.425504 0 1 sctp 1500 -------D 0 0.0 1.0 1 7 17 0 6
+ 2.425504 1 0 sctp 48 -------S 0 1.0 0.0 1 7 23 65535 65535
- 2.425504 1 0 sctp 48 -------S 0 1.0 0.0 1 7 23 65535 65535
r 2.449504 0 1 sctp 1500 -------D 0 0.0 1.0 1 8 18 0 7
+ 2.449504 1 0 sctp 48 -------S 0 1.0 0.0 1 8 24 65535 65535
- 2.449504 1 0 sctp 48 -------S 0 1.0 0.0 1 8 24 65535 65535
r 2.473504 0 1 sctp 1500 -------D 0 0.0 1.0 1 9 19 0 8
+ 2.473504 1 0 sctp 48 -------S 0 1.0 0.0 1 9 25 65535 65535
- 2.473504 1 0 sctp 48 -------S 0 1.0 0.0 1 9 25 65535 65535
r 2.554272 1 0 sctp 48 -------S 0 1.0 0.0 1 4 20 65535 65535
+ 2.554272 0 1 sctp 1500 -------D 0 0.0 1.0 1 10 26 0 9
- 2.554272 0 1 sctp 1500 -------D 0 0.0 1.0 1 10 26 0 9
+ 2.554272 0 1 sctp 1500 -------D 0 0.0 1.0 1 11 27 0 10
r 2.578272 1 0 sctp 48 -------S 0 1.0 0.0 1 5 21 65535 65535
+ 2.578272 0 1 sctp 1500 -------D 0 0.0 1.0 1 12 28 0 11
+ 2.578272 0 1 sctp 1500 -------D 0 0.0 1.0 1 13 29 0 12
- 2.578272 0 1 sctp 1500 -------D 0 0.0 1.0 1 11 27 0 10
r 2.602272 1 0 sctp 48 -------S 0 1.0 0.0 1 6 22 65535 65535
+ 2.602272 0 1 sctp 1500 -------D 0 0.0 1.0 1 14 30 0 13
+ 2.602272 0 1 sctp 1500 -------D 0 0.0 1.0 1 15 31 0 14
- 2.602272 0 1 sctp 1500 -------D 0 0.0 1.0 1 12 28 0 11
r 2.626272 1 0 sctp 48 -------S 0 1.0 0.0 1 7 23 65535 65535
+ 2.626272 0 1 sctp 1500 -------D 0 0.0 1.0 1 16 32 0 15
d 2.626272 0 1 sctp 1500 -------D 0 0.0 1.0 1 17 33 0 16
- 2.626272 0 1 sctp 1500 -------D 0 0.0 1.0 1 13 29 0 12
r 2.650272 1 0 sctp 48 -------S 0 1.0 0.0 1 8 24 65535 65535
d 2.650272 0 1 sctp 1500 -------D 0 0.0 1.0 1 18 34 0 17
+ 2.650272 0 1 sctp 1500 -------D 0 0.0 1.0 1 19 35 0 18
- 2.650272 0 1 sctp 1500 -------D 0 0.0 1.0 1 14 30 0 13
r 2.674272 1 0 sctp 48 -------S 0 1.0 0.0 1 9 25 65535 65535
d 2.674272 0 1 sctp 1500 -------D 0 0.0 1.0 1 20 36 0 19
d 2.674272 0 1 sctp 1500 -------D 0 0.0 1.0 1 21 37 0 20
- 2.674272 0 1 sctp 1500 -------D 0 0.0 1.0 1 15 31 0 14
- 2.698272 0 1 sctp 1500 -------D 0 0.0 1.0 1 16 32 0 15
- 2.722272 0 1 sctp 1500 -------D 0 0.0 1.0 1 19 35 0 18
r 2.778272 0 1 sctp 1500 -------D 0 0.0 1.0 1 10 26 0 9
+ 2.778272 1 0 sctp 48 -------S 0 1.0 0.0 1 10 38 65535 65535
- 2.778272 1 0 sctp 48 -------S 0 1.0 0.0 1 10 38 65535 65535
r 2.802272 0 1 sctp 1500 -------D 0 0.0 1.0 1 11 27 0 10
+ 2.802272 1 0 sctp 48 -------S 0 1.0 0.0 1 11 39 65535 65535
- 2.802272 1 0 sctp 48 -------S 0 1.0 0.0 1 11 39 65535 65535
r 2.826272 0 1 sctp 1500 -------D 0 0.0 1.0 1 12 28 0 11
+ 2.826272 1 0 sctp 48 -------S 0 1.0 0.0 1 12 40 65535 65535
- 2.826272 1 0 sctp 48 -------S 0 1.0 0.0 1 12 40 65535 65535
r 2.850272 0 1 sctp 1500 -------D 0 0.0 1.0 1 13 29 0 12
+ 2.850272 1 0 sctp 48 -------S 0 1.0 0.0 1 13 41 65535 65535
- 2.850272 1 0 sctp 48 -------S 0 1.0 0.0 1 13 41 65535 65535
r 2.874272 0 1 sctp 1500 -------D 0 0.0 1.0 1 14 30 0 13
+ 2.874272 1 0 sctp 48 -------S 0 1.0 0.0 1 14 42 65535 65535
- 2.874272 1 0 sctp 48 -------S 0 1.0 0.0 1 14 42 65535 65535
r 2.898272 0 1 sctp 1500 -------D 0 0.0 1.0 1 15 31 0 14
+ 2.898272 1 0 sctp 48 -------S 0 1.0 0.0 1 15 43 65535 65535
- 2.898272 1 0 sctp 48 -------S 0 1.0 0.0 1 15 43 65535 65535
r 2.922272 0 1 sctp 1500 -------D 0 0.0 1.0 1 16 32 0 15
+ 2.922272 1 0 sctp 48 -------S 0 1.0 0.0 1 16 44 65535 65535
- 2.922272 1 0 sctp 48 -------S 0 1.0 0.0 1 16 44 65535 65535
r 2.946272 0 1 sctp 1500 -------D 0 0.0 1.0 1 19 35 0 18
+ 2.946272 1 0 sctp 52 -------S 0 1.0 0.0 1 16 45 65535 65535
- 2.946272 1 0 sctp 52 -------S 0 1.0 0.0 1 16 45 65535 65535
r 2.97904 1 0 sctp 48 -------S 0 1.0 0.0 1 10 38 65535 65535
+ 2.97904 0 1 sctp 1500 -------D 0 0.0 1.0 1 22 46 0 21
- 2.97904 0 1 sctp 1500 -------D 0 0.0 1.0 1 22 46 0 21
+ 2.97904 0 1 sctp 1500 -------D 0 0.0 1.0 1 23 47 0 22
r 3.00304 1 0 sctp 48 -------S 0 1.0 0.0 1 11 39 65535 65535
+ 3.00304 0 1 sctp 1500 -------D 0 0.0 1.0 1 24 48 0 23
+ 3.00304 0 1 sctp 1500 -------D 0 0.0 1.0 1 25 49 0 24
- 3.00304 0 1 sctp 1500 -------D 0 0.0 1.0 1 23 47 0 22
r 3.02704 1 0 sctp 48 -------S 0 1.0 0.0 1 12 40 65535 65535
+ 3.02704 0 1 sctp 1500 -------D 0 0.0 1.0 1 26 50 0 25
+ 3.02704 0 1 sctp 1500 -------D 0 0.0 1.0 1 27 51 0 26
- 3.02704 0 1 sctp 1500 -------D 0 0.0 1.0 1 24 48 0 23
r 3.05104 1 0 sctp 48 -------S 0 1.0 0.0 1 13 41 65535 65535
+ 3.05104 0 1 sctp 1500 -------D 0 0.0 1.0 1 28 52 0 27
+ 3.05104 0 1 sctp 1500 -------D 0 0.0 1.0 1 29 53 0 28
- 3.05104 0 1 sctp 1500 -------D 0 0.0 1.0 1 25 49 0 24
r 3.07504 1 0 sctp 48 -------S 0 1.0 0.0 1 14 42 65535 65535
+ 3.07504 0 1 sctp 1500 -------D 0 0.0 1.0 1 30 54 0 29
+ 3.07504 0 1 sctp 1500 -------D 0 0.0 1.0 1 31 55 0 30
- 3.07504 0 1 sctp 1500 -------D 0 0.0 1.0 1 26 50 0 25
r 3.09904 1 0 sctp 48 -------S 0 1.0 0.0 1 15 43 65535 65535
+ 3.09904 0 1 sctp 1500 -------D 0 0.0 1.0 1 32 56 0 31
+ 3.09904 0 1 sctp 1500 -------D 0 0.0 1.0 1 33 57 0 32
- 3.09904 0 1 sctp 1500 -------D 0 0.0 1.0 1 27 51 0 26
r 3.12304 1 0 sctp 48 -------S 0 1.0 0.0 1 16 44 65535 65535
+ 3.12304 0 1 sctp 1500 -------D 0 0.0 1.0 1 34 58 0 33
+ 3.12304 0 1 sctp 1500 -------D 0 0.0 1.0 1 35 59 0 34
- 3.12304 0 1 sctp 1500 -------D 0 0.0 1.0 1 28 52 0 27
- 3.14704 0 1 sctp 1500 -------D 0 0.0 1.0 1 29 53 0 28
r 3.147104 1 0 sctp 52 -------S 0 1.0 0.0 1 16 45 65535 65535
+ 3.147104 0 1 sctp 1500 -------D 0 0.0 1.0 1 36 60 0 35
- 3.17104 0 1 sctp 1500 -------D 0 0.0 1.0 1 30 54 0 29
- 3.19504 0 1 sctp 1500 -------D 0 0.0 1.0 1 31 55 0 30
r 3.20304 0 1 sctp 1500 -------D 0 0.0 1.0 1 22 46 0 21
+ 3.20304 1 0 sctp 56 -------S 0 1.0 0.0 1 16 61 65535 65535
- 3.20304 1 0 sctp 56 -------S 0 1.0 0.0 1 16 61 65535 65535
- 3.21904 0 1 sctp 1500 -------D 0 0.0 1.0 1 32 56 0 31
r 3.22704 0 1 sctp 1500 -------D 0 0.0 1.0 1 23 47 0 22
+ 3.22704 1 0 sctp 56 -------S 0 1.0 0.0 1 16 62 65535 65535
- 3.22704 1 0 sctp 56 -------S 0 1.0 0.0 1 16 62 65535 65535
- 3.24304 0 1 sctp 1500 -------D 0 0.0 1.0 1 33 57 0 32
r 3.25104 0 1 sctp 1500 -------D 0 0.0 1.0 1 24 48 0 23
+ 3.25104 1 0 sctp 56 -------S 0 1.0 0.0 1 16 63 65535 65535
- 3.25104 1 0 sctp 56 -------S 0 1.0 0.0 1 16 63 65535 65535
- 3.26704 0 1 sctp 1500 -------D 0 0.0 1.0 1 34 58 0 33
r 3.27504 0 1 sctp 1500 -------D 0 0.0 1.0 1 25 49 0 24
+ 3.27504 1 0 sctp 56 -------S 0 1.0 0.0 1 16 64 65535 65535
- 3.27504 1 0 sctp 56 -------S 0 1.0 0.0 1 16 64 65535 65535
- 3.29104 0 1 sctp 1500 -------D 0 0.0 1.0 1 35 59 0 34
r 3.29904 0 1 sctp 1500 -------D 0 0.0 1.0 1 26 50 0 25
+ 3.29904 1 0 sctp 56 -------S 0 1.0 0.0 1 16 65 65535 65535
- 3.29904 1 0 sctp 56 -------S 0 1.0 0.0 1 16 65 65535 65535
- 3.31504 0 1 sctp 1500 -------D 0 0.0 1.0 1 36 60 0 35
r 3.32304 0 1 sctp 1500 -------D 0 0.0 1.0 1 27 51 0 26
+ 3.32304 1 0 sctp 56 -------S 0 1.0 0.0 1 16 66 65535 65535
- 3.32304 1 0 sctp 56 -------S 0 1.0 0.0 1 16 66 65535 65535
r 3.34704 0 1 sctp 1500 -------D 0 0.0 1.0 1 28 52 0 27
+ 3.34704 1 0 sctp 56 -------S 0 1.0 0.0 1 16 67 65535 65535
- 3.34704 1 0 sctp 56 -------S 0 1.0 0.0 1 16 67 65535 65535
r 3.37104 0 1 sctp 1500 -------D 0 0.0 1.0 1 29 53 0 28
+ 3.37104 1 0 sctp 56 -------S 0 1.0 0.0 1 16 68 65535 65535
- 3.37104 1 0 sctp 56 -------S 0 1.0 0.0 1 16 68 65535 65535
r 3.39504 0 1 sctp 1500 -------D 0 0.0 1.0 1 30 54 0 29
+ 3.39504 1 0 sctp 56 -------S 0 1.0 0.0 1 16 69 65535 65535
- 3.39504 1 0 sctp 56 -------S 0 1.0 0.0 1 16 69 65535 65535
r 3.403936 1 0 sctp 56 -------S 0 1.0 0.0 1 16 61 65535 65535
+ 3.403936 0 1 sctp 1500 -------D 0 0.0 1.0 1 37 70 0 36
- 3.403936 0 1 sctp 1500 -------D 0 0.0 1.0 1 37 70 0 36
r 3.41904 0 1 sctp 1500 -------D 0 0.0 1.0 1 31 55 0 30
+ 3.41904 1 0 sctp 56 -------S 0 1.0 0.0 1 16 71 65535 65535
- 3.41904 1 0 sctp 56 -------S 0 1.0 0.0 1 16 71 65535 65535
r 3.427936 1 0 sctp 56 -------S 0 1.0 0.0 1 16 62 65535 65535
+ 3.427936 0 1 sctp 1500 -------D 0 0.0 1.0 1 17 72 0 16
- 3.427936 0 1 sctp 1500 -------D 0 0.0 1.0 1 17 72 0 16
r 3.44304 0 1 sctp 1500 -------D 0 0.0 1.0 1 32 56 0 31
+ 3.44304 1 0 sctp 56 -------S 0 1.0 0.0 1 16 73 65535 65535
- 3.44304 1 0 sctp 56 -------S 0 1.0 0.0 1 16 73 65535 65535
r 3.451936 1 0 sctp 56 -------S 0 1.0 0.0 1 16 63 65535 65535
+ 3.451936 0 1 sctp 1500 -------D 0 0.0 1.0 1 18 74 0 17
- 3.451936 0 1 sctp 1500 -------D 0 0.0 1.0 1 18 74 0 17
r 3.46704 0 1 sctp 1500 -------D 0 0.0 1.0 1 33 57 0 32
+ 3.46704 1 0 sctp 56 -------S 0 1.0 0.0 1 16 75 65535 65535
- 3.46704 1 0 sctp 56 -------S 0 1.0 0.0 1 16 75 65535 65535
r 3.475936 1 0 sctp 56 -------S 0 1.0 0.0 1 16 64 65535 65535
r 3.49104 0 1 sctp 1500 -------D 0 0.0 1.0 1 34 58 0 33
+ 3.49104 1 0 sctp 56 -------S 0 1.0 0.0 1 16 76 65535 65535
- 3.49104 1 0 sctp 56 -------S 0 1.0 0.0 1 16 76 65535 65535
r 3.499936 1 0 sctp 56 -------S 0 1.0 0.0 1 16 65 65535 65535
r 3.51504 0 1 sctp 1500 -------D 0 0.0 1.0 1 35 59 0 34
+ 3.51504 1 0 sctp 56 -------S 0 1.0 0.0 1 16 77 65535 65535
- 3.51504 1 0 sctp 56 -------S 0 1.0 0.0 1 16 77 65535 65535
r 3.523936 1 0 sctp 56 -------S 0 1.0 0.0 1 16 66 65535 65535
r 3.53904 0 1 sctp 1500 -------D 0 0.0 1.0 1 36 60 0 35
+ 3.53904 1 0 sctp 56 -------S 0 1.0 0.0 1 16 78 65535 65535
- 3.53904 1 0 sctp 56 -------S 0 1.0 0.0 1 16 78 65535 65535
r 3.547936 1 0 sctp 56 -------S 0 1.0 0.0 1 16 67 65535 65535
r 3.571936 1 0 sctp 56 -------S 0 1.0 0.0 1 16 68 65535 65535
r 3.595936 1 0 sctp 56 -------S 0 1.0 0.0 1 16 69 65535 65535
+ 3.595936 0 1 sctp 1500 -------D 0 0.0 1.0 1 20 79 0 19
- 3.595936 0 1 sctp 1500 -------D 0 0.0 1.0 1 20 79 0 19
r 3.619936 1 0 sctp 56 -------S 0 1.0 0.0 1 16 71 65535 65535
+ 3.619936 0 1 sctp 1500 -------D 0 0.0 1.0 1 21 80 0 20
- 3.619936 0 1 sctp 1500 -------D 0 0.0 1.0 1 21 80 0 20
r 3.627936 0 1 sctp 1500 -------D 0 0.0 1.0 1 37 70 0 36
+ 3.627936 1 0 sctp 56 -------S 0 1.0 0.0 1 16 81 65535 65535
- 3.627936 1 0 sctp 56 -------S 0 1.0 0.0 1 16 81 65535 65535
r 3.643936 1 0 sctp 56 -------S 0 1.0 0.0 1 16 73 65535 65535
+ 3.643936 0 1 sctp 1500 -------D 0 0.0 1.0 1 38 82 0 37
- 3.643936 0 1 sctp 1500 -------D 0 0.0 1.0 1 38 82 0 37
r 3.651936 0 1 sctp 1500 -------D 0 0.0 1.0 1 17 72 0 16
+ 3.651936 1 0 sctp 56 -------S 0 1.0 0.0 1 17 83 65535 65535
- 3.651936 1 0 sctp 56 -------S 0 1.0 0.0 1 17 83 65535 65535
r 3.667936 1 0 sctp 56 -------S 0 1.0 0.0 1 16 75 65535 65535
+ 3.667936 0 1 sctp 1500 -------D 0 0.0 1.0 1 39 84 0 38
- 3.667936 0 1 sctp 1500 -------D 0 0.0 1.0 1 39 84 0 38
r 3.675936 0 1 sctp 1500 -------D 0 0.0 1.0 1 18 74 0 17
+ 3.675936 1 0 sctp 52 -------S 0 1.0 0.0 1 19 85 65535 65535
- 3.675936 1 0 sctp 52 -------S 0 1.0 0.0 1 19 85 65535 65535
r 3.691936 1 0 sctp 56 -------S 0 1.0 0.0 1 16 76 65535 65535
+ 3.691936 0 1 sctp 1500 -------D 0 0.0 1.0 1 40 86 0 39
- 3.691936 0 1 sctp 1500 -------D 0 0.0 1.0 1 40 86 0 39
r 3.715936 1 0 sctp 56 -------S 0 1.0 0.0 1 16 77 65535 65535
+ 3.715936 0 1 sctp 1500 -------D 0 0.0 1.0 1 41 87 0 40
- 3.715936 0 1 sctp 1500 -------D 0 0.0 1.0 1 41 87 0 40
r 3.739936 1 0 sctp 56 -------S 0 1.0 0.0 1 16 78 65535 65535
+ 3.739936 0 1 sctp 1500 -------D 0 0.0 1.0 1 42 88 0 41
- 3.739936 0 1 sctp 1500 -------D 0 0.0 1.0 1 42 88 0 41
r 3.819936 0 1 sctp 1500 -------D 0 0.0 1.0 1 20 79 0 19
+ 3.819936 1 0 sctp 52 -------S 0 1.0 0.0 1 20 89 65535 65535
- 3.819936 1 0 sctp 52 -------S 0 1.0 0.0 1 20 89 65535 65535
r 3.828832 1 0 sctp 56 -------S 0 1.0 0.0 1 16 81 65535 65535
+ 3.828832 0 1 sctp 1500 -------D 0 0.0 1.0 1 43 90 0 42
- 3.828832 0 1 sctp 1500 -------D 0 0.0 1.0 1 43 90 0 42
r 3.843936 0 1 sctp 1500 -------D 0 0.0 1.0 1 21 80 0 20
+ 3.843936 1 0 sctp 48 -------S 0 1.0 0.0 1 37 91 65535 65535
- 3.843936 1 0 sctp 48 -------S 0 1.0 0.0 1 37 91 65535 65535
r 3.852832 1 0 sctp 56 -------S 0 1.0 0.0 1 17 83 65535 65535
+ 3.852832 0 1 sctp 1500 -------D 0 0.0 1.0 1 44 92 0 43
- 3.852832 0 1 sctp 1500 -------D 0 0.0 1.0 1 44 92 0 43
r 3.867936 0 1 sctp 1500 -------D 0 0.0 1.0 1 38 82 0 37
+ 3.867936 1 0 sctp 48 -------S 0 1.0 0.0 1 38 93 65535 65535
- 3.867936 1 0 sctp 48 -------S 0 1.0 0.0 1 38 93 65535 65535
r 3.876768 1 0 sctp 52 -------S 0 1.0 0.0 1 19 85 65535 65535
+ 3.876768 0 1 sctp 1500 -------D 0 0.0 1.0 1 45 94 0 44
- 3.876832 0 1 sctp 1500 -------D 0 0.0 1.0 1 45 94 0 44
r 3.891936 0 1 sctp 1500 -------D 0 0.0 1.0 1 39 84 0 38
+ 3.891936 1 0 sctp 48 -------S 0 1.0 0.0 1 39 95 65535 65535
- 3.891936 1 0 sctp 48 -------S 0 1.0 0.0 1 39 95 65535 65535
r 3.915936 0 1 sctp 1500 -------D 0 0.0 1.0 1 40 86 0 39
+ 3.915936 1 0 sctp 48 -------S 0 1.0 0.0 1 40 96 65535 65535
- 3.915936 1 0 sctp 48 -------S 0 1.0 0.0 1 40 96 65535 65535
r 3.939936 0 1 sctp 1500 -------D 0 0.0 1.0 1 41 87 0 40
+ 3.939936 1 0 sctp 48 -------S 0 1.0 0.0 1 41 97 65535 65535
- 3.939936 1 0 sctp 48 -------S 0 1.0 0.0 1 41 97 65535 65535
r 3.963936 0 1 sctp 1500 -------D 0 0.0 1.0 1 42 88 0 41
+ 3.963936 1 0 sctp 48 -------S 0 1.0 0.0 1 42 98 65535 65535
- 3.963936 1 0 sctp 48 -------S 0 1.0 0.0 1 42 98 65535 65535
r 4.020768 1 0 sctp 52 -------S 0 1.0 0.0 1 20 89 65535 65535
+ 4.020768 0 1 sctp 1500 -------D 0 0.0 1.0 1 46 99 0 45
- 4.020768 0 1 sctp 1500 -------D 0 0.0 1.0 1 46 99 0 45
r 4.044704 1 0 sctp 48 -------S 0 1.0 0.0 1 37 91 65535 65535
+ 4.044704 0 1 sctp 1500 -------D 0 0.0 1.0 1 47 100 0 46
+ 4.044704 0 1 sctp 1500 -------D 0 0.0 1.0 1 48 101 0 47
- 4.044768 0 1 sctp 1500 -------D 0 0.0 1.0 1 47 100 0 46
r 4.052832 0 1 sctp 1500 -------D 0 0.0 1.0 1 43 90 0 42
+ 4.052832 1 0 sctp 48 -------S 0 1.0 0.0 1 43 102 65535 65535
- 4.052832 1 0 sctp 48 -------S 0 1.0 0.0 1 43 102 65535 65535
r 4.068704 1 0 sctp 48 -------S 0 1.0 0.0 1 38 93 65535 65535
+ 4.068704 0 1 sctp 1500 -------D 0 0.0 1.0 1 49 103 0 48
- 4.068768 0 1 sctp 1500 -------D 0 0.0 1.0 1 48 101 0 47
r 4.076832 0 1 sctp 1500 -------D 0 0.0 1.0 1 44 92 0 43
+ 4.076832 1 0 sctp 48 -------S 0 1.0 0.0 1 44 104 65535 65535
- 4.076832 1 0 sctp 48 -------S 0 1.0 0.0 1 44 104 65535 65535
r 4.092704 1 0 sctp 48 -------S 0 1.0 0.0 1 39 95 65535 65535
+ 4.092704 0 1 sctp 1500 -------D 0 0.0 1.0 1 50 105 0 49
- 4.092768 0 1 sctp 1500 -------D 0 0.0 1.0 1 49 103 0 48
r 4.100832 0 1 sctp 1500 -------D 0 0.0 1.0 1 45 94 0 44
+ 4.100832 1 0 sctp 48 -------S 0 1.0 0.0 1 45 106 65535 65535
- 4.100832 1 0 sctp 48 -------S 0 1.0 0.0 1 45 106 65535 65535
r 4.116704 1 0 sctp 48 -------S 0 1.0 0.0 1 40 96 65535 65535
+ 4.116704 0 1 sctp 1500 -------D 0 0.0 1.0 1 51 107 0 50
- 4.116768 0 1 sctp 1500 -------D 0 0.0 1.0 1 50 105 0 49
r 4.140704 1 0 sctp 48 -------S 0 1.0 0.0 1 41 97 65535 65535
+ 4.140704 0 1 sctp 1500 -------D 0 0.0 1.0 1 52 108 0 51
- 4.140768 0 1 sctp 1500 -------D 0 0.0 1.0 1 51 107 0 50
r 4.164704 1 0 sctp 48 -------S 0 1.0 0.0 1 42 98 65535 65535
+ 4.164704 0 1 sctp 1500 -------D 0 0.0 1.0 1 53 109 0 52
- 4.164768 0 1 sctp 1500 -------D 0 0.0 1.0 1 52 108 0 51
- 4.188768 0 1 sctp 1500 -------D 0 0.0 1.0 1 53 109 0 52
r 4.244768 0 1 sctp 1500 -------D 0 0.0 1.0 1 46 99 0 45
+ 4.244768 1 0 sctp 48 -------S 0 1.0 0.0 1 46 110 65535 65535
- 4.244768 1 0 sctp 48 -------S 0 1.0 0.0 1 46 110 65535 65535
r 4.2536 1 0 sctp 48 -------S 0 1.0 0.0 1 43 102 65535 65535
+ 4.2536 0 1 sctp 1500 -------D 0 0.0 1.0 1 54 111 0 53
- 4.2536 0 1 sctp 1500 -------D 0 0.0 1.0 1 54 111 0 53
r 4.268768 0 1 sctp 1500 -------D 0 0.0 1.0 1 47 100 0 46
+ 4.268768 1 0 sctp 48 -------S 0 1.0 0.0 1 47 112 65535 65535
- 4.268768 1 0 sctp 48 -------S 0 1.0 0.0 1 47 112 65535 65535
r 4.2776 1 0 sctp 48 -------S 0 1.0 0.0 1 44 104 65535 65535
+ 4.2776 0 1 sctp 1500 -------D 0 0.0 1.0 1 55 113 0 54
- 4.2776 0 1 sctp 1500 -------D 0 0.0 1.0 1 55 113 0 54
r 4.292768 0 1 sctp 1500 -------D 0 0.0 1.0 1 48 101 0 47
+ 4.292768 1 0 sctp 48 -------S 0 1.0 0.0 1 48 114 65535 65535
- 4.292768 1 0 sctp 48 -------S 0 1.0 0.0 1 48 114 65535 65535
r 4.3016 1 0 sctp 48 -------S 0 1.0 0.0 1 45 106 65535 65535
+ 4.3016 0 1 sctp 1500 -------D 0 0.0 1.0 1 56 115 0 55
- 4.3016 0 1 sctp 1500 -------D 0 0.0 1.0 1 56 115 0 55
r 4.316768 0 1 sctp 1500 -------D 0 0.0 1.0 1 49 103 0 48
+ 4.316768 1 0 sctp 48 -------S 0 1.0 0.0 1 49 116 65535 65535
- 4.316768 1 0 sctp 48 -------S 0 1.0 0.0 1 49 116 65535 65535
r 4.340768 0 1 sctp 1500 -------D 0 0.0 1.0 1 50 105 0 49
+ 4.340768 1 0 sctp 48 -------S 0 1.0 0.0 1 50 117 65535 65535
- 4.340768 1 0 sctp 48 -------S 0 1.0 0.0 1 50 117 65535 65535
r 4.364768 0 1 sctp 1500 -------D 0 0.0 1.0 1 51 107 0 50
+ 4.364768 1 0 sctp 48 -------S 0 1.0 0.0 1 51 118 65535 65535
- 4.364768 1 0 sctp 48 -------S 0 1.0 0.0 1 51 118 65535 65535
r 4.388768 0 1 sctp 1500 -------D 0 0.0 1.0 1 52 108 0 51
+ 4.388768 1 0 sctp 48 -------S 0 1.0 0.0 1 52 119 65535 65535
- 4.388768 1 0 sctp 48 -------S 0 1.0 0.0 1 52 119 65535 65535
r 4.412768 0 1 sctp 1500 -------D 0 0.0 1.0 1 53 109 0 52
+ 4.412768 1 0 sctp 48 -------S 0 1.0 0.0 1 53 120 65535 65535
- 4.412768 1 0 sctp 48 -------S 0 1.0 0.0 1 53 120 65535 65535
r 4.445536 1 0 sctp 48 -------S 0 1.0 0.0 1 46 110 65535 65535
+ 4.445536 0 1 sctp 1500 -------D 0 0.0 1.0 1 57 121 0 56
- 4.445536 0 1 sctp 1500 -------D 0 0.0 1.0 1 57 121 0 56
r 4.469536 1 0 sctp 48 -------S 0 1.0 0.0 1 47 112 65535 65535
+ 4.469536 0 1 sctp 1500 -------D 0 0.0 1.0 1 58 122 0 57
- 4.469536 0 1 sctp 1500 -------D 0 0.0 1.0 1 58 122 0 57
r 4.4776 0 1 sctp 1500 -------D 0 0.0 1.0 1 54 111 0 53
+ 4.4776 1 0 sctp 48 -------S 0 1.0 0.0 1 54 123 65535 65535
- 4.4776 1 0 sctp 48 -------S 0 1.0 0.0 1 54 123 65535 65535
r 4.493536 1 0 sctp 48 -------S 0 1.0 0.0 1 48 114 65535 65535
+ 4.493536 0 1 sctp 1500 -------D 0 0.0 1.0 1 59 124 0 58
+ 4.493536 0 1 sctp 1500 -------D 0 0.0 1.0 1 60 125 0 59
- 4.493536 0 1 sctp 1500 -------D 0 0.0 1.0 1 59 124 0 58
r 4.5016 0 1 sctp 1500 -------D 0 0.0 1.0 1 55 113 0 54
+ 4.5016 1 0 sctp 48 -------S 0 1.0 0.0 1 55 126 65535 65535
- 4.5016 1 0 sctp 48 -------S 0 1.0 0.0 1 55 126 65535 65535
r 4.517536 1 0 sctp 48 -------S 0 1.0 0.0 1 49 116 65535 65535
+ 4.517536 0 1 sctp 1500 -------D 0 0.0 1.0 1 61 127 0 60
- 4.517536 0 1 sctp 1500 -------D 0 0.0 1.0 1 60 125 0 59
r 4.5256 0 1 sctp 1500 -------D 0 0.0 1.0 1 56 115 0 55
+ 4.5256 1 0 sctp 48 -------S 0 1.0 0.0 1 56 128 65535 65535
- 4.5256 1 0 sctp 48 -------S 0 1.0 0.0 1 56 128 65535 65535
r 4.541536 1 0 sctp 48 -------S 0 1.0 0.0 1 50 117 65535 65535
+ 4.541536 0 1 sctp 1500 -------D 0 0.0 1.0 1 62 129 0 61
- 4.541536 0 1 sctp 1500 -------D 0 0.0 1.0 1 61 127 0 60
r 4.565536 1 0 sctp 48 -------S 0 1.0 0.0 1 51 118 65535 65535
+ 4.565536 0 1 sctp 1500 -------D 0 0.0 1.0 1 63 130 0 62
- 4.565536 0 1 sctp 1500 -------D 0 0.0 1.0 1 62 129 0 61
r 4.589536 1 0 sctp 48 -------S 0 1.0 0.0 1 52 119 65535 65535
+ 4.589536 0 1 sctp 1500 -------D 0 0.0 1.0 1 64 131 0 63
- 4.589536 0 1 sctp 1500 -------D 0 0.0 1.0 1 63 130 0 62
r 4.613536 1 0 sctp 48 -------S 0 1.0 0.0 1 53 120 65535 65535
+ 4.613536 0 1 sctp 1500 -------D 0 0.0 1.0 1 65 132 0 64
- 4.613536 0 1 sctp 1500 -------D 0 0.0 1.0 1 64 131 0 63
- 4.637536 0 1 sctp 1500 -------D 0 0.0 1.0 1 65 132 0 64
r 4.669536 0 1 sctp 1500 -------D 0 0.0 1.0 1 57 121 0 56
+ 4.669536 1 0 sctp 48 -------S 0 1.0 0.0 1 57 133 65535 65535
- 4.669536 1 0 sctp 48 -------S 0 1.0 0.0 1 57 133 65535 65535
r 4.678368 1 0 sctp 48 -------S 0 1.0 0.0 1 54 123 65535 65535
+ 4.678368 0 1 sctp 1500 -------D 0 0.0 1.0 1 66 134 0 65
- 4.678368 0 1 sctp 1500 -------D 0 0.0 1.0 1 66 134 0 65
r 4.693536 0 1 sctp 1500 -------D 0 0.0 1.0 1 58 122 0 57
+ 4.693536 1 0 sctp 48 -------S 0 1.0 0.0 1 58 135 65535 65535
- 4.693536 1 0 sctp 48 -------S 0 1.0 0.0 1 58 135 65535 65535
r 4.702368 1 0 sctp 48 -------S 0 1.0 0.0 1 55 126 65535 65535
+ 4.702368 0 1 sctp 1500 -------D 0 0.0 1.0 1 67 136 0 66
- 4.702368 0 1 sctp 1500 -------D 0 0.0 1.0 1 67 136 0 66
r 4.717536 0 1 sctp 1500 -------D 0 0.0 1.0 1 59 124 0 58
+ 4.717536 1 0 sctp 48 -------S 0 1.0 0.0 1 59 137 65535 65535
- 4.717536 1 0 sctp 48 -------S 0 1.0 0.0 1 59 137 65535 65535
r 4.726368 1 0 sctp 48 -------S 0 1.0 0.0 1 56 128 65535 65535
+ 4.726368 0 1 sctp 1500 -------D 0 0.0 1.0 1 68 138 0 67
- 4.726368 0 1 sctp 1500 -------D 0 0.0 1.0 1 68 138 0 67
r 4.741536 0 1 sctp 1500 -------D 0 0.0 1.0 1 60 125 0 59
+ 4.741536 1 0 sctp 48 -------S 0 1.0 0.0 1 60 139 65535 65535
- 4.741536 1 0 sctp 48 -------S 0 1.0 0.0 1 60 139 65535 65535
r 4.765536 0 1 sctp 1500 -------D 0 0.0 1.0 1 61 127 0 60
+ 4.765536 1 0 sctp 48 -------S 0 1.0 0.0 1 61 140 65535 65535
- 4.765536 1 0 sctp 48 -------S 0 1.0 0.0 1 61 140 65535 65535
r 4.789536 0 1 sctp 1500 -------D 0 0.0 1.0 1 62 129 0 61
+ 4.789536 1 0 sctp 48 -------S 0 1.0 0.0 1 62 141 65535 65535
- 4.789536 1 0 sctp 48 -------S 0 1.0 0.0 1 62 141 65535 65535
r 4.813536 0 1 sctp 1500 -------D 0 0.0 1.0 1 63 130 0 62
+ 4.813536 1 0 sctp 48 -------S 0 1.0 0.0 1 63 142 65535 65535
- 4.813536 1 0 sctp 48 -------S 0 1.0 0.0 1 63 142 65535 65535
r 4.837536 0 1 sctp 1500 -------D 0 0.0 1.0 1 64 131 0 63
+ 4.837536 1 0 sctp 48 -------S 0 1.0 0.0 1 64 143 65535 65535
- 4.837536 1 0 sctp 48 -------S 0 1.0 0.0 1 64 143 65535 65535
r 4.861536 0 1 sctp 1500 -------D 0 0.0 1.0 1 65 132 0 64
+ 4.861536 1 0 sctp 48 -------S 0 1.0 0.0 1 65 144 65535 65535
- 4.861536 1 0 sctp 48 -------S 0 1.0 0.0 1 65 144 65535 65535
r 4.870304 1 0 sctp 48 -------S 0 1.0 0.0 1 57 133 65535 65535
+ 4.870304 0 1 sctp 1500 -------D 0 0.0 1.0 1 69 145 0 68
- 4.870304 0 1 sctp 1500 -------D 0 0.0 1.0 1 69 145 0 68
r 4.894304 1 0 sctp 48 -------S 0 1.0 0.0 1 58 135 65535 65535
+ 4.894304 0 1 sctp 1500 -------D 0 0.0 1.0 1 70 146 0 69
- 4.894304 0 1 sctp 1500 -------D 0 0.0 1.0 1 70 146 0 69
r 4.902368 0 1 sctp 1500 -------D 0 0.0 1.0 1 66 134 0 65
+ 4.902368 1 0 sctp 48 -------S 0 1.0 0.0 1 66 147 65535 65535
- 4.902368 1 0 sctp 48 -------S 0 1.0 0.0 1 66 147 65535 65535
r 4.918304 1 0 sctp 48 -------S 0 1.0 0.0 1 59 137 65535 65535
+ 4.918304 0 1 sctp 1500 -------D 0 0.0 1.0 1 71 148 0 70
+ 4.918304 0 1 sctp 1500 -------D 0 0.0 1.0 1 72 149 0 71
- 4.918304 0 1 sctp 1500 -------D 0 0.0 1.0 1 71 148 0 70
r 4.926368 0 1 sctp 1500 -------D 0 0.0 1.0 1 67 136 0 66
+ 4.926368 1 0 sctp 48 -------S 0 1.0 0.0 1 67 150 65535 65535
- 4.926368 1 0 sctp 48 -------S 0 1.0 0.0 1 67 150 65535 65535
r 4.942304 1 0 sctp 48 -------S 0 1.0 0.0 1 60 139 65535 65535
+ 4.942304 0 1 sctp 1500 -------D 0 0.0 1.0 1 73 151 0 72
- 4.942304 0 1 sctp 1500 -------D 0 0.0 1.0 1 72 149 0 71
r 4.950368 0 1 sctp 1500 -------D 0 0.0 1.0 1 68 138 0 67
+ 4.950368 1 0 sctp 48 -------S 0 1.0 0.0 1 68 152 65535 65535
- 4.950368 1 0 sctp 48 -------S 0 1.0 0.0 1 68 152 65535 65535
r 4.966304 1 0 sctp 48 -------S 0 1.0 0.0 1 61 140 65535 65535
+ 4.966304 0 1 sctp 1500 -------D 0 0.0 1.0 1 74 153 0 73
- 4.966304 0 1 sctp 1500 -------D 0 0.0 1.0 1 73 151 0 72
r 4.990304 1 0 sctp 48 -------S 0 1.0 0.0 1 62 141 65535 65535
+ 4.990304 0 1 sctp 1500 -------D 0 0.0 1.0 1 75 154 0 74
- 4.990304 0 1 sctp 1500 -------D 0 0.0 1.0 1 74 153 0 73
r 5.014304 1 0 sctp 48 -------S 0 1.0 0.0 1 63 142 65535 65535
+ 5.014304 0 1 sctp 1500 -------D 0 0.0 1.0 1 76 155 0 75
- 5.014304 0 1 sctp 1500 -------D 0 0.0 1.0 1 75 154 0 74
r 5.038304 1 0 sctp 48 -------S 0 1.0 0.0 1 64 143 65535 65535
+ 5.038304 0 1 sctp 1500 -------D 0 0.0 1.0 1 77 156 0 76
- 5.038304 0 1 sctp 1500 -------D 0 0.0 1.0 1 76 155 0 75
r 5.062304 1 0 sctp 48 -------S 0 1.0 0.0 1 65 144 65535 65535
+ 5.062304 0 1 sctp 1500 -------D 0 0.0 1.0 1 78 157 0 77
- 5.062304 0 1 sctp 1500 -------D 0 0.0 1.0 1 77 156 0 76
- 5.086304 0 1 sctp 1500 -------D 0 0.0 1.0 1 78 157 0 77
r 5.094304 0 1 sctp 1500 -------D 0 0.0 1.0 1 69 145 0 68
+ 5.094304 1 0 sctp 48 -------S 0 1.0 0.0 1 69 158 65535 65535
- 5.094304 1 0 sctp 48 -------S 0 1.0 0.0 1 69 158 65535 65535
r 5.103136 1 0 sctp 48 -------S 0 1.0 0.0 1 66 147 65535 65535
+ 5.103136 0 1 sctp 1500 -------D 0 0.0 1.0 1 79 159 0 78
- 5.110304 0 1 sctp 1500 -------D 0 0.0 1.0 1 79 159 0 78
r 5.118304 0 1 sctp 1500 -------D 0 0.0 1.0 1 70 146 0 69
+ 5.118304 1 0 sctp 48 -------S 0 1.0 0.0 1 70 160 65535 65535
- 5.118304 1 0 sctp 48 -------S 0 1.0 0.0 1 70 160 65535 65535
r 5.127136 1 0 sctp 48 -------S 0 1.0 0.0 1 67 150 65535 65535
+ 5.127136 0 1 sctp 1500 -------D 0 0.0 1.0 1 80 161 0 79
- 5.134304 0 1 sctp 1500 -------D 0 0.0 1.0 1 80 161 0 79
r 5.142304 0 1 sctp 1500 -------D 0 0.0 1.0 1 71 148 0 70
+ 5.142304 1 0 sctp 48 -------S 0 1.0 0.0 1 71 162 65535 65535
- 5.142304 1 0 sctp 48 -------S 0 1.0 0.0 1 71 162 65535 65535
r 5.151136 1 0 sctp 48 -------S 0 1.0 0.0 1 68 152 65535 65535
+ 5.151136 0 1 sctp 1500 -------D 0 0.0 1.0 1 81 163 0 80
- 5.158304 0 1 sctp 1500 -------D 0 0.0 1.0 1 81 163 0 80
r 5.166304 0 1 sctp 1500 -------D 0 0.0 1.0 1 72 149 0 71
+ 5.166304 1 0 sctp 48 -------S 0 1.0 0.0 1 72 164 65535 65535
- 5.166304 1 0 sctp 48 -------S 0 1.0 0.0 1 72 164 65535 65535
r 5.190304 0 1 sctp 1500 -------D 0 0.0 1.0 1 73 151 0 72
+ 5.190304 1 0 sctp 48 -------S 0 1.0 0.0 1 73 165 65535 65535
- 5.190304 1 0 sctp 48 -------S 0 1.0 0.0 1 73 165 65535 65535
r 5.214304 0 1 sctp 1500 -------D 0 0.0 1.0 1 74 153 0 73
+ 5.214304 1 0 sctp 48 -------S 0 1.0 0.0 1 74 166 65535 65535
- 5.214304 1 0 sctp 48 -------S 0 1.0 0.0 1 74 166 65535 65535
r 5.238304 0 1 sctp 1500 -------D 0 0.0 1.0 1 75 154 0 74
+ 5.238304 1 0 sctp 48 -------S 0 1.0 0.0 1 75 167 65535 65535
- 5.238304 1 0 sctp 48 -------S 0 1.0 0.0 1 75 167 65535 65535
r 5.262304 0 1 sctp 1500 -------D 0 0.0 1.0 1 76 155 0 75
+ 5.262304 1 0 sctp 48 -------S 0 1.0 0.0 1 76 168 65535 65535
- 5.262304 1 0 sctp 48 -------S 0 1.0 0.0 1 76 168 65535 65535
r 5.286304 0 1 sctp 1500 -------D 0 0.0 1.0 1 77 156 0 76
+ 5.286304 1 0 sctp 48 -------S 0 1.0 0.0 1 77 169 65535 65535
- 5.286304 1 0 sctp 48 -------S 0 1.0 0.0 1 77 169 65535 65535
r 5.295072 1 0 sctp 48 -------S 0 1.0 0.0 1 69 158 65535 65535
+ 5.295072 0 1 sctp 1500 -------D 0 0.0 1.0 1 82 170 0 81
- 5.295072 0 1 sctp 1500 -------D 0 0.0 1.0 1 82 170 0 81
r 5.310304 0 1 sctp 1500 -------D 0 0.0 1.0 1 78 157 0 77
+ 5.310304 1 0 sctp 48 -------S 0 1.0 0.0 1 78 171 65535 65535
- 5.310304 1 0 sctp 48 -------S 0 1.0 0.0 1 78 171 65535 65535
r 5.319072 1 0 sctp 48 -------S 0 1.0 0.0 1 70 160 65535 65535
+ 5.319072 0 1 sctp 1500 -------D 0 0.0 1.0 1 83 172 0 82
- 5.319072 0 1 sctp 1500 -------D 0 0.0 1.0 1 83 172 0 82
r 5.334304 0 1 sctp 1500 -------D 0 0.0 1.0 1 79 159 0 78
+ 5.334304 1 0 sctp 48 -------S 0 1.0 0.0 1 79 173 65535 65535
- 5.334304 1 0 sctp 48 -------S 0 1.0 0.0 1 79 173 65535 65535
r 5.343072 1 0 sctp 48 -------S 0 1.0 0.0 1 71 162 65535 65535
+ 5.343072 0 1 sctp 1500 -------D 0 0.0 1.0 1 84 174 0 83
- 5.343072 0 1 sctp 1500 -------D 0 0.0 1.0 1 84 174 0 83
r 5.358304 0 1 sctp 1500 -------D 0 0.0 1.0 1 80 161 0 79
+ 5.358304 1 0 sctp 48 -------S 0 1.0 0.0 1 80 175 65535 65535
- 5.358304 1 0 sctp 48 -------S 0 1.0 0.0 1 80 175 65535 65535
r 5.367072 1 0 sctp 48 -------S 0 1.0 0.0 1 72 164 65535 65535
+ 5.367072 0 1 sctp 1500 -------D 0 0.0 1.0 1 85 176 0 84
+ 5.367072 0 1 sctp 1500 -------D 0 0.0 1.0 1 86 177 0 85