+ 0.5 1 6 sctp 56 -------I 0 1.0 4.0 1 -1 4 65535 65535
- 0.5 1 6 sctp 56 -------I 0 1.0 4.0 1 -1 4 65535 65535
r 0.700896 1 6 sctp 56 -------I 0 1.0 4.0 1 -1 4 65535 65535
+ 0.700896 6 4 sctp 56 -------I 0 1.0 4.0 1 -1 4 65535 65535
- 0.700896 6 4 sctp 56 -------I 0 1.0 4.0 1 -1 4 65535 65535
r 0.901792 6 4 sctp 56 -------I 0 1.0 4.0 1 -1 4 65535 65535
+ 0.901792 4 6 sctp 56 -------I 0 4.0 1.0 1 -1 5 65535 65535
- 0.901792 4 6 sctp 56 -------I 0 4.0 1.0 1 -1 5 65535 65535
r 1.102688 4 6 sctp 56 -------I 0 4.0 1.0 1 -1 5 65535 65535
+ 1.102688 6 1 sctp 56 -------I 0 4.0 1.0 1 -1 5 65535 65535
- 1.102688 6 1 sctp 56 -------I 0 4.0 1.0 1 -1 5 65535 65535
r 1.303584 6 1 sctp 56 -------I 0 4.0 1.0 1 -1 5 65535 65535
+ 1.303584 1 6 sctp 36 -------I 0 1.0 4.0 1 -1 6 65535 65535
- 1.303584 1 6 sctp 36 -------I 0 1.0 4.0 1 -1 6 65535 65535
r 1.50416 1 6 sctp 36 -------I 0 1.0 4.0 1 -1 6 65535 65535
+ 1.50416 6 4 sctp 36 -------I 0 1.0 4.0 1 -1 6 65535 65535
- 1.50416 6 4 sctp 36 -------I 0 1.0 4.0 1 -1 6 65535 65535
r 1.704736 6 4 sctp 36 -------I 0 1.0 4.0 1 -1 6 65535 65535
+ 1.704736 4 6 sctp 36 -------I 0 4.0 1.0 1 -1 7 65535 65535
- 1.704736 4 6 sctp 36 -------I 0 4.0 1.0 1 -1 7 65535 65535
r 1.905312 4 6 sctp 36 -------I 0 4.0 1.0 1 -1 7 65535 65535
+ 1.905312 6 1 sctp 36 -------I 0 4.0 1.0 1 -1 7 65535 65535
- 1.905312 6 1 sctp 36 -------I 0 4.0 1.0 1 -1 7 65535 65535
r 2.105888 6 1 sctp 36 -------I 0 4.0 1.0 1 -1 7 65535 65535
+ 2.105888 1 6 sctp 56 -------H 0 1.0 4.0 1 -1 8 65535 65535
- 2.105888 1 6 sctp 56 -------H 0 1.0 4.0 1 -1 8 65535 65535
+ 2.105888 1 6 sctp 56 -------H 0 1.0 5.0 1 -1 9 65535 65535
- 2.106784 1 6 sctp 56 -------H 0 1.0 5.0 1 -1 9 65535 65535
r 2.306784 1 6 sctp 56 -------H 0 1.0 4.0 1 -1 8 65535 65535
+ 2.306784 6 4 sctp 56 -------H 0 1.0 4.0 1 -1 8 65535 65535
- 2.306784 6 4 sctp 56 -------H 0 1.0 4.0 1 -1 8 65535 65535
r 2.30768 1 6 sctp 56 -------H 0 1.0 5.0 1 -1 9 65535 65535
+ 2.30768 6 5 sctp 56 -------H 0 1.0 5.0 1 -1 9 65535 65535
- 2.30768 6 5 sctp 56 -------H 0 1.0 5.0 1 -1 9 65535 65535
r 2.50768 6 4 sctp 56 -------H 0 1.0 4.0 1 -1 8 65535 65535
+ 2.50768 4 6 sctp 56 -------B 0 4.0 1.0 1 -1 10 65535 65535
- 2.50768 4 6 sctp 56 -------B 0 4.0 1.0 1 -1 10 65535 65535
r 2.508576 6 5 sctp 56 -------H 0 1.0 5.0 1 -1 9 65535 65535
+ 2.508576 4 6 sctp 56 -------B 0 4.0 1.0 1 -1 11 65535 65535
- 2.508576 4 6 sctp 56 -------B 0 4.0 1.0 1 -1 11 65535 65535
r 2.708576 4 6 sctp 56 -------B 0 4.0 1.0 1 -1 10 65535 65535
+ 2.708576 6 1 sctp 56 -------B 0 4.0 1.0 1 -1 10 65535 65535
- 2.708576 6 1 sctp 56 -------B 0 4.0 1.0 1 -1 10 65535 65535
r 2.709472 4 6 sctp 56 -------B 0 4.0 1.0 1 -1 11 65535 65535
+ 2.709472 6 1 sctp 56 -------B 0 4.0 1.0 1 -1 11 65535 65535
- 2.709472 6 1 sctp 56 -------B 0 4.0 1.0 1 -1 11 65535 65535
r 2.909472 6 1 sctp 56 -------B 0 4.0 1.0 1 -1 10 65535 65535
r 2.910368 6 1 sctp 56 -------B 0 4.0 1.0 1 -1 11 65535 65535
+ 2.910368 1 6 sctp 1500 -------D 0 1.0 4.0 1 1 12 0 0
- 2.910368 1 6 sctp 1500 -------D 0 1.0 4.0 1 1 12 0 0
+ 2.910368 1 6 sctp 1500 -------D 0 1.0 4.0 1 2 13 0 1
+ 2.910368 1 6 sctp 1500 -------D 0 1.0 4.0 1 3 14 0 2
- 2.934368 1 6 sctp 1500 -------D 0 1.0 4.0 1 2 13 0 1
- 2.958368 1 6 sctp 1500 -------D 0 1.0 4.0 1 3 14 0 2
r 3.134368 1 6 sctp 1500 -------D 0 1.0 4.0 1 1 12 0 0
+ 3.134368 6 4 sctp 1500 -------D 0 1.0 4.0 1 1 12 0 0
- 3.134368 6 4 sctp 1500 -------D 0 1.0 4.0 1 1 12 0 0
r 3.158368 1 6 sctp 1500 -------D 0 1.0 4.0 1 2 13 0 1
+ 3.158368 6 4 sctp 1500 -------D 0 1.0 4.0 1 2 13 0 1
- 3.158368 6 4 sctp 1500 -------D 0 1.0 4.0 1 2 13 0 1
r 3.182368 1 6 sctp 1500 -------D 0 1.0 4.0 1 3 14 0 2
+ 3.182368 6 4 sctp 1500 -------D 0 1.0 4.0 1 3 14 0 2
- 3.182368 6 4 sctp 1500 -------D 0 1.0 4.0 1 3 14 0 2
r 3.358368 6 4 sctp 1500 -------D 0 1.0 4.0 1 1 12 0 0
+ 3.358368 4 6 sctp 48 -------S 0 4.0 1.0 1 1 15 65535 65535
- 3.358368 4 6 sctp 48 -------S 0 4.0 1.0 1 1 15 65535 65535
r 3.382368 6 4 sctp 1500 -------D 0 1.0 4.0 1 2 13 0 1
r 3.406368 6 4 sctp 1500 -------D 0 1.0 4.0 1 3 14 0 2
+ 3.406368 4 6 sctp 48 -------S 0 4.0 1.0 1 3 16 65535 65535
- 3.406368 4 6 sctp 48 -------S 0 4.0 1.0 1 3 16 65535 65535
r 3.559136 4 6 sctp 48 -------S 0 4.0 1.0 1 1 15 65535 65535
+ 3.559136 6 1 sctp 48 -------S 0 4.0 1.0 1 1 15 65535 65535
- 3.559136 6 1 sctp 48 -------S 0 4.0 1.0 1 1 15 65535 65535
r 3.607136 4 6 sctp 48 -------S 0 4.0 1.0 1 3 16 65535 65535
+ 3.607136 6 1 sctp 48 -------S 0 4.0 1.0 1 3 16 65535 65535
- 3.607136 6 1 sctp 48 -------S 0 4.0 1.0 1 3 16 65535 65535
r 3.759904 6 1 sctp 48 -------S 0 4.0 1.0 1 1 15 65535 65535
+ 3.759904 1 6 sctp 1500 -------D 0 1.0 4.0 1 4 17 0 3
- 3.759904 1 6 sctp 1500 -------D 0 1.0 4.0 1 4 17 0 3
+ 3.759904 1 6 sctp 1500 -------D 0 1.0 4.0 1 5 18 0 4
- 3.783904 1 6 sctp 1500 -------D 0 1.0 4.0 1 5 18 0 4
r 3.807904 6 1 sctp 48 -------S 0 4.0 1.0 1 3 16 65535 65535
+ 3.807904 1 6 sctp 1500 -------D 0 1.0 4.0 1 6 19 0 5
+ 3.807904 1 6 sctp 1500 -------D 0 1.0 4.0 1 7 20 0 6
+ 3.807904 1 6 sctp 1500 -------D 0 1.0 4.0 1 8 21 0 7
- 3.807904 1 6 sctp 1500 -------D 0 1.0 4.0 1 6 19 0 5
- 3.831904 1 6 sctp 1500 -------D 0 1.0 4.0 1 7 20 0 6
- 3.855904 1 6 sctp 1500 -------D 0 1.0 4.0 1 8 21 0 7
r 3.983904 1 6 sctp 1500 -------D 0 1.0 4.0 1 4 17 0 3
+ 3.983904 6 4 sctp 1500 -------D 0 1.0 4.0 1 4 17 0 3
- 3.983904 6 4 sctp 1500 -------D 0 1.0 4.0 1 4 17 0 3
r 4.007904 1 6 sctp 1500 -------D 0 1.0 4.0 1 5 18 0 4
+ 4.007904 6 4 sctp 1500 -------D 0 1.0 4.0 1 5 18 0 4
- 4.007904 6 4 sctp 1500 -------D 0 1.0 4.0 1 5 18 0 4
r 4.031904 1 6 sctp 1500 -------D 0 1.0 4.0 1 6 19 0 5
+ 4.031904 6 4 sctp 1500 -------D 0 1.0 4.0 1 6 19 0 5
- 4.031904 6 4 sctp 1500 -------D 0 1.0 4.0 1 6 19 0 5
r 4.055904 1 6 sctp 1500 -------D 0 1.0 4.0 1 7 20 0 6
+ 4.055904 6 4 sctp 1500 -------D 0 1.0 4.0 1 7 20 0 6
- 4.055904 6 4 sctp 1500 -------D 0 1.0 4.0 1 7 20 0 6
r 4.079904 1 6 sctp 1500 -------D 0 1.0 4.0 1 8 21 0 7
+ 4.079904 6 4 sctp 1500 -------D 0 1.0 4.0 1 8 21 0 7
- 4.079904 6 4 sctp 1500 -------D 0 1.0 4.0 1 8 21 0 7
r 4.207904 6 4 sctp 1500 -------D 0 1.0 4.0 1 4 17 0 3
r 4.231904 6 4 sctp 1500 -------D 0 1.0 4.0 1 5 18 0 4
+ 4.231904 4 6 sctp 48 -------S 0 4.0 1.0 1 5 22 65535 65535
- 4.231904 4 6 sctp 48 -------S 0 4.0 1.0 1 5 22 65535 65535
r 4.255904 6 4 sctp 1500 -------D 0 1.0 4.0 1 6 19 0 5
r 4.279904 6 4 sctp 1500 -------D 0 1.0 4.0 1 7 20 0 6
+ 4.279904 4 6 sctp 48 -------S 0 4.0 1.0 1 7 23 65535 65535
- 4.279904 4 6 sctp 48 -------S 0 4.0 1.0 1 7 23 65535 65535
r 4.303904 6 4 sctp 1500 -------D 0 1.0 4.0 1 8 21 0 7
r 4.432672 4 6 sctp 48 -------S 0 4.0 1.0 1 5 22 65535 65535
+ 4.432672 6 1 sctp 48 -------S 0 4.0 1.0 1 5 22 65535 65535
- 4.432672 6 1 sctp 48 -------S 0 4.0 1.0 1 5 22 65535 65535
r 4.480672 4 6 sctp 48 -------S 0 4.0 1.0 1 7 23 65535 65535
+ 4.480672 6 1 sctp 48 -------S 0 4.0 1.0 1 7 23 65535 65535
- 4.480672 6 1 sctp 48 -------S 0 4.0 1.0 1 7 23 65535 65535
+ 4.503904 4 6 sctp 48 -------S 0 4.0 1.0 1 8 24 65535 65535
- 4.503904 4 6 sctp 48 -------S 0 4.0 1.0 1 8 24 65535 65535
r 4.63344 6 1 sctp 48 -------S 0 4.0 1.0 1 5 22 65535 65535
+ 4.63344 1 6 sctp 1500 -------D 0 1.0 4.0 1 9 25 0 8
- 4.63344 1 6 sctp 1500 -------D 0 1.0 4.0 1 9 25 0 8
+ 4.63344 1 6 sctp 1500 -------D 0 1.0 4.0 1 10 26 0 9
+ 4.63344 1 6 sctp 1500 -------D 0 1.0 4.0 1 11 27 0 10
- 4.65744 1 6 sctp 1500 -------D 0 1.0 4.0 1 10 26 0 9
r 4.68144 6 1 sctp 48 -------S 0 4.0 1.0 1 7 23 65535 65535
+ 4.68144 1 6 sctp 1500 -------D 0 1.0 4.0 1 12 28 0 11
+ 4.68144 1 6 sctp 1500 -------D 0 1.0 4.0 1 13 29 0 12
+ 4.68144 1 6 sctp 1500 -------D 0 1.0 4.0 1 14 30 0 13
- 4.68144 1 6 sctp 1500 -------D 0 1.0 4.0 1 11 27 0 10
r 4.704672 4 6 sctp 48 -------S 0 4.0 1.0 1 8 24 65535 65535
+ 4.704672 6 1 sctp 48 -------S 0 4.0 1.0 1 8 24 65535 65535
- 4.704672 6 1 sctp 48 -------S 0 4.0 1.0 1 8 24 65535 65535
- 4.70544 1 6 sctp 1500 -------D 0 1.0 4.0 1 12 28 0 11
- 4.72944 1 6 sctp 1500 -------D 0 1.0 4.0 1 13 29 0 12
- 4.75344 1 6 sctp 1500 -------D 0 1.0 4.0 1 14 30 0 13
r 4.85744 1 6 sctp 1500 -------D 0 1.0 4.0 1 9 25 0 8
+ 4.85744 6 4 sctp 1500 -------D 0 1.0 4.0 1 9 25 0 8
- 4.85744 6 4 sctp 1500 -------D 0 1.0 4.0 1 9 25 0 8
r 4.88144 1 6 sctp 1500 -------D 0 1.0 4.0 1 10 26 0 9
+ 4.88144 6 4 sctp 1500 -------D 0 1.0 4.0 1 10 26 0 9
- 4.88144 6 4 sctp 1500 -------D 0 1.0 4.0 1 10 26 0 9
r 4.90544 1 6 sctp 1500 -------D 0 1.0 4.0 1 11 27 0 10
+ 4.90544 6 4 sctp 1500 -------D 0 1.0 4.0 1 11 27 0 10
r 4.90544 6 1 sctp 48 -------S 0 4.0 1.0 1 8 24 65535 65535
+ 4.90544 1 6 sctp 1500 -------D 0 1.0 4.0 1 15 31 0 14
- 4.90544 1 6 sctp 1500 -------D 0 1.0 4.0 1 15 31 0 14
+ 4.90544 1 6 sctp 1500 -------D 0 1.0 4.0 1 16 32 0 15
- 4.90544 6 4 sctp 1500 -------D 0 1.0 4.0 1 11 27 0 10
r 4.92944 1 6 sctp 1500 -------D 0 1.0 4.0 1 12 28 0 11
+ 4.92944 6 4 sctp 1500 -------D 0 1.0 4.0 1 12 28 0 11
- 4.92944 1 6 sctp 1500 -------D 0 1.0 4.0 1 16 32 0 15
- 4.92944 6 4 sctp 1500 -------D 0 1.0 4.0 1 12 28 0 11
r 4.95344 1 6 sctp 1500 -------D 0 1.0 4.0 1 13 29 0 12
+ 4.95344 6 4 sctp 1500 -------D 0 1.0 4.0 1 13 29 0 12
- 4.95344 6 4 sctp 1500 -------D 0 1.0 4.0 1 13 29 0 12
r 4.97744 1 6 sctp 1500 -------D 0 1.0 4.0 1 14 30 0 13
+ 4.97744 6 4 sctp 1500 -------D 0 1.0 4.0 1 14 30 0 13
- 4.97744 6 4 sctp 1500 -------D 0 1.0 4.0 1 14 30 0 13
r 5.08144 6 4 sctp 1500 -------D 0 1.0 4.0 1 9 25 0 8
r 5.10544 6 4 sctp 1500 -------D 0 1.0 4.0 1 10 26 0 9
+ 5.10544 4 6 sctp 48 -------S 0 4.0 1.0 1 10 33 65535 65535
- 5.10544 4 6 sctp 48 -------S 0 4.0 1.0 1 10 33 65535 65535
r 5.12944 1 6 sctp 1500 -------D 0 1.0 4.0 1 15 31 0 14
+ 5.12944 6 4 sctp 1500 -------D 0 1.0 4.0 1 15 31 0 14
- 5.12944 6 4 sctp 1500 -------D 0 1.0 4.0 1 15 31 0 14
r 5.12944 6 4 sctp 1500 -------D 0 1.0 4.0 1 11 27 0 10
r 5.15344 1 6 sctp 1500 -------D 0 1.0 4.0 1 16 32 0 15
+ 5.15344 6 4 sctp 1500 -------D 0 1.0 4.0 1 16 32 0 15
r 5.15344 6 4 sctp 1500 -------D 0 1.0 4.0 1 12 28 0 11
+ 5.15344 4 6 sctp 48 -------S 0 4.0 1.0 1 12 34 65535 65535
- 5.15344 4 6 sctp 48 -------S 0 4.0 1.0 1 12 34 65535 65535
- 5.15344 6 4 sctp 1500 -------D 0 1.0 4.0 1 16 32 0 15
r 5.17744 6 4 sctp 1500 -------D 0 1.0 4.0 1 13 29 0 12
r 5.20144 6 4 sctp 1500 -------D 0 1.0 4.0 1 14 30 0 13
+ 5.20144 4 6 sctp 48 -------S 0 4.0 1.0 1 14 35 65535 65535
- 5.20144 4 6 sctp 48 -------S 0 4.0 1.0 1 14 35 65535 65535
r 5.306208 4 6 sctp 48 -------S 0 4.0 1.0 1 10 33 65535 65535
+ 5.306208 6 1 sctp 48 -------S 0 4.0 1.0 1 10 33 65535 65535
- 5.306208 6 1 sctp 48 -------S 0 4.0 1.0 1 10 33 65535 65535
r 5.35344 6 4 sctp 1500 -------D 0 1.0 4.0 1 15 31 0 14
r 5.354208 4 6 sctp 48 -------S 0 4.0 1.0 1 12 34 65535 65535
+ 5.354208 6 1 sctp 48 -------S 0 4.0 1.0 1 12 34 65535 65535
- 5.354208 6 1 sctp 48 -------S 0 4.0 1.0 1 12 34 65535 65535
r 5.37744 6 4 sctp 1500 -------D 0 1.0 4.0 1 16 32 0 15
+ 5.37744 4 6 sctp 48 -------S 0 4.0 1.0 1 16 36 65535 65535
- 5.37744 4 6 sctp 48 -------S 0 4.0 1.0 1 16 36 65535 65535
r 5.402208 4 6 sctp 48 -------S 0 4.0 1.0 1 14 35 65535 65535
+ 5.402208 6 1 sctp 48 -------S 0 4.0 1.0 1 14 35 65535 65535
- 5.402208 6 1 sctp 48 -------S 0 4.0 1.0 1 14 35 65535 65535
r 5.506976 6 1 sctp 48 -------S 0 4.0 1.0 1 10 33 65535 65535
+ 5.506976 1 6 sctp 1500 -------D 0 1.0 4.0 1 17 37 0 16
- 5.506976 1 6 sctp 1500 -------D 0 1.0 4.0 1 17 37 0 16
+ 5.506976 1 6 sctp 1500 -------D 0 1.0 4.0 1 18 38 0 17
+ 5.506976 1 6 sctp 1500 -------D 0 1.0 4.0 1 19 39 0 18
- 5.530976 1 6 sctp 1500 -------D 0 1.0 4.0 1 18 38 0 17
r 5.554976 6 1 sctp 48 -------S 0 4.0 1.0 1 12 34 65535 65535
+ 5.554976 1 6 sctp 1500 -------D 0 1.0 4.0 1 20 40 0 19
+ 5.554976 1 6 sctp 1500 -------D 0 1.0 4.0 1 21 41 0 20
+ 5.554976 1 6 sctp 1500 -------D 0 1.0 4.0 1 22 42 0 21
- 5.554976 1 6 sctp 1500 -------D 0 1.0 4.0 1 19 39 0 18
r 5.578208 4 6 sctp 48 -------S 0 4.0 1.0 1 16 36 65535 65535
+ 5.578208 6 1 sctp 48 -------S 0 4.0 1.0 1 16 36 65535 65535
- 5.578208 6 1 sctp 48 -------S 0 4.0 1.0 1 16 36 65535 65535
- 5.578976 1 6 sctp 1500 -------D 0 1.0 4.0 1 20 40 0 19
r 5.602976 6 1 sctp 48 -------S 0 4.0 1.0 1 14 35 65535 65535
+ 5.602976 1 6 sctp 1500 -------D 0 1.0 4.0 1 23 43 0 22
+ 5.602976 1 6 sctp 1500 -------D 0 1.0 4.0 1 24 44 0 23
+ 5.602976 1 6 sctp 1500 -------D 0 1.0 4.0 1 25 45 0 24
- 5.602976 1 6 sctp 1500 -------D 0 1.0 4.0 1 21 41 0 20
- 5.626976 1 6 sctp 1500 -------D 0 1.0 4.0 1 22 42 0 21
- 5.650976 1 6 sctp 1500 -------D 0 1.0 4.0 1 23 43 0 22
- 5.674976 1 6 sctp 1500 -------D 0 1.0 4.0 1 24 44 0 23
- 5.698976 1 6 sctp 1500 -------D 0 1.0 4.0 1 25 45 0 24
r 5.730976 1 6 sctp 1500 -------D 0 1.0 4.0 1 17 37 0 16
+ 5.730976 6 4 sctp 1500 -------D 0 1.0 4.0 1 17 37 0 16
- 5.730976 6 4 sctp 1500 -------D 0 1.0 4.0 1 17 37 0 16
r 5.754976 1 6 sctp 1500 -------D 0 1.0 4.0 1 18 38 0 17
+ 5.754976 6 4 sctp 1500 -------D 0 1.0 4.0 1 18 38 0 17
- 5.754976 6 4 sctp 1500 -------D 0 1.0 4.0 1 18 38 0 17
r 5.778976 1 6 sctp 1500 -------D 0 1.0 4.0 1 19 39 0 18
+ 5.778976 6 4 sctp 1500 -------D 0 1.0 4.0 1 19 39 0 18
r 5.778976 6 1 sctp 48 -------S 0 4.0 1.0 1 16 36 65535 65535
+ 5.778976 1 6 sctp 1500 -------D 0 1.0 4.0 1 26 46 0 25
- 5.778976 1 6 sctp 1500 -------D 0 1.0 4.0 1 26 46 0 25
+ 5.778976 1 6 sctp 1500 -------D 0 1.0 4.0 1 27 47 0 26
+ 5.778976 1 6 sctp 1500 -------D 0 1.0 4.0 1 28 48 0 27
- 5.778976 6 4 sctp 1500 -------D 0 1.0 4.0 1 19 39 0 18
r 5.802976 1 6 sctp 1500 -------D 0 1.0 4.0 1 20 40 0 19
+ 5.802976 6 4 sctp 1500 -------D 0 1.0 4.0 1 20 40 0 19
- 5.802976 1 6 sctp 1500 -------D 0 1.0 4.0 1 27 47 0 26
- 5.802976 6 4 sctp 1500 -------D 0 1.0 4.0 1 20 40 0 19
r 5.826976 1 6 sctp 1500 -------D 0 1.0 4.0 1 21 41 0 20
+ 5.826976 6 4 sctp 1500 -------D 0 1.0 4.0 1 21 41 0 20
- 5.826976 1 6 sctp 1500 -------D 0 1.0 4.0 1 28 48 0 27
- 5.826976 6 4 sctp 1500 -------D 0 1.0 4.0 1 21 41 0 20
r 5.850976 1 6 sctp 1500 -------D 0 1.0 4.0 1 22 42 0 21
+ 5.850976 6 4 sctp 1500 -------D 0 1.0 4.0 1 22 42 0 21
- 5.850976 6 4 sctp 1500 -------D 0 1.0 4.0 1 22 42 0 21
r 5.874976 1 6 sctp 1500 -------D 0 1.0 4.0 1 23 43 0 22
+ 5.874976 6 4 sctp 1500 -------D 0 1.0 4.0 1 23 43 0 22
- 5.874976 6 4 sctp 1500 -------D 0 1.0 4.0 1 23 43 0 22
r 5.898976 1 6 sctp 1500 -------D 0 1.0 4.0 1 24 44 0 23
+ 5.898976 6 4 sctp 1500 -------D 0 1.0 4.0 1 24 44 0 23
- 5.898976 6 4 sctp 1500 -------D 0 1.0 4.0 1 24 44 0 23
r 5.922976 1 6 sctp 1500 -------D 0 1.0 4.0 1 25 45 0 24
+ 5.922976 6 4 sctp 1500 -------D 0 1.0 4.0 1 25 45 0 24
- 5.922976 6 4 sctp 1500 -------D 0 1.0 4.0 1 25 45 0 24
r 5.954976 6 4 sctp 1500 -------D 0 1.0 4.0 1 17 37 0 16
r 5.978976 6 4 sctp 1500 -------D 0 1.0 4.0 1 18 38 0 17
+ 5.978976 4 6 sctp 48 -------S 0 4.0 1.0 1 18 49 65535 65535
- 5.978976 4 6 sctp 48 -------S 0 4.0 1.0 1 18 49 65535 65535
r 6.002976 1 6 sctp 1500 -------D 0 1.0 4.0 1 26 46 0 25
+ 6.002976 6 4 sctp 1500 -------D 0 1.0 4.0 1 26 46 0 25
- 6.002976 6 4 sctp 1500 -------D 0 1.0 4.0 1 26 46 0 25
r 6.002976 6 4 sctp 1500 -------D 0 1.0 4.0 1 19 39 0 18
r 6.026976 1 6 sctp 1500 -------D 0 1.0 4.0 1 27 47 0 26
+ 6.026976 6 4 sctp 1500 -------D 0 1.0 4.0 1 27 47 0 26
r 6.026976 6 4 sctp 1500 -------D 0 1.0 4.0 1 20 40 0 19
+ 6.026976 4 6 sctp 48 -------S 0 4.0 1.0 1 20 50 65535 65535
- 6.026976 4 6 sctp 48 -------S 0 4.0 1.0 1 20 50 65535 65535
- 6.026976 6 4 sctp 1500 -------D 0 1.0 4.0 1 27 47 0 26
r 6.050976 1 6 sctp 1500 -------D 0 1.0 4.0 1 28 48 0 27
+ 6.050976 6 4 sctp 1500 -------D 0 1.0 4.0 1 28 48 0 27
r 6.050976 6 4 sctp 1500 -------D 0 1.0 4.0 1 21 41 0 20
- 6.050976 6 4 sctp 1500 -------D 0 1.0 4.0 1 28 48 0 27
r 6.074976 6 4 sctp 1500 -------D 0 1.0 4.0 1 22 42 0 21
+ 6.074976 4 6 sctp 48 -------S 0 4.0 1.0 1 22 51 65535 65535
- 6.074976 4 6 sctp 48 -------S 0 4.0 1.0 1 22 51 65535 65535
r 6.098976 6 4 sctp 1500 -------D 0 1.0 4.0 1 23 43 0 22
r 6.122976 6 4 sctp 1500 -------D 0 1.0 4.0 1 24 44 0 23
+ 6.122976 4 6 sctp 48 -------S 0 4.0 1.0 1 24 52 65535 65535
- 6.122976 4 6 sctp 48 -------S 0 4.0 1.0 1 24 52 65535 65535
r 6.146976 6 4 sctp 1500 -------D 0 1.0 4.0 1 25 45 0 24
r 6.179744 4 6 sctp 48 -------S 0 4.0 1.0 1 18 49 65535 65535
+ 6.179744 6 1 sctp 48 -------S 0 4.0 1.0 1 18 49 65535 65535
- 6.179744 6 1 sctp 48 -------S 0 4.0 1.0 1 18 49 65535 65535
r 6.226976 6 4 sctp 1500 -------D 0 1.0 4.0 1 26 46 0 25
+ 6.226976 4 6 sctp 48 -------S 0 4.0 1.0 1 26 53 65535 65535
- 6.226976 4 6 sctp 48 -------S 0 4.0 1.0 1 26 53 65535 65535
r 6.227744 4 6 sctp 48 -------S 0 4.0 1.0 1 20 50 65535 65535
+ 6.227744 6 1 sctp 48 -------S 0 4.0 1.0 1 20 50 65535 65535
- 6.227744 6 1 sctp 48 -------S 0 4.0 1.0 1 20 50 65535 65535
r 6.250976 6 4 sctp 1500 -------D 0 1.0 4.0 1 27 47 0 26
r 6.274976 6 4 sctp 1500 -------D 0 1.0 4.0 1 28 48 0 27
+ 6.274976 4 6 sctp 48 -------S 0 4.0 1.0 1 28 54 65535 65535
- 6.274976 4 6 sctp 48 -------S 0 4.0 1.0 1 28 54 65535 65535
r 6.275744 4 6 sctp 48 -------S 0 4.0 1.0 1 22 51 65535 65535
+ 6.275744 6 1 sctp 48 -------S 0 4.0 1.0 1 22 51 65535 65535
- 6.275744 6 1 sctp 48 -------S 0 4.0 1.0 1 22 51 65535 65535
r 6.323744 4 6 sctp 48 -------S 0 4.0 1.0 1 24 52 65535 65535
+ 6.323744 6 1 sctp 48 -------S 0 4.0 1.0 1 24 52 65535 65535
- 6.323744 6 1 sctp 48 -------S 0 4.0 1.0 1 24 52 65535 65535
r 6.380512 6 1 sctp 48 -------S 0 4.0 1.0 1 18 49 65535 65535
+ 6.380512 1 6 sctp 1500 -------D 0 1.0 4.0 1 29 55 0 28
- 6.380512 1 6 sctp 1500 -------D 0 1.0 4.0 1 29 55 0 28
+ 6.380512 1 6 sctp 1500 -------D 0 1.0 4.0 1 30 56 0 29
+ 6.380512 1 6 sctp 1500 -------D 0 1.0 4.0 1 31 57 0 30
- 6.404512 1 6 sctp 1500 -------D 0 1.0 4.0 1 30 56 0 29
r 6.427744 4 6 sctp 48 -------S 0 4.0 1.0 1 26 53 65535 65535
+ 6.427744 6 1 sctp 48 -------S 0 4.0 1.0 1 26 53 65535 65535
- 6.427744 6 1 sctp 48 -------S 0 4.0 1.0 1 26 53 65535 65535
r 6.428512 6 1 sctp 48 -------S 0 4.0 1.0 1 20 50 65535 65535
+ 6.428512 1 6 sctp 1500 -------D 0 1.0 4.0 1 32 58 0 31
+ 6.428512 1 6 sctp 1500 -------D 0 1.0 4.0 1 33 59 0 32
+ 6.428512 1 6 sctp 1500 -------D 0 1.0 4.0 1 34 60 0 33
- 6.428512 1 6 sctp 1500 -------D 0 1.0 4.0 1 31 57 0 30
- 6.452512 1 6 sctp 1500 -------D 0 1.0 4.0 1 32 58 0 31
r 6.475744 4 6 sctp 48 -------S 0 4.0 1.0 1 28 54 65535 65535
+ 6.475744 6 1 sctp 48 -------S 0 4.0 1.0 1 28 54 65535 65535
- 6.475744 6 1 sctp 48 -------S 0 4.0 1.0 1 28 54 65535 65535
r 6.476512 6 1 sctp 48 -------S 0 4.0 1.0 1 22 51 65535 65535
+ 6.476512 1 6 sctp 1500 -------D 0 1.0 4.0 1 35 61 0 34
+ 6.476512 1 6 sctp 1500 -------D 0 1.0 4.0 1 36 62 0 35
+ 6.476512 1 6 sctp 1500 -------D 0 1.0 4.0 1 37 63 0 36
- 6.476512 1 6 sctp 1500 -------D 0 1.0 4.0 1 33 59 0 32
- 6.500512 1 6 sctp 1500 -------D 0 1.0 4.0 1 34 60 0 33
r 6.524512 6 1 sctp 48 -------S 0 4.0 1.0 1 24 52 65535 65535
+ 6.524512 1 6 sctp 1500 -------D 0 1.0 4.0 1 38 64 0 37
+ 6.524512 1 6 sctp 1500 -------D 0 1.0 4.0 1 39 65 0 38
+ 6.524512 1 6 sctp 1500 -------D 0 1.0 4.0 1 40 66 0 39
- 6.524512 1 6 sctp 1500 -------D 0 1.0 4.0 1 35 61 0 34
- 6.548512 1 6 sctp 1500 -------D 0 1.0 4.0 1 36 62 0 35
- 6.572512 1 6 sctp 1500 -------D 0 1.0 4.0 1 37 63 0 36
- 6.596512 1 6 sctp 1500 -------D 0 1.0 4.0 1 38 64 0 37
r 6.604512 1 6 sctp 1500 -------D 0 1.0 4.0 1 29 55 0 28
+ 6.604512 6 4 sctp 1500 -------D 0 1.0 4.0 1 29 55 0 28
- 6.604512 6 4 sctp 1500 -------D 0 1.0 4.0 1 29 55 0 28
- 6.620512 1 6 sctp 1500 -------D 0 1.0 4.0 1 39 65 0 38
r 6.628512 1 6 sctp 1500 -------D 0 1.0 4.0 1 30 56 0 29
+ 6.628512 6 4 sctp 1500 -------D 0 1.0 4.0 1 30 56 0 29
r 6.628512 6 1 sctp 48 -------S 0 4.0 1.0 1 26 53 65535 65535
+ 6.628512 1 6 sctp 1500 -------D 0 1.0 4.0 1 41 67 0 40
+ 6.628512 1 6 sctp 1500 -------D 0 1.0 4.0 1 42 68 0 41
+ 6.628512 1 6 sctp 1500 -------D 0 1.0 4.0 1 43 69 0 42
- 6.628512 6 4 sctp 1500 -------D 0 1.0 4.0 1 30 56 0 29
- 6.644512 1 6 sctp 1500 -------D 0 1.0 4.0 1 40 66 0 39
r 6.652512 1 6 sctp 1500 -------D 0 1.0 4.0 1 31 57 0 30
+ 6.652512 6 4 sctp 1500 -------D 0 1.0 4.0 1 31 57 0 30
- 6.652512 6 4 sctp 1500 -------D 0 1.0 4.0 1 31 57 0 30
- 6.668512 1 6 sctp 1500 -------D 0 1.0 4.0 1 41 67 0 40
r 6.676512 1 6 sctp 1500 -------D 0 1.0 4.0 1 32 58 0 31
+ 6.676512 6 4 sctp 1500 -------D 0 1.0 4.0 1 32 58 0 31
r 6.676512 6 1 sctp 48 -------S 0 4.0 1.0 1 28 54 65535 65535
+ 6.676512 1 6 sctp 1500 -------D 0 1.0 4.0 1 44 70 0 43
+ 6.676512 1 6 sctp 1500 -------D 0 1.0 4.0 1 45 71 0 44
+ 6.676512 1 6 sctp 1500 -------D 0 1.0 4.0 1 46 72 0 45
- 6.676512 6 4 sctp 1500 -------D 0 1.0 4.0 1 32 58 0 31
- 6.692512 1 6 sctp 1500 -------D 0 1.0 4.0 1 42 68 0 41
r 6.700512 1 6 sctp 1500 -------D 0 1.0 4.0 1 33 59 0 32
+ 6.700512 6 4 sctp 1500 -------D 0 1.0 4.0 1 33 59 0 32
- 6.700512 6 4 sctp 1500 -------D 0 1.0 4.0 1 33 59 0 32
- 6.716512 1 6 sctp 1500 -------D 0 1.0 4.0 1 43 69 0 42
r 6.724512 1 6 sctp 1500 -------D 0 1.0 4.0 1 34 60 0 33
+ 6.724512 6 4 sctp 1500 -------D 0 1.0 4.0 1 34 60 0 33
- 6.724512 6 4 sctp 1500 -------D 0 1.0 4.0 1 34 60 0 33
- 6.740512 1 6 sctp 1500 -------D 0 1.0 4.0 1 44 70 0 43
r 6.748512 1 6 sctp 1500 -------D 0 1.0 4.0 1 35 61 0 34
+ 6.748512 6 4 sctp 1500 -------D 0 1.0 4.0 1 35 61 0 34
- 6.748512 6 4 sctp 1500 -------D 0 1.0 4.0 1 35 61 0 34
- 6.764512 1 6 sctp 1500 -------D 0 1.0 4.0 1 45 71 0 44
r 6.772512 1 6 sctp 1500 -------D 0 1.0 4.0 1 36 62 0 35
+ 6.772512 6 4 sctp 1500 -------D 0 1.0 4.0 1 36 62 0 35
- 6.772512 6 4 sctp 1500 -------D 0 1.0 4.0 1 36 62 0 35
- 6.788512 1 6 sctp 1500 -------D 0 1.0 4.0 1 46 72 0 45
r 6.796512 1 6 sctp 1500 -------D 0 1.0 4.0 1 37 63 0 36
+ 6.796512 6 4 sctp 1500 -------D 0 1.0 4.0 1 37 63 0 36
- 6.796512 6 4 sctp 1500 -------D 0 1.0 4.0 1 37 63 0 36
r 6.820512 1 6 sctp 1500 -------D 0 1.0 4.0 1 38 64 0 37
+ 6.820512 6 4 sctp 1500 -------D 0 1.0 4.0 1 38 64 0 37
- 6.820512 6 4 sctp 1500 -------D 0 1.0 4.0 1 38 64 0 37
r 6.828512 6 4 sctp 1500 -------D 0 1.0 4.0 1 29 55 0 28
r 6.844512 1 6 sctp 1500 -------D 0 1.0 4.0 1 39 65 0 38
+ 6.844512 6 4 sctp 1500 -------D 0 1.0 4.0 1 39 65 0 38
- 6.844512 6 4 sctp 1500 -------D 0 1.0 4.0 1 39 65 0 38
r 6.852512 6 4 sctp 1500 -------D 0 1.0 4.0 1 30 56 0 29
+ 6.852512 4 6 sctp 48 -------S 0 4.0 1.0 1 30 73 65535 65535
- 6.852512 4 6 sctp 48 -------S 0 4.0 1.0 1 30 73 65535 65535
r 6.868512 1 6 sctp 1500 -------D 0 1.0 4.0 1 40 66 0 39
+ 6.868512 6 4 sctp 1500 -------D 0 1.0 4.0 1 40 66 0 39
- 6.868512 6 4 sctp 1500 -------D 0 1.0 4.0 1 40 66 0 39
r 6.876512 6 4 sctp 1500 -------D 0 1.0 4.0 1 31 57 0 30
r 6.892512 1 6 sctp 1500 -------D 0 1.0 4.0 1 41 67 0 40
+ 6.892512 6 4 sctp 1500 -------D 0 1.0 4.0 1 41 67 0 40
- 6.892512 6 4 sctp 1500 -------D 0 1.0 4.0 1 41 67 0 40
r 6.900512 6 4 sctp 1500 -------D 0 1.0 4.0 1 32 58 0 31
+ 6.900512 4 6 sctp 48 -------S 0 4.0 1.0 1 32 74 65535 65535
- 6.900512 4 6 sctp 48 -------S 0 4.0 1.0 1 32 74 65535 65535
r 6.916512 1 6 sctp 1500 -------D 0 1.0 4.0 1 42 68 0 41
+ 6.916512 6 4 sctp 1500 -------D 0 1.0 4.0 1 42 68 0 41
- 6.916512 6 4 sctp 1500 -------D 0 1.0 4.0 1 42 68 0 41
r 6.924512 6 4 sctp 1500 -------D 0 1.0 4.0 1 33 59 0 32
r 6.940512 1 6 sctp 1500 -------D 0 1.0 4.0 1 43 69 0 42
+ 6.940512 6 4 sctp 1500 -------D 0 1.0 4.0 1 43 69 0 42
- 6.940512 6 4 sctp 1500 -------D 0 1.0 4.0 1 43 69 0 42
r 6.948512 6 4 sctp 1500 -------D 0 1.0 4.0 1 34 60 0 33
+ 6.948512 4 6 sctp 48 -------S 0 4.0 1.0 1 34 75 65535 65535
- 6.948512 4 6 sctp 48 -------S 0 4.0 1.0 1 34 75 65535 65535
r 6.964512 1 6 sctp 1500 -------D 0 1.0 4.0 1 44 70 0 43
+ 6.964512 6 4 sctp 1500 -------D 0 1.0 4.0 1 44 70 0 43
- 6.964512 6 4 sctp 1500 -------D 0 1.0 4.0 1 44 70 0 43
r 6.972512 6 4 sctp 1500 -------D 0 1.0 4.0 1 35 61 0 34
r 6.988512 1 6 sctp 1500 -------D 0 1.0 4.0 1 45 71 0 44
+ 6.988512 6 4 sctp 1500 -------D 0 1.0 4.0 1 45 71 0 44
- 6.988512 6 4 sctp 1500 -------D 0 1.0 4.0 1 45 71 0 44
r 6.996512 6 4 sctp 1500 -------D 0 1.0 4.0 1 36 62 0 35
+ 6.996512 4 6 sctp 48 -------S 0 4.0 1.0 1 36 76 65535 65535
- 6.996512 4 6 sctp 48 -------S 0 4.0 1.0 1 36 76 65535 65535
r 7.012512 1 6 sctp 1500 -------D 0 1.0 4.0 1 46 72 0 45
+ 7.012512 6 4 sctp 1500 -------D 0 1.0 4.0 1 46 72 0 45
- 7.012512 6 4 sctp 1500 -------D 0 1.0 4.0 1 46 72 0 45
r 7.020512 6 4 sctp 1500 -------D 0 1.0 4.0 1 37 63 0 36
r 7.044512 6 4 sctp 1500 -------D 0 1.0 4.0 1 38 64 0 37
+ 7.044512 4 6 sctp 48 -------S 0 4.0 1.0 1 38 77 65535 65535
- 7.044512 4 6 sctp 48 -------S 0 4.0 1.0 1 38 77 65535 65535
r 7.05328 4 6 sctp 48 -------S 0 4.0 1.0 1 30 73 65535 65535
+ 7.05328 6 1 sctp 48 -------S 0 4.0 1.0 1 30 73 65535 65535
- 7.05328 6 1 sctp 48 -------S 0 4.0 1.0 1 30 73 65535 65535
r 7.068512 6 4 sctp 1500 -------D 0 1.0 4.0 1 39 65 0 38
r 7.092512 6 4 sctp 1500 -------D 0 1.0 4.0 1 40 66 0 39
+ 7.092512 4 6 sctp 48 -------S 0 4.0 1.0 1 40 78 65535 65535
- 7.092512 4 6 sctp 48 -------S 0 4.0 1.0 1 40 78 65535 65535
r 7.10128 4 6 sctp 48 -------S 0 4.0 1.0 1 32 74 65535 65535
+ 7.10128 6 1 sctp 48 -------S 0 4.0 1.0 1 32 74 65535 65535
- 7.10128 6 1 sctp 48 -------S 0 4.0 1.0 1 32 74 65535 65535
r 7.116512 6 4 sctp 1500 -------D 0 1.0 4.0 1 41 67 0 40
r 7.140512 6 4 sctp 1500 -------D 0 1.0 4.0 1 42 68 0 41
+ 7.140512 4 6 sctp 48 -------S 0 4.0 1.0 1 42 79 65535 65535
- 7.140512 4 6 sctp 48 -------S 0 4.0 1.0 1 42 79 65535 65535
r 7.14928 4 6 sctp 48 -------S 0 4.0 1.0 1 34 75 65535 65535
+ 7.14928 6 1 sctp 48 -------S 0 4.0 1.0 1 34 75 65535 65535
- 7.14928 6 1 sctp 48 -------S 0 4.0 1.0 1 34 75 65535 65535
r 7.164512 6 4 sctp 1500 -------D 0 1.0 4.0 1 43 69 0 42
r 7.188512 6 4 sctp 1500 -------D 0 1.0 4.0 1 44 70 0 43
+ 7.188512 4 6 sctp 48 -------S 0 4.0 1.0 1 44 80 65535 65535
- 7.188512 4 6 sctp 48 -------S 0 4.0 1.0 1 44 80 65535 65535
r 7.19728 4 6 sctp 48 -------S 0 4.0 1.0 1 36 76 65535 65535
+ 7.19728 6 1 sctp 48 -------S 0 4.0 1.0 1 36 76 65535 65535
- 7.19728 6 1 sctp 48 -------S 0 4.0 1.0 1 36 76 65535 65535
r 7.212512 6 4 sctp 1500 -------D 0 1.0 4.0 1 45 71 0 44
r 7.236512 6 4 sctp 1500 -------D 0 1.0 4.0 1 46 72 0 45
+ 7.236512 4 6 sctp 48 -------S 0 4.0 1.0 1 46 81 65535 65535
- 7.236512 4 6 sctp 48 -------S 0 4.0 1.0 1 46 81 65535 65535
r 7.24528 4 6 sctp 48 -------S 0 4.0 1.0 1 38 77 65535 65535
+ 7.24528 6 1 sctp 48 -------S 0 4.0 1.0 1 38 77 65535 65535
- 7.24528 6 1 sctp 48 -------S 0 4.0 1.0 1 38 77 65535 65535
r 7.254048 6 1 sctp 48 -------S 0 4.0 1.0 1 30 73 65535 65535
+ 7.254048 1 6 sctp 1500 -------D 0 1.0 4.0 1 47 82 0 46
- 7.254048 1 6 sctp 1500 -------D 0 1.0 4.0 1 47 82 0 46
+ 7.254048 1 6 sctp 1500 -------D 0 1.0 4.0 1 48 83 0 47
+ 7.254048 1 6 sctp 1500 -------D 0 1.0 4.0 1 49 84 0 48
- 7.278048 1 6 sctp 1500 -------D 0 1.0 4.0 1 48 83 0 47
r 7.29328 4 6 sctp 48 -------S 0 4.0 1.0 1 40 78 65535 65535
+ 7.29328 6 1 sctp 48 -------S 0 4.0 1.0 1 40 78 65535 65535
- 7.29328 6 1 sctp 48 -------S 0 4.0 1.0 1 40 78 65535 65535
r 7.302048 6 1 sctp 48 -------S 0 4.0 1.0 1 32 74 65535 65535
+ 7.302048 1 6 sctp 1500 -------D 0 1.0 4.0 1 50 85 0 49
+ 7.302048 1 6 sctp 1500 -------D 0 1.0 4.0 1 51 86 0 50
+ 7.302048 1 6 sctp 1500 -------D 0 1.0 4.0 1 52 87 0 51
- 7.302048 1 6 sctp 1500 -------D 0 1.0 4.0 1 49 84 0 48
- 7.326048 1 6 sctp 1500 -------D 0 1.0 4.0 1 50 85 0 49
r 7.34128 4 6 sctp 48 -------S 0 4.0 1.0 1 42 79 65535 65535
+ 7.34128 6 1 sctp 48 -------S 0 4.0 1.0 1 42 79 65535 65535
- 7.34128 6 1 sctp 48 -------S 0 4.0 1.0 1 42 79 65535 65535
r 7.350048 6 1 sctp 48 -------S 0 4.0 1.0 1 34 75 65535 65535
+ 7.350048 1 6 sctp 1500 -------D 0 1.0 4.0 1 53 88 0 52
+ 7.350048 1 6 sctp 1500 -------D 0 1.0 4.0 1 54 89 0 53
+ 7.350048 1 6 sctp 1500 -------D 0 1.0 4.0 1 55 90 0 54
- 7.350048 1 6 sctp 1500 -------D 0 1.0 4.0 1 51 86 0 50
- 7.374048 1 6 sctp 1500 -------D 0 1.0 4.0 1 52 87 0 51
r 7.38928 4 6 sctp 48 -------S 0 4.0 1.0 1 44 80 65535 65535
+ 7.38928 6 1 sctp 48 -------S 0 4.0 1.0 1 44 80 65535 65535
- 7.38928 6 1 sctp 48 -------S 0 4.0 1.0 1 44 80 65535 65535
r 7.398048 6 1 sctp 48 -------S 0 4.0 1.0 1 36 76 65535 65535
+ 7.398048 1 6 sctp 1500 -------D 0 1.0 4.0 1 56 91 0 55
+ 7.398048 1 6 sctp 1500 -------D 0 1.0 4.0 1 57 92 0 56
+ 7.398048 1 6 sctp 1500 -------D 0 1.0 4.0 1 58 93 0 57
- 7.398048 1 6 sctp 1500 -------D 0 1.0 4.0 1 53 88 0 52
- 7.422048 1 6 sctp 1500 -------D 0 1.0 4.0 1 54 89 0 53
r 7.43728 4 6 sctp 48 -------S 0 4.0 1.0 1 46 81 65535 65535
+ 7.43728 6 1 sctp 48 -------S 0 4.0 1.0 1 46 81 65535 65535
- 7.43728 6 1 sctp 48 -------S 0 4.0 1.0 1 46 81 65535 65535
r 7.446048 6 1 sctp 48 -------S 0 4.0 1.0 1 38 77 65535 65535
+ 7.446048 1 6 sctp 1500 -------D 0 1.0 4.0 1 59 94 0 58
+ 7.446048 1 6 sctp 1500 -------D 0 1.0 4.0 1 60 95 0 59
+ 7.446048 1 6 sctp 1500 -------D 0 1.0 4.0 1 61 96 0 60
- 7.446048 1 6 sctp 1500 -------D 0 1.0 4.0 1 55 90 0 54
- 7.470048 1 6 sctp 1500 -------D 0 1.0 4.0 1 56 91 0 55
r 7.478048 1 6 sctp 1500 -------D 0 1.0 4.0 1 47 82 0 46
+ 7.478048 6 4 sctp 1500 -------D 0 1.0 4.0 1 47 82 0 46
- 7.478048 6 4 sctp 1500 -------D 0 1.0 4.0 1 47 82 0 46
r 7.494048 6 1 sctp 48 -------S 0 4.0 1.0 1 40 78 65535 65535
+ 7.494048 1 6 sctp 1500 -------D 0 1.0 4.0 1 62 97 0 61
+ 7.494048 1 6 sctp 1500 -------D 0 1.0 4.0 1 63 98 0 62
+ 7.494048 1 6 sctp 1500 -------D 0 1.0 4.0 1 64 99 0 63
- 7.494048 1 6 sctp 1500 -------D 0 1.0 4.0 1 57 92 0 56
r 7.502048 1 6 sctp 1500 -------D 0 1.0 4.0 1 48 83 0 47
+ 7.502048 6 4 sctp 1500 -------D 0 1.0 4.0 1 48 83 0 47
- 7.502048 6 4 sctp 1500 -------D 0 1.0 4.0 1 48 83 0 47
- 7.518048 1 6 sctp 1500 -------D 0 1.0 4.0 1 58 93 0 57
r 7.526048 1 6 sctp 1500 -------D 0 1.0 4.0 1 49 84 0 48
+ 7.526048 6 4 sctp 1500 -------D 0 1.0 4.0 1 49 84 0 48
- 7.526048 6 4 sctp 1500 -------D 0 1.0 4.0 1 49 84 0 48
r 7.542048 6 1 sctp 48 -------S 0 4.0 1.0 1 42 79 65535 65535
+ 7.542048 1 6 sctp 1500 -------D 0 1.0 5.0 1 65 100 0 64
+ 7.542048 1 6 sctp 1500 -------D 0 1.0 5.0 1 66 101 0 65
+ 7.542048 1 6 sctp 1500 -------D 0 1.0 5.0 1 67 102 0 66
- 7.542048 1 6 sctp 1500 -------D 0 1.0 4.0 1 59 94 0 58
r 7.550048 1 6 sctp 1500 -------D 0 1.0 4.0 1 50 85 0 49
+ 7.550048 6 4 sctp 1500 -------D 0 1.0 4.0 1 50 85 0 49
- 7.550048 6 4 sctp 1500 -------D 0 1.0 4.0 1 50 85 0 49
- 7.566048 1 6 sctp 1500 -------D 0 1.0 4.0 1 60 95 0 59
r 7.574048 1 6 sctp 1500 -------D 0 1.0 4.0 1 51 86 0 50