+ 0.5 0 1 sctp 56 -------I 0 0.0 1.0 1 -1 2 65535 65535
- 0.5 0 1 sctp 56 -------I 0 0.0 1.0 1 -1 2 65535 65535
r 0.800896 0 1 sctp 56 -------I 0 0.0 1.0 1 -1 2 65535 65535
+ 0.800896 1 0 sctp 56 -------I 0 1.0 0.0 1 -1 3 65535 65535
- 0.800896 1 0 sctp 56 -------I 0 1.0 0.0 1 -1 3 65535 65535
r 1.101792 1 0 sctp 56 -------I 0 1.0 0.0 1 -1 3 65535 65535
+ 1.101792 0 1 sctp 36 -------I 0 0.0 1.0 1 -1 4 65535 65535
- 1.101792 0 1 sctp 36 -------I 0 0.0 1.0 1 -1 4 65535 65535
r 1.402368 0 1 sctp 36 -------I 0 0.0 1.0 1 -1 4 65535 65535
+ 1.402368 1 0 sctp 36 -------I 0 1.0 0.0 1 -1 5 65535 65535
- 1.402368 1 0 sctp 36 -------I 0 1.0 0.0 1 -1 5 65535 65535
r 1.702944 1 0 sctp 36 -------I 0 1.0 0.0 1 -1 5 65535 65535
+ 1.702944 0 1 sctp 56 -------H 0 0.0 1.0 1 -1 6 65535 65535
- 1.702944 0 1 sctp 56 -------H 0 0.0 1.0 1 -1 6 65535 65535
r 2.00384 0 1 sctp 56 -------H 0 0.0 1.0 1 -1 6 65535 65535
+ 2.00384 1 0 sctp 56 -------B 0 1.0 0.0 1 -1 7 65535 65535
- 2.00384 1 0 sctp 56 -------B 0 1.0 0.0 1 -1 7 65535 65535
r 2.304736 1 0 sctp 56 -------B 0 1.0 0.0 1 -1 7 65535 65535
+ 2.304736 0 1 sctp 1480 -------D 0 0.0 1.0 2 1 8 0 0
+ 2.304736 0 1 sctp 1480 -------D 0 0.0 1.0 2 2 8 0 1
- 2.304736 0 1 sctp 1480 -------D 0 0.0 1.0 2 1 8 0 0
- 2.304736 0 1 sctp 1480 -------D 0 0.0 1.0 2 2 8 0 1
+ 2.304736 0 1 sctp 1480 -------D 0 0.0 1.0 2 3 9 0 2
+ 2.304736 0 1 sctp 1480 -------D 0 0.0 1.0 2 4 9 0 3
+ 2.304736 0 1 sctp 756 -------D 0 0.0 1.0 1 5 10 0 4
- 2.328416 0 1 sctp 1480 -------D 0 0.0 1.0 2 3 9 0 2
- 2.328416 0 1 sctp 1480 -------D 0 0.0 1.0 2 4 9 0 3
- 2.352096 0 1 sctp 756 -------D 0 0.0 1.0 1 5 10 0 4
r 2.628416 0 1 sctp 1480 -------D 0 0.0 1.0 2 1 8 0 0
r 2.628416 0 1 sctp 1480 -------D 0 0.0 1.0 2 2 8 0 1
+ 2.628416 1 0 sctp 52 -------N 0 1.0 0.0 1 2 11 65535 65535
- 2.628416 1 0 sctp 52 -------N 0 1.0 0.0 1 2 11 65535 65535
r 2.652096 0 1 sctp 1480 -------D 0 0.0 1.0 2 3 9 0 2
r 2.652096 0 1 sctp 1480 -------D 0 0.0 1.0 2 4 9 0 3
+ 2.652096 1 0 sctp 52 -------N 0 1.0 0.0 1 4 12 65535 65535
- 2.652096 1 0 sctp 52 -------N 0 1.0 0.0 1 4 12 65535 65535
r 2.664192 0 1 sctp 756 -------D 0 0.0 1.0 1 5 10 0 4
+ 2.664192 1 0 sctp 52 -------N 0 1.0 0.0 1 5 13 65535 65535
- 2.664192 1 0 sctp 52 -------N 0 1.0 0.0 1 5 13 65535 65535
r 2.929248 1 0 sctp 52 -------N 0 1.0 0.0 1 2 11 65535 65535
+ 2.929248 0 1 sctp 1480 -------D 0 0.0 1.0 2 6 14 0 5
+ 2.929248 0 1 sctp 1480 -------D 0 0.0 1.0 2 7 14 0 6
- 2.929248 0 1 sctp 1480 -------D 0 0.0 1.0 2 6 14 0 5
- 2.929248 0 1 sctp 1480 -------D 0 0.0 1.0 2 7 14 0 6
r 2.952928 1 0 sctp 52 -------N 0 1.0 0.0 1 4 12 65535 65535
+ 2.952928 0 1 sctp 1480 -------D 0 0.0 1.0 2 8 15 0 7
+ 2.952928 0 1 sctp 1480 -------D 0 0.0 1.0 2 9 15 0 8
- 2.952928 0 1 sctp 1480 -------D 0 0.0 1.0 2 8 15 0 7
- 2.952928 0 1 sctp 1480 -------D 0 0.0 1.0 2 9 15 0 8
r 2.965024 1 0 sctp 52 -------N 0 1.0 0.0 1 5 13 65535 65535
+ 2.965024 0 1 sctp 756 -------D 0 0.0 1.0 1 10 16 0 9
- 2.976608 0 1 sctp 756 -------D 0 0.0 1.0 1 10 16 0 9
r 3.252928 0 1 sctp 1480 -------D 0 0.0 1.0 2 6 14 0 5
r 3.252928 0 1 sctp 1480 -------D 0 0.0 1.0 2 7 14 0 6
+ 3.252928 1 0 sctp 52 -------N 0 1.0 0.0 1 7 17 65535 65535
- 3.252928 1 0 sctp 52 -------N 0 1.0 0.0 1 7 17 65535 65535
r 3.276608 0 1 sctp 1480 -------D 0 0.0 1.0 2 8 15 0 7
r 3.276608 0 1 sctp 1480 -------D 0 0.0 1.0 2 9 15 0 8
+ 3.276608 1 0 sctp 52 -------N 0 1.0 0.0 1 9 18 65535 65535
- 3.276608 1 0 sctp 52 -------N 0 1.0 0.0 1 9 18 65535 65535
r 3.288704 0 1 sctp 756 -------D 0 0.0 1.0 1 10 16 0 9
+ 3.288704 1 0 sctp 52 -------N 0 1.0 0.0 1 10 19 65535 65535
- 3.288704 1 0 sctp 52 -------N 0 1.0 0.0 1 10 19 65535 65535
r 3.55376 1 0 sctp 52 -------N 0 1.0 0.0 1 7 17 65535 65535
+ 3.55376 0 1 sctp 1480 -------D 0 0.0 1.0 2 11 20 0 10
+ 3.55376 0 1 sctp 1480 -------D 0 0.0 1.0 2 12 20 0 11
- 3.55376 0 1 sctp 1480 -------D 0 0.0 1.0 2 11 20 0 10
- 3.55376 0 1 sctp 1480 -------D 0 0.0 1.0 2 12 20 0 11
r 3.57744 1 0 sctp 52 -------N 0 1.0 0.0 1 9 18 65535 65535
+ 3.57744 0 1 sctp 1480 -------D 0 0.0 1.0 2 13 21 0 12
+ 3.57744 0 1 sctp 1480 -------D 0 0.0 1.0 2 14 21 0 13
- 3.57744 0 1 sctp 1480 -------D 0 0.0 1.0 2 13 21 0 12
- 3.57744 0 1 sctp 1480 -------D 0 0.0 1.0 2 14 21 0 13
r 3.589536 1 0 sctp 52 -------N 0 1.0 0.0 1 10 19 65535 65535
+ 3.589536 0 1 sctp 756 -------D 0 0.0 1.0 1 15 22 0 14
- 3.60112 0 1 sctp 756 -------D 0 0.0 1.0 1 15 22 0 14
r 3.87744 0 1 sctp 1480 -------D 0 0.0 1.0 2 11 20 0 10
r 3.87744 0 1 sctp 1480 -------D 0 0.0 1.0 2 12 20 0 11
+ 3.87744 1 0 sctp 52 -------N 0 1.0 0.0 1 12 23 65535 65535
- 3.87744 1 0 sctp 52 -------N 0 1.0 0.0 1 12 23 65535 65535
r 3.90112 0 1 sctp 1480 -------D 0 0.0 1.0 2 13 21 0 12
r 3.90112 0 1 sctp 1480 -------D 0 0.0 1.0 2 14 21 0 13
+ 3.90112 1 0 sctp 52 -------N 0 1.0 0.0 1 14 24 65535 65535
- 3.90112 1 0 sctp 52 -------N 0 1.0 0.0 1 14 24 65535 65535
r 3.913216 0 1 sctp 756 -------D 0 0.0 1.0 1 15 22 0 14
+ 3.913216 1 0 sctp 52 -------N 0 1.0 0.0 1 15 25 65535 65535
- 3.913216 1 0 sctp 52 -------N 0 1.0 0.0 1 15 25 65535 65535
r 4.178272 1 0 sctp 52 -------N 0 1.0 0.0 1 12 23 65535 65535
+ 4.178272 0 1 sctp 1480 -------D 0 0.0 1.0 2 16 26 0 15
+ 4.178272 0 1 sctp 1480 -------D 0 0.0 1.0 2 17 26 0 16
- 4.178272 0 1 sctp 1480 -------D 0 0.0 1.0 2 16 26 0 15
- 4.178272 0 1 sctp 1480 -------D 0 0.0 1.0 2 17 26 0 16
r 4.201952 1 0 sctp 52 -------N 0 1.0 0.0 1 14 24 65535 65535
+ 4.201952 0 1 sctp 1480 -------D 0 0.0 1.0 2 18 27 0 17
+ 4.201952 0 1 sctp 1480 -------D 0 0.0 1.0 2 19 27 0 18
- 4.201952 0 1 sctp 1480 -------D 0 0.0 1.0 2 18 27 0 17
- 4.201952 0 1 sctp 1480 -------D 0 0.0 1.0 2 19 27 0 18
r 4.214048 1 0 sctp 52 -------N 0 1.0 0.0 1 15 25 65535 65535
+ 4.214048 0 1 sctp 756 -------D 0 0.0 1.0 1 20 28 0 19
- 4.225632 0 1 sctp 756 -------D 0 0.0 1.0 1 20 28 0 19
r 4.501952 0 1 sctp 1480 -------D 0 0.0 1.0 2 16 26 0 15
r 4.501952 0 1 sctp 1480 -------D 0 0.0 1.0 2 17 26 0 16
+ 4.501952 1 0 sctp 52 -------N 0 1.0 0.0 1 17 29 65535 65535
- 4.501952 1 0 sctp 52 -------N 0 1.0 0.0 1 17 29 65535 65535
r 4.525632 0 1 sctp 1480 -------D 0 0.0 1.0 2 18 27 0 17
r 4.525632 0 1 sctp 1480 -------D 0 0.0 1.0 2 19 27 0 18
+ 4.525632 1 0 sctp 52 -------N 0 1.0 0.0 1 19 30 65535 65535
- 4.525632 1 0 sctp 52 -------N 0 1.0 0.0 1 19 30 65535 65535
r 4.537728 0 1 sctp 756 -------D 0 0.0 1.0 1 20 28 0 19
+ 4.537728 1 0 sctp 52 -------N 0 1.0 0.0 1 20 31 65535 65535
- 4.537728 1 0 sctp 52 -------N 0 1.0 0.0 1 20 31 65535 65535
r 4.802784 1 0 sctp 52 -------N 0 1.0 0.0 1 17 29 65535 65535
+ 4.802784 0 1 sctp 1480 -------D 0 0.0 1.0 2 21 32 0 20
+ 4.802784 0 1 sctp 1480 -------D 0 0.0 1.0 2 22 32 0 21
- 4.802784 0 1 sctp 1480 -------D 0 0.0 1.0 2 21 32 0 20
- 4.802784 0 1 sctp 1480 -------D 0 0.0 1.0 2 22 32 0 21
r 4.826464 1 0 sctp 52 -------N 0 1.0 0.0 1 19 30 65535 65535
+ 4.826464 0 1 sctp 1480 -------D 0 0.0 1.0 2 23 33 0 22
+ 4.826464 0 1 sctp 1480 -------D 0 0.0 1.0 2 24 33 0 23
- 4.826464 0 1 sctp 1480 -------D 0 0.0 1.0 2 23 33 0 22
- 4.826464 0 1 sctp 1480 -------D 0 0.0 1.0 2 24 33 0 23
r 4.83856 1 0 sctp 52 -------N 0 1.0 0.0 1 20 31 65535 65535
+ 4.83856 0 1 sctp 756 -------D 0 0.0 1.0 1 25 34 0 24
- 4.850144 0 1 sctp 756 -------D 0 0.0 1.0 1 25 34 0 24
r 5.126464 0 1 sctp 1480 -------D 0 0.0 1.0 2 21 32 0 20
r 5.126464 0 1 sctp 1480 -------D 0 0.0 1.0 2 22 32 0 21
+ 5.126464 1 0 sctp 52 -------N 0 1.0 0.0 1 22 35 65535 65535
- 5.126464 1 0 sctp 52 -------N 0 1.0 0.0 1 22 35 65535 65535
r 5.150144 0 1 sctp 1480 -------D 0 0.0 1.0 2 23 33 0 22
r 5.150144 0 1 sctp 1480 -------D 0 0.0 1.0 2 24 33 0 23
+ 5.150144 1 0 sctp 52 -------N 0 1.0 0.0 1 24 36 65535 65535
- 5.150144 1 0 sctp 52 -------N 0 1.0 0.0 1 24 36 65535 65535
r 5.16224 0 1 sctp 756 -------D 0 0.0 1.0 1 25 34 0 24
+ 5.16224 1 0 sctp 52 -------N 0 1.0 0.0 1 25 37 65535 65535
- 5.16224 1 0 sctp 52 -------N 0 1.0 0.0 1 25 37 65535 65535
r 5.427296 1 0 sctp 52 -------N 0 1.0 0.0 1 22 35 65535 65535
+ 5.427296 0 1 sctp 1480 -------D 0 0.0 1.0 2 26 38 0 25
+ 5.427296 0 1 sctp 1480 -------D 0 0.0 1.0 2 27 38 0 26
- 5.427296 0 1 sctp 1480 -------D 0 0.0 1.0 2 26 38 0 25
- 5.427296 0 1 sctp 1480 -------D 0 0.0 1.0 2 27 38 0 26
r 5.450976 1 0 sctp 52 -------N 0 1.0 0.0 1 24 36 65535 65535
+ 5.450976 0 1 sctp 1480 -------D 0 0.0 1.0 2 28 39 0 27
+ 5.450976 0 1 sctp 1480 -------D 0 0.0 1.0 2 29 39 0 28
- 5.450976 0 1 sctp 1480 -------D 0 0.0 1.0 2 28 39 0 27
- 5.450976 0 1 sctp 1480 -------D 0 0.0 1.0 2 29 39 0 28
r 5.463072 1 0 sctp 52 -------N 0 1.0 0.0 1 25 37 65535 65535
+ 5.463072 0 1 sctp 756 -------D 0 0.0 1.0 1 30 40 0 29
- 5.474656 0 1 sctp 756 -------D 0 0.0 1.0 1 30 40 0 29
r 5.750976 0 1 sctp 1480 -------D 0 0.0 1.0 2 26 38 0 25
r 5.750976 0 1 sctp 1480 -------D 0 0.0 1.0 2 27 38 0 26
+ 5.750976 1 0 sctp 52 -------N 0 1.0 0.0 1 27 41 65535 65535
- 5.750976 1 0 sctp 52 -------N 0 1.0 0.0 1 27 41 65535 65535
r 5.774656 0 1 sctp 1480 -------D 0 0.0 1.0 2 28 39 0 27
r 5.774656 0 1 sctp 1480 -------D 0 0.0 1.0 2 29 39 0 28
+ 5.774656 1 0 sctp 52 -------N 0 1.0 0.0 1 29 42 65535 65535
- 5.774656 1 0 sctp 52 -------N 0 1.0 0.0 1 29 42 65535 65535
r 5.786752 0 1 sctp 756 -------D 0 0.0 1.0 1 30 40 0 29
+ 5.786752 1 0 sctp 52 -------N 0 1.0 0.0 1 30 43 65535 65535
- 5.786752 1 0 sctp 52 -------N 0 1.0 0.0 1 30 43 65535 65535
r 6.051808 1 0 sctp 52 -------N 0 1.0 0.0 1 27 41 65535 65535
+ 6.051808 0 1 sctp 1480 -------D 0 0.0 1.0 2 31 44 0 30
+ 6.051808 0 1 sctp 1480 -------D 0 0.0 1.0 2 32 44 0 31
- 6.051808 0 1 sctp 1480 -------D 0 0.0 1.0 2 31 44 0 30
- 6.051808 0 1 sctp 1480 -------D 0 0.0 1.0 2 32 44 0 31
r 6.075488 1 0 sctp 52 -------N 0 1.0 0.0 1 29 42 65535 65535
+ 6.075488 0 1 sctp 1480 -------D 0 0.0 1.0 2 33 45 0 32
+ 6.075488 0 1 sctp 1480 -------D 0 0.0 1.0 2 34 45 0 33
- 6.075488 0 1 sctp 1480 -------D 0 0.0 1.0 2 33 45 0 32
- 6.075488 0 1 sctp 1480 -------D 0 0.0 1.0 2 34 45 0 33
r 6.087584 1 0 sctp 52 -------N 0 1.0 0.0 1 30 43 65535 65535
+ 6.087584 0 1 sctp 756 -------D 0 0.0 1.0 1 35 46 0 34
- 6.099168 0 1 sctp 756 -------D 0 0.0 1.0 1 35 46 0 34
r 6.375488 0 1 sctp 1480 -------D 0 0.0 1.0 2 31 44 0 30
r 6.375488 0 1 sctp 1480 -------D 0 0.0 1.0 2 32 44 0 31
+ 6.375488 1 0 sctp 52 -------N 0 1.0 0.0 1 32 47 65535 65535
- 6.375488 1 0 sctp 52 -------N 0 1.0 0.0 1 32 47 65535 65535
r 6.399168 0 1 sctp 1480 -------D 0 0.0 1.0 2 33 45 0 32
r 6.399168 0 1 sctp 1480 -------D 0 0.0 1.0 2 34 45 0 33
+ 6.399168 1 0 sctp 52 -------N 0 1.0 0.0 1 34 48 65535 65535
- 6.399168 1 0 sctp 52 -------N 0 1.0 0.0 1 34 48 65535 65535
r 6.411264 0 1 sctp 756 -------D 0 0.0 1.0 1 35 46 0 34
+ 6.411264 1 0 sctp 52 -------N 0 1.0 0.0 1 35 49 65535 65535
- 6.411264 1 0 sctp 52 -------N 0 1.0 0.0 1 35 49 65535 65535
r 6.67632 1 0 sctp 52 -------N 0 1.0 0.0 1 32 47 65535 65535
+ 6.67632 0 1 sctp 1480 -------D 0 0.0 1.0 2 36 50 0 35
+ 6.67632 0 1 sctp 1480 -------D 0 0.0 1.0 2 37 50 0 36
- 6.67632 0 1 sctp 1480 -------D 0 0.0 1.0 2 36 50 0 35
- 6.67632 0 1 sctp 1480 -------D 0 0.0 1.0 2 37 50 0 36
r 6.7 1 0 sctp 52 -------N 0 1.0 0.0 1 34 48 65535 65535
+ 6.7 0 1 sctp 1480 -------D 0 0.0 1.0 2 38 51 0 37
+ 6.7 0 1 sctp 1480 -------D 0 0.0 1.0 2 39 51 0 38
- 6.7 0 1 sctp 1480 -------D 0 0.0 1.0 2 38 51 0 37
- 6.7 0 1 sctp 1480 -------D 0 0.0 1.0 2 39 51 0 38
r 6.712096 1 0 sctp 52 -------N 0 1.0 0.0 1 35 49 65535 65535
+ 6.712096 0 1 sctp 756 -------D 0 0.0 1.0 1 40 52 0 39
- 6.72368 0 1 sctp 756 -------D 0 0.0 1.0 1 40 52 0 39
r 7 0 1 sctp 1480 -------D 0 0.0 1.0 2 36 50 0 35
r 7 0 1 sctp 1480 -------D 0 0.0 1.0 2 37 50 0 36
+ 7 1 0 sctp 52 -------N 0 1.0 0.0 1 37 53 65535 65535
- 7 1 0 sctp 52 -------N 0 1.0 0.0 1 37 53 65535 65535
r 7.02368 0 1 sctp 1480 -------D 0 0.0 1.0 2 38 51 0 37
r 7.02368 0 1 sctp 1480 -------D 0 0.0 1.0 2 39 51 0 38
+ 7.02368 1 0 sctp 52 -------N 0 1.0 0.0 1 39 54 65535 65535
- 7.02368 1 0 sctp 52 -------N 0 1.0 0.0 1 39 54 65535 65535
r 7.035776 0 1 sctp 756 -------D 0 0.0 1.0 1 40 52 0 39
+ 7.035776 1 0 sctp 52 -------N 0 1.0 0.0 1 40 55 65535 65535
- 7.035776 1 0 sctp 52 -------N 0 1.0 0.0 1 40 55 65535 65535
r 7.300832 1 0 sctp 52 -------N 0 1.0 0.0 1 37 53 65535 65535
+ 7.300832 0 1 sctp 1480 -------D 0 0.0 1.0 2 41 56 0 40
+ 7.300832 0 1 sctp 1480 -------D 0 0.0 1.0 2 42 56 0 41
- 7.300832 0 1 sctp 1480 -------D 0 0.0 1.0 2 41 56 0 40
- 7.300832 0 1 sctp 1480 -------D 0 0.0 1.0 2 42 56 0 41
r 7.324512 1 0 sctp 52 -------N 0 1.0 0.0 1 39 54 65535 65535
+ 7.324512 0 1 sctp 1480 -------D 0 0.0 1.0 2 43 57 0 42
+ 7.324512 0 1 sctp 1480 -------D 0 0.0 1.0 2 44 57 0 43
- 7.324512 0 1 sctp 1480 -------D 0 0.0 1.0 2 43 57 0 42
- 7.324512 0 1 sctp 1480 -------D 0 0.0 1.0 2 44 57 0 43
r 7.336608 1 0 sctp 52 -------N 0 1.0 0.0 1 40 55 65535 65535
+ 7.336608 0 1 sctp 756 -------D 0 0.0 1.0 1 45 58 0 44
- 7.348192 0 1 sctp 756 -------D 0 0.0 1.0 1 45 58 0 44
r 7.624512 0 1 sctp 1480 -------D 0 0.0 1.0 2 41 56 0 40
r 7.624512 0 1 sctp 1480 -------D 0 0.0 1.0 2 42 56 0 41
+ 7.624512 1 0 sctp 52 -------N 0 1.0 0.0 1 42 59 65535 65535
- 7.624512 1 0 sctp 52 -------N 0 1.0 0.0 1 42 59 65535 65535
r 7.648192 0 1 sctp 1480 -------D 0 0.0 1.0 2 43 57 0 42
r 7.648192 0 1 sctp 1480 -------D 0 0.0 1.0 2 44 57 0 43
+ 7.648192 1 0 sctp 52 -------N 0 1.0 0.0 1 44 60 65535 65535
- 7.648192 1 0 sctp 52 -------N 0 1.0 0.0 1 44 60 65535 65535
r 7.660288 0 1 sctp 756 -------D 0 0.0 1.0 1 45 58 0 44
+ 7.660288 1 0 sctp 52 -------N 0 1.0 0.0 1 45 61 65535 65535
- 7.660288 1 0 sctp 52 -------N 0 1.0 0.0 1 45 61 65535 65535
r 7.925344 1 0 sctp 52 -------N 0 1.0 0.0 1 42 59 65535 65535
+ 7.925344 0 1 sctp 1480 -------D 0 0.0 1.0 2 46 62 0 45
+ 7.925344 0 1 sctp 1480 -------D 0 0.0 1.0 2 47 62 0 46
- 7.925344 0 1 sctp 1480 -------D 0 0.0 1.0 2 46 62 0 45
- 7.925344 0 1 sctp 1480 -------D 0 0.0 1.0 2 47 62 0 46
r 7.949024 1 0 sctp 52 -------N 0 1.0 0.0 1 44 60 65535 65535
+ 7.949024 0 1 sctp 1480 -------D 0 0.0 1.0 2 48 63 0 47
+ 7.949024 0 1 sctp 1480 -------D 0 0.0 1.0 2 49 63 0 48
- 7.949024 0 1 sctp 1480 -------D 0 0.0 1.0 2 48 63 0 47
- 7.949024 0 1 sctp 1480 -------D 0 0.0 1.0 2 49 63 0 48
r 7.96112 1 0 sctp 52 -------N 0 1.0 0.0 1 45 61 65535 65535
+ 7.96112 0 1 sctp 756 -------D 0 0.0 1.0 1 50 64 0 49
- 7.972704 0 1 sctp 756 -------D 0 0.0 1.0 1 50 64 0 49
r 8.249024 0 1 sctp 1480 -------D 0 0.0 1.0 2 46 62 0 45
r 8.249024 0 1 sctp 1480 -------D 0 0.0 1.0 2 47 62 0 46
+ 8.249024 1 0 sctp 52 -------N 0 1.0 0.0 1 47 65 65535 65535
- 8.249024 1 0 sctp 52 -------N 0 1.0 0.0 1 47 65 65535 65535
r 8.272704 0 1 sctp 1480 -------D 0 0.0 1.0 2 48 63 0 47
r 8.272704 0 1 sctp 1480 -------D 0 0.0 1.0 2 49 63 0 48
+ 8.272704 1 0 sctp 52 -------N 0 1.0 0.0 1 49 66 65535 65535
- 8.272704 1 0 sctp 52 -------N 0 1.0 0.0 1 49 66 65535 65535
r 8.2848 0 1 sctp 756 -------D 0 0.0 1.0 1 50 64 0 49
+ 8.2848 1 0 sctp 52 -------N 0 1.0 0.0 1 50 67 65535 65535
- 8.2848 1 0 sctp 52 -------N 0 1.0 0.0 1 50 67 65535 65535
r 8.549856 1 0 sctp 52 -------N 0 1.0 0.0 1 47 65 65535 65535
+ 8.549856 0 1 sctp 1480 -------D 0 0.0 1.0 2 51 68 0 50
+ 8.549856 0 1 sctp 1480 -------D 0 0.0 1.0 2 52 68 0 51
- 8.549856 0 1 sctp 1480 -------D 0 0.0 1.0 2 51 68 0 50
- 8.549856 0 1 sctp 1480 -------D 0 0.0 1.0 2 52 68 0 51
r 8.573536 1 0 sctp 52 -------N 0 1.0 0.0 1 49 66 65535 65535
+ 8.573536 0 1 sctp 1480 -------D 0 0.0 1.0 2 53 69 0 52
+ 8.573536 0 1 sctp 1480 -------D 0 0.0 1.0 2 54 69 0 53
- 8.573536 0 1 sctp 1480 -------D 0 0.0 1.0 2 53 69 0 52
- 8.573536 0 1 sctp 1480 -------D 0 0.0 1.0 2 54 69 0 53
r 8.585632 1 0 sctp 52 -------N 0 1.0 0.0 1 50 67 65535 65535
+ 8.585632 0 1 sctp 756 -------D 0 0.0 1.0 1 55 70 0 54
- 8.597216 0 1 sctp 756 -------D 0 0.0 1.0 1 55 70 0 54
r 8.873536 0 1 sctp 1480 -------D 0 0.0 1.0 2 51 68 0 50
r 8.873536 0 1 sctp 1480 -------D 0 0.0 1.0 2 52 68 0 51
+ 8.873536 1 0 sctp 52 -------N 0 1.0 0.0 1 52 71 65535 65535
- 8.873536 1 0 sctp 52 -------N 0 1.0 0.0 1 52 71 65535 65535
r 8.897216 0 1 sctp 1480 -------D 0 0.0 1.0 2 53 69 0 52
r 8.897216 0 1 sctp 1480 -------D 0 0.0 1.0 2 54 69 0 53
+ 8.897216 1 0 sctp 52 -------N 0 1.0 0.0 1 54 72 65535 65535
- 8.897216 1 0 sctp 52 -------N 0 1.0 0.0 1 54 72 65535 65535
r 8.909312 0 1 sctp 756 -------D 0 0.0 1.0 1 55 70 0 54
+ 8.909312 1 0 sctp 52 -------N 0 1.0 0.0 1 55 73 65535 65535
- 8.909312 1 0 sctp 52 -------N 0 1.0 0.0 1 55 73 65535 65535
r 9.174368 1 0 sctp 52 -------N 0 1.0 0.0 1 52 71 65535 65535
+ 9.174368 0 1 sctp 1480 -------D 0 0.0 1.0 2 56 74 0 55
+ 9.174368 0 1 sctp 1480 -------D 0 0.0 1.0 2 57 74 0 56
- 9.174368 0 1 sctp 1480 -------D 0 0.0 1.0 2 56 74 0 55
- 9.174368 0 1 sctp 1480 -------D 0 0.0 1.0 2 57 74 0 56
r 9.198048 1 0 sctp 52 -------N 0 1.0 0.0 1 54 72 65535 65535
+ 9.198048 0 1 sctp 1480 -------D 0 0.0 1.0 2 58 75 0 57
+ 9.198048 0 1 sctp 1480 -------D 0 0.0 1.0 2 59 75 0 58
- 9.198048 0 1 sctp 1480 -------D 0 0.0 1.0 2 58 75 0 57
- 9.198048 0 1 sctp 1480 -------D 0 0.0 1.0 2 59 75 0 58
r 9.210144 1 0 sctp 52 -------N 0 1.0 0.0 1 55 73 65535 65535
+ 9.210144 0 1 sctp 756 -------D 0 0.0 1.0 1 60 76 0 59
- 9.221728 0 1 sctp 756 -------D 0 0.0 1.0 1 60 76 0 59
r 9.498048 0 1 sctp 1480 -------D 0 0.0 1.0 2 56 74 0 55
r 9.498048 0 1 sctp 1480 -------D 0 0.0 1.0 2 57 74 0 56
+ 9.498048 1 0 sctp 52 -------N 0 1.0 0.0 1 57 77 65535 65535
- 9.498048 1 0 sctp 52 -------N 0 1.0 0.0 1 57 77 65535 65535
r 9.521728 0 1 sctp 1480 -------D 0 0.0 1.0 2 58 75 0 57
r 9.521728 0 1 sctp 1480 -------D 0 0.0 1.0 2 59 75 0 58
+ 9.521728 1 0 sctp 52 -------N 0 1.0 0.0 1 59 78 65535 65535
- 9.521728 1 0 sctp 52 -------N 0 1.0 0.0 1 59 78 65535 65535
r 9.533824 0 1 sctp 756 -------D 0 0.0 1.0 1 60 76 0 59
+ 9.533824 1 0 sctp 52 -------N 0 1.0 0.0 1 60 79 65535 65535
- 9.533824 1 0 sctp 52 -------N 0 1.0 0.0 1 60 79 65535 65535
r 9.79888 1 0 sctp 52 -------N 0 1.0 0.0 1 57 77 65535 65535
+ 9.79888 0 1 sctp 1480 -------D 0 0.0 1.0 2 61 80 0 60
+ 9.79888 0 1 sctp 1480 -------D 0 0.0 1.0 2 62 80 0 61
- 9.79888 0 1 sctp 1480 -------D 0 0.0 1.0 2 61 80 0 60
- 9.79888 0 1 sctp 1480 -------D 0 0.0 1.0 2 62 80 0 61
r 9.82256 1 0 sctp 52 -------N 0 1.0 0.0 1 59 78 65535 65535
+ 9.82256 0 1 sctp 1480 -------D 0 0.0 1.0 2 63 81 0 62
+ 9.82256 0 1 sctp 1480 -------D 0 0.0 1.0 2 64 81 0 63
- 9.82256 0 1 sctp 1480 -------D 0 0.0 1.0 2 63 81 0 62
- 9.82256 0 1 sctp 1480 -------D 0 0.0 1.0 2 64 81 0 63
r 9.834656 1 0 sctp 52 -------N 0 1.0 0.0 1 60 79 65535 65535
+ 9.834656 0 1 sctp 756 -------D 0 0.0 1.0 1 65 82 0 64
- 9.84624 0 1 sctp 756 -------D 0 0.0 1.0 1 65 82 0 64
