+ 0.5 0 1 sctp 56 -------I 0 0.0 1.0 1 -1 2 65535 65535
- 0.5 0 1 sctp 56 -------I 0 0.0 1.0 1 -1 2 65535 65535
r 0.700896 0 1 sctp 56 -------I 0 0.0 1.0 1 -1 2 65535 65535
+ 0.700896 1 0 sctp 56 -------I 0 1.0 0.0 1 -1 3 65535 65535
- 0.700896 1 0 sctp 56 -------I 0 1.0 0.0 1 -1 3 65535 65535
r 0.901792 1 0 sctp 56 -------I 0 1.0 0.0 1 -1 3 65535 65535
+ 0.901792 0 1 sctp 36 -------I 0 0.0 1.0 1 -1 4 65535 65535
- 0.901792 0 1 sctp 36 -------I 0 0.0 1.0 1 -1 4 65535 65535
r 1.102368 0 1 sctp 36 -------I 0 0.0 1.0 1 -1 4 65535 65535
+ 1.102368 1 0 sctp 36 -------I 0 1.0 0.0 1 -1 5 65535 65535
- 1.102368 1 0 sctp 36 -------I 0 1.0 0.0 1 -1 5 65535 65535
r 1.302944 1 0 sctp 36 -------I 0 1.0 0.0 1 -1 5 65535 65535
+ 1.302944 0 1 sctp 56 -------H 0 0.0 1.0 1 -1 6 65535 65535
- 1.302944 0 1 sctp 56 -------H 0 0.0 1.0 1 -1 6 65535 65535
r 1.50384 0 1 sctp 56 -------H 0 0.0 1.0 1 -1 6 65535 65535
+ 1.50384 1 0 sctp 56 -------B 0 1.0 0.0 1 -1 7 65535 65535
- 1.50384 1 0 sctp 56 -------B 0 1.0 0.0 1 -1 7 65535 65535
r 1.704736 1 0 sctp 56 -------B 0 1.0 0.0 1 -1 7 65535 65535
+ 1.704736 0 1 sctp 1500 -------D 0 0.0 1.0 1 1 8 0 0
- 1.704736 0 1 sctp 1500 -------D 0 0.0 1.0 1 1 8 0 0
+ 1.704736 0 1 sctp 1500 -------D 0 0.0 1.0 1 2 9 0 1
+ 1.704736 0 1 sctp 1500 -------D 0 0.0 1.0 1 3 10 0 2
- 1.728736 0 1 sctp 1500 -------D 0 0.0 1.0 1 2 9 0 1
- 1.752736 0 1 sctp 1500 -------D 0 0.0 1.0 1 3 10 0 2
r 1.928736 0 1 sctp 1500 -------D 0 0.0 1.0 1 1 8 0 0
+ 1.928736 1 0 sctp 48 -------S 0 1.0 0.0 1 1 11 65535 65535
- 1.928736 1 0 sctp 48 -------S 0 1.0 0.0 1 1 11 65535 65535
r 1.952736 0 1 sctp 1500 -------D 0 0.0 1.0 1 2 9 0 1
+ 1.952736 1 0 sctp 48 -------S 0 1.0 0.0 1 2 12 65535 65535
- 1.952736 1 0 sctp 48 -------S 0 1.0 0.0 1 2 12 65535 65535
r 1.976736 0 1 sctp 1500 -------D 0 0.0 1.0 1 3 10 0 2
+ 1.976736 1 0 sctp 48 -------S 0 1.0 0.0 1 3 13 65535 65535
- 1.976736 1 0 sctp 48 -------S 0 1.0 0.0 1 3 13 65535 65535
r 2.129504 1 0 sctp 48 -------S 0 1.0 0.0 1 1 11 65535 65535
+ 2.129504 0 1 sctp 1500 -------D 0 0.0 1.0 1 4 14 0 3
- 2.129504 0 1 sctp 1500 -------D 0 0.0 1.0 1 4 14 0 3
+ 2.129504 0 1 sctp 1500 -------D 0 0.0 1.0 1 5 15 0 4
r 2.153504 1 0 sctp 48 -------S 0 1.0 0.0 1 2 12 65535 65535
+ 2.153504 0 1 sctp 1500 -------D 0 0.0 1.0 1 6 16 0 5
+ 2.153504 0 1 sctp 1500 -------D 0 0.0 1.0 1 7 17 0 6
- 2.153504 0 1 sctp 1500 -------D 0 0.0 1.0 1 5 15 0 4
r 2.177504 1 0 sctp 48 -------S 0 1.0 0.0 1 3 13 65535 65535
+ 2.177504 0 1 sctp 1500 -------D 0 0.0 1.0 1 8 18 0 7
+ 2.177504 0 1 sctp 1500 -------D 0 0.0 1.0 1 9 19 0 8
- 2.177504 0 1 sctp 1500 -------D 0 0.0 1.0 1 6 16 0 5
- 2.201504 0 1 sctp 1500 -------D 0 0.0 1.0 1 7 17 0 6
- 2.225504 0 1 sctp 1500 -------D 0 0.0 1.0 1 8 18 0 7
- 2.249504 0 1 sctp 1500 -------D 0 0.0 1.0 1 9 19 0 8
r 2.353504 0 1 sctp 1500 -------D 0 0.0 1.0 1 4 14 0 3
+ 2.353504 1 0 sctp 48 -------S 0 1.0 0.0 1 4 20 65535 65535
- 2.353504 1 0 sctp 48 -------S 0 1.0 0.0 1 4 20 65535 65535
r 2.377504 0 1 sctp 1500 -------D 0 0.0 1.0 1 5 15 0 4
+ 2.377504 1 0 sctp 48 -------S 0 1.0 0.0 1 5 21 65535 65535
- 2.377504 1 0 sctp 48 -------S 0 1.0 0.0 1 5 21 65535 65535
r 2.401504 0 1 sctp 1500 -------D 0 0.0 1.0 1 6 16 0 5
+ 2.401504 1 0 sctp 48 -------S 0 1.0 0.0 1 6 22 65535 65535
- 2.401504 1 0 sctp 48 -------S 0 1.0 0.0 1 6 22 65535 65535
r 2.425504 0 1 sctp 1500 -------D 0 0.0 1.0 1 7 17 0 6
+ 2.425504 1 0 sctp 48 -------S 0 1.0 0.0 1 7 23 65535 65535
- 2.425504 1 0 sctp 48 -------S 0 1.0 0.0 1 7 23 65535 65535
r 2.449504 0 1 sctp 1500 -------D 0 0.0 1.0 1 8 18 0 7
+ 2.449504 1 0 sctp 48 -------S 0 1.0 0.0 1 8 24 65535 65535
- 2.449504 1 0 sctp 48 -------S 0 1.0 0.0 1 8 24 65535 65535
r 2.473504 0 1 sctp 1500 -------D 0 0.0 1.0 1 9 19 0 8
+ 2.473504 1 0 sctp 48 -------S 0 1.0 0.0 1 9 25 65535 65535
- 2.473504 1 0 sctp 48 -------S 0 1.0 0.0 1 9 25 65535 65535
r 2.554272 1 0 sctp 48 -------S 0 1.0 0.0 1 4 20 65535 65535
+ 2.554272 0 1 sctp 1500 -------D 0 0.0 1.0 1 10 26 0 9
- 2.554272 0 1 sctp 1500 -------D 0 0.0 1.0 1 10 26 0 9
+ 2.554272 0 1 sctp 1500 -------D 0 0.0 1.0 1 11 27 0 10
r 2.578272 1 0 sctp 48 -------S 0 1.0 0.0 1 5 21 65535 65535
+ 2.578272 0 1 sctp 1500 -------D 0 0.0 1.0 1 12 28 0 11
d 2.578272 0 1 sctp 1500 -------D 0 0.0 1.0 1 13 29 0 12
- 2.578272 0 1 sctp 1500 -------D 0 0.0 1.0 1 11 27 0 10
r 2.602272 1 0 sctp 48 -------S 0 1.0 0.0 1 6 22 65535 65535
d 2.602272 0 1 sctp 1500 -------D 0 0.0 1.0 1 14 30 0 13
+ 2.602272 0 1 sctp 1500 -------D 0 0.0 1.0 1 15 31 0 14
- 2.602272 0 1 sctp 1500 -------D 0 0.0 1.0 1 12 28 0 11
r 2.626272 1 0 sctp 48 -------S 0 1.0 0.0 1 7 23 65535 65535
+ 2.626272 0 1 sctp 1500 -------D 0 0.0 1.0 1 16 32 0 15
+ 2.626272 0 1 sctp 1500 -------D 0 0.0 1.0 1 17 33 0 16
- 2.626272 0 1 sctp 1500 -------D 0 0.0 1.0 1 15 31 0 14
r 2.650272 1 0 sctp 48 -------S 0 1.0 0.0 1 8 24 65535 65535
+ 2.650272 0 1 sctp 1500 -------D 0 0.0 1.0 1 18 34 0 17
+ 2.650272 0 1 sctp 1500 -------D 0 0.0 1.0 1 19 35 0 18
- 2.650272 0 1 sctp 1500 -------D 0 0.0 1.0 1 16 32 0 15
r 2.674272 1 0 sctp 48 -------S 0 1.0 0.0 1 9 25 65535 65535
+ 2.674272 0 1 sctp 1500 -------D 0 0.0 1.0 1 20 36 0 19
+ 2.674272 0 1 sctp 1500 -------D 0 0.0 1.0 1 21 37 0 20
- 2.674272 0 1 sctp 1500 -------D 0 0.0 1.0 1 17 33 0 16
- 2.698272 0 1 sctp 1500 -------D 0 0.0 1.0 1 18 34 0 17
- 2.722272 0 1 sctp 1500 -------D 0 0.0 1.0 1 19 35 0 18
- 2.746272 0 1 sctp 1500 -------D 0 0.0 1.0 1 20 36 0 19
- 2.770272 0 1 sctp 1500 -------D 0 0.0 1.0 1 21 37 0 20
r 2.778272 0 1 sctp 1500 -------D 0 0.0 1.0 1 10 26 0 9
+ 2.778272 1 0 sctp 48 -------S 0 1.0 0.0 1 10 38 65535 65535
- 2.778272 1 0 sctp 48 -------S 0 1.0 0.0 1 10 38 65535 65535
r 2.802272 0 1 sctp 1500 -------D 0 0.0 1.0 1 11 27 0 10
+ 2.802272 1 0 sctp 48 -------S 0 1.0 0.0 1 11 39 65535 65535
- 2.802272 1 0 sctp 48 -------S 0 1.0 0.0 1 11 39 65535 65535
r 2.826272 0 1 sctp 1500 -------D 0 0.0 1.0 1 12 28 0 11
+ 2.826272 1 0 sctp 48 -------S 0 1.0 0.0 1 12 40 65535 65535
- 2.826272 1 0 sctp 48 -------S 0 1.0 0.0 1 12 40 65535 65535
r 2.850272 0 1 sctp 1500 -------D 0 0.0 1.0 1 15 31 0 14
+ 2.850272 1 0 sctp 52 -------S 0 1.0 0.0 1 12 41 65535 65535
- 2.850272 1 0 sctp 52 -------S 0 1.0 0.0 1 12 41 65535 65535
r 2.874272 0 1 sctp 1500 -------D 0 0.0 1.0 1 16 32 0 15
+ 2.874272 1 0 sctp 52 -------S 0 1.0 0.0 1 12 42 65535 65535
- 2.874272 1 0 sctp 52 -------S 0 1.0 0.0 1 12 42 65535 65535
r 2.898272 0 1 sctp 1500 -------D 0 0.0 1.0 1 17 33 0 16
+ 2.898272 1 0 sctp 52 -------S 0 1.0 0.0 1 12 43 65535 65535
- 2.898272 1 0 sctp 52 -------S 0 1.0 0.0 1 12 43 65535 65535
r 2.922272 0 1 sctp 1500 -------D 0 0.0 1.0 1 18 34 0 17
+ 2.922272 1 0 sctp 52 -------S 0 1.0 0.0 1 12 44 65535 65535
- 2.922272 1 0 sctp 52 -------S 0 1.0 0.0 1 12 44 65535 65535
r 2.946272 0 1 sctp 1500 -------D 0 0.0 1.0 1 19 35 0 18
+ 2.946272 1 0 sctp 52 -------S 0 1.0 0.0 1 12 45 65535 65535
- 2.946272 1 0 sctp 52 -------S 0 1.0 0.0 1 12 45 65535 65535
r 2.970272 0 1 sctp 1500 -------D 0 0.0 1.0 1 20 36 0 19
+ 2.970272 1 0 sctp 52 -------S 0 1.0 0.0 1 12 46 65535 65535
- 2.970272 1 0 sctp 52 -------S 0 1.0 0.0 1 12 46 65535 65535
r 2.97904 1 0 sctp 48 -------S 0 1.0 0.0 1 10 38 65535 65535
+ 2.97904 0 1 sctp 1500 -------D 0 0.0 1.0 1 22 47 0 21
- 2.97904 0 1 sctp 1500 -------D 0 0.0 1.0 1 22 47 0 21
+ 2.97904 0 1 sctp 1500 -------D 0 0.0 1.0 1 23 48 0 22
r 2.994272 0 1 sctp 1500 -------D 0 0.0 1.0 1 21 37 0 20
+ 2.994272 1 0 sctp 52 -------S 0 1.0 0.0 1 12 49 65535 65535
- 2.994272 1 0 sctp 52 -------S 0 1.0 0.0 1 12 49 65535 65535
r 3.00304 1 0 sctp 48 -------S 0 1.0 0.0 1 11 39 65535 65535
+ 3.00304 0 1 sctp 1500 -------D 0 0.0 1.0 1 24 50 0 23
+ 3.00304 0 1 sctp 1500 -------D 0 0.0 1.0 1 25 51 0 24
- 3.00304 0 1 sctp 1500 -------D 0 0.0 1.0 1 23 48 0 22
r 3.02704 1 0 sctp 48 -------S 0 1.0 0.0 1 12 40 65535 65535
+ 3.02704 0 1 sctp 1500 -------D 0 0.0 1.0 1 26 52 0 25
+ 3.02704 0 1 sctp 1500 -------D 0 0.0 1.0 1 27 53 0 26
- 3.02704 0 1 sctp 1500 -------D 0 0.0 1.0 1 24 50 0 23
- 3.05104 0 1 sctp 1500 -------D 0 0.0 1.0 1 25 51 0 24
r 3.051104 1 0 sctp 52 -------S 0 1.0 0.0 1 12 41 65535 65535
+ 3.051104 0 1 sctp 1500 -------D 0 0.0 1.0 1 28 54 0 27
- 3.07504 0 1 sctp 1500 -------D 0 0.0 1.0 1 26 52 0 25
r 3.075104 1 0 sctp 52 -------S 0 1.0 0.0 1 12 42 65535 65535
+ 3.075104 0 1 sctp 1500 -------D 0 0.0 1.0 1 29 55 0 28
- 3.09904 0 1 sctp 1500 -------D 0 0.0 1.0 1 27 53 0 26
r 3.099104 1 0 sctp 52 -------S 0 1.0 0.0 1 12 43 65535 65535
d 3.099104 0 1 sctp 1500 -------D 0 0.0 1.0 1 13 56 0 12
- 3.12304 0 1 sctp 1500 -------D 0 0.0 1.0 1 28 54 0 27
r 3.123104 1 0 sctp 52 -------S 0 1.0 0.0 1 12 44 65535 65535
- 3.14704 0 1 sctp 1500 -------D 0 0.0 1.0 1 29 55 0 28
r 3.147104 1 0 sctp 52 -------S 0 1.0 0.0 1 12 45 65535 65535
r 3.171104 1 0 sctp 52 -------S 0 1.0 0.0 1 12 46 65535 65535
r 3.195104 1 0 sctp 52 -------S 0 1.0 0.0 1 12 49 65535 65535
r 3.20304 0 1 sctp 1500 -------D 0 0.0 1.0 1 22 47 0 21
+ 3.20304 1 0 sctp 52 -------S 0 1.0 0.0 1 12 57 65535 65535
- 3.20304 1 0 sctp 52 -------S 0 1.0 0.0 1 12 57 65535 65535
r 3.22704 0 1 sctp 1500 -------D 0 0.0 1.0 1 23 48 0 22
+ 3.22704 1 0 sctp 52 -------S 0 1.0 0.0 1 12 58 65535 65535
- 3.22704 1 0 sctp 52 -------S 0 1.0 0.0 1 12 58 65535 65535
r 3.25104 0 1 sctp 1500 -------D 0 0.0 1.0 1 24 50 0 23
+ 3.25104 1 0 sctp 52 -------S 0 1.0 0.0 1 12 59 65535 65535
- 3.25104 1 0 sctp 52 -------S 0 1.0 0.0 1 12 59 65535 65535
r 3.27504 0 1 sctp 1500 -------D 0 0.0 1.0 1 25 51 0 24
+ 3.27504 1 0 sctp 52 -------S 0 1.0 0.0 1 12 60 65535 65535
- 3.27504 1 0 sctp 52 -------S 0 1.0 0.0 1 12 60 65535 65535
r 3.29904 0 1 sctp 1500 -------D 0 0.0 1.0 1 26 52 0 25
+ 3.29904 1 0 sctp 52 -------S 0 1.0 0.0 1 12 61 65535 65535
- 3.29904 1 0 sctp 52 -------S 0 1.0 0.0 1 12 61 65535 65535
r 3.32304 0 1 sctp 1500 -------D 0 0.0 1.0 1 27 53 0 26
+ 3.32304 1 0 sctp 52 -------S 0 1.0 0.0 1 12 62 65535 65535
- 3.32304 1 0 sctp 52 -------S 0 1.0 0.0 1 12 62 65535 65535
r 3.34704 0 1 sctp 1500 -------D 0 0.0 1.0 1 28 54 0 27
+ 3.34704 1 0 sctp 52 -------S 0 1.0 0.0 1 12 63 65535 65535
- 3.34704 1 0 sctp 52 -------S 0 1.0 0.0 1 12 63 65535 65535
r 3.37104 0 1 sctp 1500 -------D 0 0.0 1.0 1 29 55 0 28
+ 3.37104 1 0 sctp 52 -------S 0 1.0 0.0 1 12 64 65535 65535
- 3.37104 1 0 sctp 52 -------S 0 1.0 0.0 1 12 64 65535 65535
r 3.403872 1 0 sctp 52 -------S 0 1.0 0.0 1 12 57 65535 65535
r 3.427872 1 0 sctp 52 -------S 0 1.0 0.0 1 12 58 65535 65535
d 3.427872 0 1 sctp 1500 -------D 0 0.0 1.0 1 14 65 0 13
r 3.451872 1 0 sctp 52 -------S 0 1.0 0.0 1 12 59 65535 65535
+ 3.451872 0 1 sctp 1500 -------D 0 0.0 1.0 1 30 66 0 29
- 3.451872 0 1 sctp 1500 -------D 0 0.0 1.0 1 30 66 0 29
r 3.475872 1 0 sctp 52 -------S 0 1.0 0.0 1 12 60 65535 65535
+ 3.475872 0 1 sctp 1500 -------D 0 0.0 1.0 1 31 67 0 30
- 3.475872 0 1 sctp 1500 -------D 0 0.0 1.0 1 31 67 0 30
r 3.499872 1 0 sctp 52 -------S 0 1.0 0.0 1 12 61 65535 65535
+ 3.499872 0 1 sctp 1500 -------D 0 0.0 1.0 1 32 68 0 31
- 3.499872 0 1 sctp 1500 -------D 0 0.0 1.0 1 32 68 0 31
r 3.523872 1 0 sctp 52 -------S 0 1.0 0.0 1 12 62 65535 65535
+ 3.523872 0 1 sctp 1500 -------D 0 0.0 1.0 1 33 69 0 32
- 3.523872 0 1 sctp 1500 -------D 0 0.0 1.0 1 33 69 0 32
r 3.547872 1 0 sctp 52 -------S 0 1.0 0.0 1 12 63 65535 65535
+ 3.547872 0 1 sctp 1500 -------D 0 0.0 1.0 1 34 70 0 33
- 3.547872 0 1 sctp 1500 -------D 0 0.0 1.0 1 34 70 0 33
r 3.571872 1 0 sctp 52 -------S 0 1.0 0.0 1 12 64 65535 65535
+ 3.571872 0 1 sctp 1500 -------D 0 0.0 1.0 1 35 71 0 34
- 3.571872 0 1 sctp 1500 -------D 0 0.0 1.0 1 35 71 0 34
r 3.675872 0 1 sctp 1500 -------D 0 0.0 1.0 1 30 66 0 29
+ 3.675872 1 0 sctp 52 -------S 0 1.0 0.0 1 12 72 65535 65535
- 3.675872 1 0 sctp 52 -------S 0 1.0 0.0 1 12 72 65535 65535
r 3.699872 0 1 sctp 1500 -------D 0 0.0 1.0 1 31 67 0 30
+ 3.699872 1 0 sctp 52 -------S 0 1.0 0.0 1 12 73 65535 65535
- 3.699872 1 0 sctp 52 -------S 0 1.0 0.0 1 12 73 65535 65535
r 3.723872 0 1 sctp 1500 -------D 0 0.0 1.0 1 32 68 0 31
+ 3.723872 1 0 sctp 52 -------S 0 1.0 0.0 1 12 74 65535 65535
- 3.723872 1 0 sctp 52 -------S 0 1.0 0.0 1 12 74 65535 65535
r 3.747872 0 1 sctp 1500 -------D 0 0.0 1.0 1 33 69 0 32
+ 3.747872 1 0 sctp 52 -------S 0 1.0 0.0 1 12 75 65535 65535
- 3.747872 1 0 sctp 52 -------S 0 1.0 0.0 1 12 75 65535 65535
r 3.771872 0 1 sctp 1500 -------D 0 0.0 1.0 1 34 70 0 33
+ 3.771872 1 0 sctp 52 -------S 0 1.0 0.0 1 12 76 65535 65535
- 3.771872 1 0 sctp 52 -------S 0 1.0 0.0 1 12 76 65535 65535
r 3.795872 0 1 sctp 1500 -------D 0 0.0 1.0 1 35 71 0 34
+ 3.795872 1 0 sctp 52 -------S 0 1.0 0.0 1 12 77 65535 65535
- 3.795872 1 0 sctp 52 -------S 0 1.0 0.0 1 12 77 65535 65535
r 3.876704 1 0 sctp 52 -------S 0 1.0 0.0 1 12 72 65535 65535
+ 3.876704 0 1 sctp 1500 -------D 0 0.0 1.0 1 36 78 0 35
- 3.876704 0 1 sctp 1500 -------D 0 0.0 1.0 1 36 78 0 35
r 3.900704 1 0 sctp 52 -------S 0 1.0 0.0 1 12 73 65535 65535
+ 3.900704 0 1 sctp 1500 -------D 0 0.0 1.0 1 37 79 0 36
- 3.900704 0 1 sctp 1500 -------D 0 0.0 1.0 1 37 79 0 36
r 3.924704 1 0 sctp 52 -------S 0 1.0 0.0 1 12 74 65535 65535
+ 3.924704 0 1 sctp 1500 -------D 0 0.0 1.0 1 38 80 0 37
- 3.924704 0 1 sctp 1500 -------D 0 0.0 1.0 1 38 80 0 37
r 3.948704 1 0 sctp 52 -------S 0 1.0 0.0 1 12 75 65535 65535
+ 3.948704 0 1 sctp 1500 -------D 0 0.0 1.0 1 39 81 0 38
- 3.948704 0 1 sctp 1500 -------D 0 0.0 1.0 1 39 81 0 38
r 3.972704 1 0 sctp 52 -------S 0 1.0 0.0 1 12 76 65535 65535
+ 3.972704 0 1 sctp 1500 -------D 0 0.0 1.0 1 40 82 0 39
- 3.972704 0 1 sctp 1500 -------D 0 0.0 1.0 1 40 82 0 39
r 3.996704 1 0 sctp 52 -------S 0 1.0 0.0 1 12 77 65535 65535
+ 3.996704 0 1 sctp 1500 -------D 0 0.0 1.0 1 41 83 0 40
- 3.996704 0 1 sctp 1500 -------D 0 0.0 1.0 1 41 83 0 40
+ 4.099104 0 1 sctp 1500 -------D 0 0.0 1.0 1 13 84 0 12
- 4.099104 0 1 sctp 1500 -------D 0 0.0 1.0 1 13 84 0 12
r 4.100704 0 1 sctp 1500 -------D 0 0.0 1.0 1 36 78 0 35
+ 4.100704 1 0 sctp 52 -------S 0 1.0 0.0 1 12 85 65535 65535
- 4.100704 1 0 sctp 52 -------S 0 1.0 0.0 1 12 85 65535 65535
r 4.124704 0 1 sctp 1500 -------D 0 0.0 1.0 1 37 79 0 36
+ 4.124704 1 0 sctp 52 -------S 0 1.0 0.0 1 12 86 65535 65535
- 4.124704 1 0 sctp 52 -------S 0 1.0 0.0 1 12 86 65535 65535
r 4.148704 0 1 sctp 1500 -------D 0 0.0 1.0 1 38 80 0 37
+ 4.148704 1 0 sctp 52 -------S 0 1.0 0.0 1 12 87 65535 65535
- 4.148704 1 0 sctp 52 -------S 0 1.0 0.0 1 12 87 65535 65535
r 4.172704 0 1 sctp 1500 -------D 0 0.0 1.0 1 39 81 0 38
+ 4.172704 1 0 sctp 52 -------S 0 1.0 0.0 1 12 88 65535 65535
- 4.172704 1 0 sctp 52 -------S 0 1.0 0.0 1 12 88 65535 65535
r 4.196704 0 1 sctp 1500 -------D 0 0.0 1.0 1 40 82 0 39
+ 4.196704 1 0 sctp 52 -------S 0 1.0 0.0 1 12 89 65535 65535
- 4.196704 1 0 sctp 52 -------S 0 1.0 0.0 1 12 89 65535 65535
r 4.220704 0 1 sctp 1500 -------D 0 0.0 1.0 1 41 83 0 40
+ 4.220704 1 0 sctp 52 -------S 0 1.0 0.0 1 12 90 65535 65535
- 4.220704 1 0 sctp 52 -------S 0 1.0 0.0 1 12 90 65535 65535
r 4.301536 1 0 sctp 52 -------S 0 1.0 0.0 1 12 85 65535 65535
r 4.323104 0 1 sctp 1500 -------D 0 0.0 1.0 1 13 84 0 12
+ 4.323104 1 0 sctp 52 -------S 0 1.0 0.0 1 13 91 65535 65535
- 4.323104 1 0 sctp 52 -------S 0 1.0 0.0 1 13 91 65535 65535
r 4.325536 1 0 sctp 52 -------S 0 1.0 0.0 1 12 86 65535 65535
r 4.349536 1 0 sctp 52 -------S 0 1.0 0.0 1 12 87 65535 65535
r 4.373536 1 0 sctp 52 -------S 0 1.0 0.0 1 12 88 65535 65535
r 4.397536 1 0 sctp 52 -------S 0 1.0 0.0 1 12 89 65535 65535
r 4.421536 1 0 sctp 52 -------S 0 1.0 0.0 1 12 90 65535 65535
r 4.523936 1 0 sctp 52 -------S 0 1.0 0.0 1 13 91 65535 65535
+ 4.523936 0 1 sctp 1500 -------D 0 0.0 1.0 1 14 92 0 13
- 4.523936 0 1 sctp 1500 -------D 0 0.0 1.0 1 14 92 0 13
r 4.747936 0 1 sctp 1500 -------D 0 0.0 1.0 1 14 92 0 13
+ 4.747936 1 0 sctp 48 -------S 0 1.0 0.0 1 41 93 65535 65535
- 4.747936 1 0 sctp 48 -------S 0 1.0 0.0 1 41 93 65535 65535
r 4.948704 1 0 sctp 48 -------S 0 1.0 0.0 1 41 93 65535 65535
+ 4.948704 0 1 sctp 1500 -------D 0 0.0 1.0 1 42 94 0 41
- 4.948704 0 1 sctp 1500 -------D 0 0.0 1.0 1 42 94 0 41
+ 4.948704 0 1 sctp 1500 -------D 0 0.0 1.0 1 43 95 0 42
- 4.972704 0 1 sctp 1500 -------D 0 0.0 1.0 1 43 95 0 42
r 5.172704 0 1 sctp 1500 -------D 0 0.0 1.0 1 42 94 0 41
+ 5.172704 1 0 sctp 48 -------S 0 1.0 0.0 1 42 96 65535 65535
- 5.172704 1 0 sctp 48 -------S 0 1.0 0.0 1 42 96 65535 65535
r 5.196704 0 1 sctp 1500 -------D 0 0.0 1.0 1 43 95 0 42
+ 5.196704 1 0 sctp 48 -------S 0 1.0 0.0 1 43 97 65535 65535
- 5.196704 1 0 sctp 48 -------S 0 1.0 0.0 1 43 97 65535 65535
r 5.373472 1 0 sctp 48 -------S 0 1.0 0.0 1 42 96 65535 65535
+ 5.373472 0 1 sctp 1500 -------D 0 0.0 1.0 1 44 98 0 43
- 5.373472 0 1 sctp 1500 -------D 0 0.0 1.0 1 44 98 0 43
+ 5.373472 0 1 sctp 1500 -------D 0 0.0 1.0 1 45 99 0 44
r 5.397472 1 0 sctp 48 -------S 0 1.0 0.0 1 43 97 65535 65535
+ 5.397472 0 1 sctp 1500 -------D 0 0.0 1.0 1 46 100 0 45
+ 5.397472 0 1 sctp 1500 -------D 0 0.0 1.0 1 47 101 0 46
- 5.397472 0 1 sctp 1500 -------D 0 0.0 1.0 1 45 99 0 44
- 5.421472 0 1 sctp 1500 -------D 0 0.0 1.0 1 46 100 0 45
- 5.445472 0 1 sctp 1500 -------D 0 0.0 1.0 1 47 101 0 46
r 5.597472 0 1 sctp 1500 -------D 0 0.0 1.0 1 44 98 0 43
+ 5.597472 1 0 sctp 48 -------S 0 1.0 0.0 1 44 102 65535 65535
- 5.597472 1 0 sctp 48 -------S 0 1.0 0.0 1 44 102 65535 65535
r 5.621472 0 1 sctp 1500 -------D 0 0.0 1.0 1 45 99 0 44
+ 5.621472 1 0 sctp 48 -------S 0 1.0 0.0 1 45 103 65535 65535
- 5.621472 1 0 sctp 48 -------S 0 1.0 0.0 1 45 103 65535 65535
r 5.645472 0 1 sctp 1500 -------D 0 0.0 1.0 1 46 100 0 45
+ 5.645472 1 0 sctp 48 -------S 0 1.0 0.0 1 46 104 65535 65535
- 5.645472 1 0 sctp 48 -------S 0 1.0 0.0 1 46 104 65535 65535
r 5.669472 0 1 sctp 1500 -------D 0 0.0 1.0 1 47 101 0 46
+ 5.669472 1 0 sctp 48 -------S 0 1.0 0.0 1 47 105 65535 65535
- 5.669472 1 0 sctp 48 -------S 0 1.0 0.0 1 47 105 65535 65535
r 5.79824 1 0 sctp 48 -------S 0 1.0 0.0 1 44 102 65535 65535
+ 5.79824 0 1 sctp 1500 -------D 0 0.0 1.0 1 48 106 0 47
- 5.79824 0 1 sctp 1500 -------D 0 0.0 1.0 1 48 106 0 47
+ 5.79824 0 1 sctp 1500 -------D 0 0.0 1.0 1 49 107 0 48
r 5.82224 1 0 sctp 48 -------S 0 1.0 0.0 1 45 103 65535 65535
+ 5.82224 0 1 sctp 1500 -------D 0 0.0 1.0 1 50 108 0 49
- 5.82224 0 1 sctp 1500 -------D 0 0.0 1.0 1 49 107 0 48
r 5.84624 1 0 sctp 48 -------S 0 1.0 0.0 1 46 104 65535 65535
+ 5.84624 0 1 sctp 1500 -------D 0 0.0 1.0 1 51 109 0 50
- 5.84624 0 1 sctp 1500 -------D 0 0.0 1.0 1 50 108 0 49
r 5.87024 1 0 sctp 48 -------S 0 1.0 0.0 1 47 105 65535 65535
+ 5.87024 0 1 sctp 1500 -------D 0 0.0 1.0 1 52 110 0 51
- 5.87024 0 1 sctp 1500 -------D 0 0.0 1.0 1 51 109 0 50
- 5.89424 0 1 sctp 1500 -------D 0 0.0 1.0 1 52 110 0 51
r 6.02224 0 1 sctp 1500 -------D 0 0.0 1.0 1 48 106 0 47
+ 6.02224 1 0 sctp 48 -------S 0 1.0 0.0 1 48 111 65535 65535
- 6.02224 1 0 sctp 48 -------S 0 1.0 0.0 1 48 111 65535 65535
r 6.04624 0 1 sctp 1500 -------D 0 0.0 1.0 1 49 107 0 48
+ 6.04624 1 0 sctp 48 -------S 0 1.0 0.0 1 49 112 65535 65535
- 6.04624 1 0 sctp 48 -------S 0 1.0 0.0 1 49 112 65535 65535
r 6.07024 0 1 sctp 1500 -------D 0 0.0 1.0 1 50 108 0 49
+ 6.07024 1 0 sctp 48 -------S 0 1.0 0.0 1 50 113 65535 65535
- 6.07024 1 0 sctp 48 -------S 0 1.0 0.0 1 50 113 65535 65535
r 6.09424 0 1 sctp 1500 -------D 0 0.0 1.0 1 51 109 0 50
+ 6.09424 1 0 sctp 48 -------S 0 1.0 0.0 1 51 114 65535 65535
- 6.09424 1 0 sctp 48 -------S 0 1.0 0.0 1 51 114 65535 65535
r 6.11824 0 1 sctp 1500 -------D 0 0.0 1.0 1 52 110 0 51
+ 6.11824 1 0 sctp 48 -------S 0 1.0 0.0 1 52 115 65535 65535
- 6.11824 1 0 sctp 48 -------S 0 1.0 0.0 1 52 115 65535 65535
r 6.223008 1 0 sctp 48 -------S 0 1.0 0.0 1 48 111 65535 65535
+ 6.223008 0 1 sctp 1500 -------D 0 0.0 1.0 1 53 116 0 52
- 6.223008 0 1 sctp 1500 -------D 0 0.0 1.0 1 53 116 0 52
r 6.247008 1 0 sctp 48 -------S 0 1.0 0.0 1 49 112 65535 65535
+ 6.247008 0 1 sctp 1500 -------D 0 0.0 1.0 1 54 117 0 53
+ 6.247008 0 1 sctp 1500 -------D 0 0.0 1.0 1 55 118 0 54
- 6.247008 0 1 sctp 1500 -------D 0 0.0 1.0 1 54 117 0 53
r 6.271008 1 0 sctp 48 -------S 0 1.0 0.0 1 50 113 65535 65535
+ 6.271008 0 1 sctp 1500 -------D 0 0.0 1.0 1 56 119 0 55
- 6.271008 0 1 sctp 1500 -------D 0 0.0 1.0 1 55 118 0 54
r 6.295008 1 0 sctp 48 -------S 0 1.0 0.0 1 51 114 65535 65535
+ 6.295008 0 1 sctp 1500 -------D 0 0.0 1.0 1 57 120 0 56
- 6.295008 0 1 sctp 1500 -------D 0 0.0 1.0 1 56 119 0 55
r 6.319008 1 0 sctp 48 -------S 0 1.0 0.0 1 52 115 65535 65535
+ 6.319008 0 1 sctp 1500 -------D 0 0.0 1.0 1 58 121 0 57
- 6.319008 0 1 sctp 1500 -------D 0 0.0 1.0 1 57 120 0 56
- 6.343008 0 1 sctp 1500 -------D 0 0.0 1.0 1 58 121 0 57
r 6.447008 0 1 sctp 1500 -------D 0 0.0 1.0 1 53 116 0 52
+ 6.447008 1 0 sctp 48 -------S 0 1.0 0.0 1 53 122 65535 65535
- 6.447008 1 0 sctp 48 -------S 0 1.0 0.0 1 53 122 65535 65535
r 6.471008 0 1 sctp 1500 -------D 0 0.0 1.0 1 54 117 0 53
+ 6.471008 1 0 sctp 48 -------S 0 1.0 0.0 1 54 123 65535 65535
- 6.471008 1 0 sctp 48 -------S 0 1.0 0.0 1 54 123 65535 65535
r 6.495008 0 1 sctp 1500 -------D 0 0.0 1.0 1 55 118 0 54
+ 6.495008 1 0 sctp 48 -------S 0 1.0 0.0 1 55 124 65535 65535
- 6.495008 1 0 sctp 48 -------S 0 1.0 0.0 1 55 124 65535 65535
r 6.519008 0 1 sctp 1500 -------D 0 0.0 1.0 1 56 119 0 55
+ 6.519008 1 0 sctp 48 -------S 0 1.0 0.0 1 56 125 65535 65535
- 6.519008 1 0 sctp 48 -------S 0 1.0 0.0 1 56 125 65535 65535
r 6.543008 0 1 sctp 1500 -------D 0 0.0 1.0 1 57 120 0 56
+ 6.543008 1 0 sctp 48 -------S 0 1.0 0.0 1 57 126 65535 65535
- 6.543008 1 0 sctp 48 -------S 0 1.0 0.0 1 57 126 65535 65535
r 6.567008 0 1 sctp 1500 -------D 0 0.0 1.0 1 58 121 0 57
+ 6.567008 1 0 sctp 48 -------S 0 1.0 0.0 1 58 127 65535 65535
- 6.567008 1 0 sctp 48 -------S 0 1.0 0.0 1 58 127 65535 65535
r 6.647776 1 0 sctp 48 -------S 0 1.0 0.0 1 53 122 65535 65535
+ 6.647776 0 1 sctp 1500 -------D 0 0.0 1.0 1 59 128 0 58
- 6.647776 0 1 sctp 1500 -------D 0 0.0 1.0 1 59 128 0 58
r 6.671776 1 0 sctp 48 -------S 0 1.0 0.0 1 54 123 65535 65535
+ 6.671776 0 1 sctp 1500 -------D 0 0.0 1.0 1 60 129 0 59
- 6.671776 0 1 sctp 1500 -------D 0 0.0 1.0 1 60 129 0 59
r 6.695776 1 0 sctp 48 -------S 0 1.0 0.0 1 55 124 65535 65535
+ 6.695776 0 1 sctp 1500 -------D 0 0.0 1.0 1 61 130 0 60
+ 6.695776 0 1 sctp 1500 -------D 0 0.0 1.0 1 62 131 0 61
- 6.695776 0 1 sctp 1500 -------D 0 0.0 1.0 1 61 130 0 60
r 6.719776 1 0 sctp 48 -------S 0 1.0 0.0 1 56 125 65535 65535
+ 6.719776 0 1 sctp 1500 -------D 0 0.0 1.0 1 63 132 0 62
- 6.719776 0 1 sctp 1500 -------D 0 0.0 1.0 1 62 131 0 61
r 6.743776 1 0 sctp 48 -------S 0 1.0 0.0 1 57 126 65535 65535
+ 6.743776 0 1 sctp 1500 -------D 0 0.0 1.0 1 64 133 0 63
- 6.743776 0 1 sctp 1500 -------D 0 0.0 1.0 1 63 132 0 62
r 6.767776 1 0 sctp 48 -------S 0 1.0 0.0 1 58 127 65535 65535
+ 6.767776 0 1 sctp 1500 -------D 0 0.0 1.0 1 65 134 0 64
- 6.767776 0 1 sctp 1500 -------D 0 0.0 1.0 1 64 133 0 63
- 6.791776 0 1 sctp 1500 -------D 0 0.0 1.0 1 65 134 0 64
r 6.871776 0 1 sctp 1500 -------D 0 0.0 1.0 1 59 128 0 58
+ 6.871776 1 0 sctp 48 -------S 0 1.0 0.0 1 59 135 65535 65535
- 6.871776 1 0 sctp 48 -------S 0 1.0 0.0 1 59 135 65535 65535
r 6.895776 0 1 sctp 1500 -------D 0 0.0 1.0 1 60 129 0 59
+ 6.895776 1 0 sctp 48 -------S 0 1.0 0.0 1 60 136 65535 65535
- 6.895776 1 0 sctp 48 -------S 0 1.0 0.0 1 60 136 65535 65535
r 6.919776 0 1 sctp 1500 -------D 0 0.0 1.0 1 61 130 0 60
+ 6.919776 1 0 sctp 48 -------S 0 1.0 0.0 1 61 137 65535 65535
- 6.919776 1 0 sctp 48 -------S 0 1.0 0.0 1 61 137 65535 65535
r 6.943776 0 1 sctp 1500 -------D 0 0.0 1.0 1 62 131 0 61
+ 6.943776 1 0 sctp 48 -------S 0 1.0 0.0 1 62 138 65535 65535
- 6.943776 1 0 sctp 48 -------S 0 1.0 0.0 1 62 138 65535 65535
r 6.967776 0 1 sctp 1500 -------D 0 0.0 1.0 1 63 132 0 62
+ 6.967776 1 0 sctp 48 -------S 0 1.0 0.0 1 63 139 65535 65535
- 6.967776 1 0 sctp 48 -------S 0 1.0 0.0 1 63 139 65535 65535
r 6.991776 0 1 sctp 1500 -------D 0 0.0 1.0 1 64 133 0 63
+ 6.991776 1 0 sctp 48 -------S 0 1.0 0.0 1 64 140 65535 65535
- 6.991776 1 0 sctp 48 -------S 0 1.0 0.0 1 64 140 65535 65535
r 7.015776 0 1 sctp 1500 -------D 0 0.0 1.0 1 65 134 0 64
+ 7.015776 1 0 sctp 48 -------S 0 1.0 0.0 1 65 141 65535 65535
- 7.015776 1 0 sctp 48 -------S 0 1.0 0.0 1 65 141 65535 65535
r 7.072544 1 0 sctp 48 -------S 0 1.0 0.0 1 59 135 65535 65535
+ 7.072544 0 1 sctp 1500 -------D 0 0.0 1.0 1 66 142 0 65
- 7.072544 0 1 sctp 1500 -------D 0 0.0 1.0 1 66 142 0 65
r 7.096544 1 0 sctp 48 -------S 0 1.0 0.0 1 60 136 65535 65535
+ 7.096544 0 1 sctp 1500 -------D 0 0.0 1.0 1 67 143 0 66
- 7.096544 0 1 sctp 1500 -------D 0 0.0 1.0 1 67 143 0 66
r 7.120544 1 0 sctp 48 -------S 0 1.0 0.0 1 61 137 65535 65535
+ 7.120544 0 1 sctp 1500 -------D 0 0.0 1.0 1 68 144 0 67
- 7.120544 0 1 sctp 1500 -------D 0 0.0 1.0 1 68 144 0 67
r 7.144544 1 0 sctp 48 -------S 0 1.0 0.0 1 62 138 65535 65535
+ 7.144544 0 1 sctp 1500 -------D 0 0.0 1.0 1 69 145 0 68
+ 7.144544 0 1 sctp 1500 -------D 0 0.0 1.0 1 70 146 0 69
- 7.144544 0 1 sctp 1500 -------D 0 0.0 1.0 1 69 145 0 68
r 7.168544 1 0 sctp 48 -------S 0 1.0 0.0 1 63 139 65535 65535
+ 7.168544 0 1 sctp 1500 -------D 0 0.0 1.0 1 71 147 0 70
- 7.168544 0 1 sctp 1500 -------D 0 0.0 1.0 1 70 146 0 69
r 7.192544 1 0 sctp 48 -------S 0 1.0 0.0 1 64 140 65535 65535
+ 7.192544 0 1 sctp 1500 -------D 0 0.0 1.0 1 72 148 0 71
- 7.192544 0 1 sctp 1500 -------D 0 0.0 1.0 1 71 147 0 70
r 7.216544 1 0 sctp 48 -------S 0 1.0 0.0 1 65 141 65535 65535
+ 7.216544 0 1 sctp 1500 -------D 0 0.0 1.0 1 73 149 0 72
- 7.216544 0 1 sctp 1500 -------D 0 0.0 1.0 1 72 148 0 71
- 7.240544 0 1 sctp 1500 -------D 0 0.0 1.0 1 73 149 0 72
r 7.296544 0 1 sctp 1500 -------D 0 0.0 1.0 1 66 142 0 65
+ 7.296544 1 0 sctp 48 -------S 0 1.0 0.0 1 66 150 65535 65535
- 7.296544 1 0 sctp 48 -------S 0 1.0 0.0 1 66 150 65535 65535
r 7.320544 0 1 sctp 1500 -------D 0 0.0 1.0 1 67 143 0 66
+ 7.320544 1 0 sctp 48 -------S 0 1.0 0.0 1 67 151 65535 65535
- 7.320544 1 0 sctp 48 -------S 0 1.0 0.0 1 67 151 65535 65535
r 7.344544 0 1 sctp 1500 -------D 0 0.0 1.0 1 68 144 0 67
+ 7.344544 1 0 sctp 48 -------S 0 1.0 0.0 1 68 152 65535 65535
- 7.344544 1 0 sctp 48 -------S 0 1.0 0.0 1 68 152 65535 65535
r 7.368544 0 1 sctp 1500 -------D 0 0.0 1.0 1 69 145 0 68
+ 7.368544 1 0 sctp 48 -------S 0 1.0 0.0 1 69 153 65535 65535
- 7.368544 1 0 sctp 48 -------S 0 1.0 0.0 1 69 153 65535 65535
r 7.392544 0 1 sctp 1500 -------D 0 0.0 1.0 1 70 146 0 69
+ 7.392544 1 0 sctp 48 -------S 0 1.0 0.0 1 70 154 65535 65535
- 7.392544 1 0 sctp 48 -------S 0 1.0 0.0 1 70 154 65535 65535
r 7.416544 0 1 sctp 1500 -------D 0 0.0 1.0 1 71 147 0 70
+ 7.416544 1 0 sctp 48 -------S 0 1.0 0.0 1 71 155 65535 65535
- 7.416544 1 0 sctp 48 -------S 0 1.0 0.0 1 71 155 65535 65535
r 7.440544 0 1 sctp 1500 -------D 0 0.0 1.0 1 72 148 0 71
+ 7.440544 1 0 sctp 48 -------S 0 1.0 0.0 1 72 156 65535 65535
- 7.440544 1 0 sctp 48 -------S 0 1.0 0.0 1 72 156 65535 65535
r 7.464544 0 1 sctp 1500 -------D 0 0.0 1.0 1 73 149 0 72
+ 7.464544 1 0 sctp 48 -------S 0 1.0 0.0 1 73 157 65535 65535
- 7.464544 1 0 sctp 48 -------S 0 1.0 0.0 1 73 157 65535 65535
r 7.497312 1 0 sctp 48 -------S 0 1.0 0.0 1 66 150 65535 65535
+ 7.497312 0 1 sctp 1500 -------D 0 0.0 1.0 1 74 158 0 73
- 7.497312 0 1 sctp 1500 -------D 0 0.0 1.0 1 74 158 0 73
r 7.521312 1 0 sctp 48 -------S 0 1.0 0.0 1 67 151 65535 65535
+ 7.521312 0 1 sctp 1500 -------D 0 0.0 1.0 1 75 159 0 74
- 7.521312 0 1 sctp 1500 -------D 0 0.0 1.0 1 75 159 0 74
r 7.545312 1 0 sctp 48 -------S 0 1.0 0.0 1 68 152 65535 65535
+ 7.545312 0 1 sctp 1500 -------D 0 0.0 1.0 1 76 160 0 75
- 7.545312 0 1 sctp 1500 -------D 0 0.0 1.0 1 76 160 0 75
r 7.569312 1 0 sctp 48 -------S 0 1.0 0.0 1 69 153 65535 65535
+ 7.569312 0 1 sctp 1500 -------D 0 0.0 1.0 1 77 161 0 76
- 7.569312 0 1 sctp 1500 -------D 0 0.0 1.0 1 77 161 0 76
r 7.593312 1 0 sctp 48 -------S 0 1.0 0.0 1 70 154 65535 65535
+ 7.593312 0 1 sctp 1500 -------D 0 0.0 1.0 1 78 162 0 77
+ 7.593312 0 1 sctp 1500 -------D 0 0.0 1.0 1 79 163 0 78
- 7.593312 0 1 sctp 1500 -------D 0 0.0 1.0 1 78 162 0 77
r 7.617312 1 0 sctp 48 -------S 0 1.0 0.0 1 71 155 65535 65535
+ 7.617312 0 1 sctp 1500 -------D 0 0.0 1.0 1 80 164 0 79
- 7.617312 0 1 sctp 1500 -------D 0 0.0 1.0 1 79 163 0 78
r 7.641312 1 0 sctp 48 -------S 0 1.0 0.0 1 72 156 65535 65535
+ 7.641312 0 1 sctp 1500 -------D 0 0.0 1.0 1 81 165 0 80
- 7.641312 0 1 sctp 1500 -------D 0 0.0 1.0 1 80 164 0 79
r 7.665312 1 0 sctp 48 -------S 0 1.0 0.0 1 73 157 65535 65535
+ 7.665312 0 1 sctp 1500 -------D 0 0.0 1.0 1 82 166 0 81
- 7.665312 0 1 sctp 1500 -------D 0 0.0 1.0 1 81 165 0 80
- 7.689312 0 1 sctp 1500 -------D 0 0.0 1.0 1 82 166 0 81
r 7.721312 0 1 sctp 1500 -------D 0 0.0 1.0 1 74 158 0 73
+ 7.721312 1 0 sctp 48 -------S 0 1.0 0.0 1 74 167 65535 65535
- 7.721312 1 0 sctp 48 -------S 0 1.0 0.0 1 74 167 65535 65535
r 7.745312 0 1 sctp 1500 -------D 0 0.0 1.0 1 75 159 0 74
+ 7.745312 1 0 sctp 48 -------S 0 1.0 0.0 1 75 168 65535 65535
- 7.745312 1 0 sctp 48 -------S 0 1.0 0.0 1 75 168 65535 65535
r 7.769312 0 1 sctp 1500 -------D 0 0.0 1.0 1 76 160 0 75
+ 7.769312 1 0 sctp 48 -------S 0 1.0 0.0 1 76 169 65535 65535
- 7.769312 1 0 sctp 48 -------S 0 1.0 0.0 1 76 169 65535 65535
r 7.793312 0 1 sctp 1500 -------D 0 0.0 1.0 1 77 161 0 76
+ 7.793312 1 0 sctp 48 -------S 0 1.0 0.0 1 77 170 65535 65535
- 7.793312 1 0 sctp 48 -------S 0 1.0 0.0 1 77 170 65535 65535
r 7.817312 0 1 sctp 1500 -------D 0 0.0 1.0 1 78 162 0 77
+ 7.817312 1 0 sctp 48 -------S 0 1.0 0.0 1 78 171 65535 65535
- 7.817312 1 0 sctp 48 -------S 0 1.0 0.0 1 78 171 65535 65535
r 7.841312 0 1 sctp 1500 -------D 0 0.0 1.0 1 79 163 0 78
+ 7.841312 1 0 sctp 48 -------S 0 1.0 0.0 1 79 172 65535 65535
- 7.841312 1 0 sctp 48 -------S 0 1.0 0.0 1 79 172 65535 65535
r 7.865312 0 1 sctp 1500 -------D 0 0.0 1.0 1 80 164 0 79
+ 7.865312 1 0 sctp 48 -------S 0 1.0 0.0 1 80 173 65535 65535
- 7.865312 1 0 sctp 48 -------S 0 1.0 0.0 1 80 173 65535 65535
r 7.889312 0 1 sctp 1500 -------D 0 0.0 1.0 1 81 165 0 80
+ 7.889312 1 0 sctp 48 -------S 0 1.0 0.0 1 81 174 65535 65535
- 7.889312 1 0 sctp 48 -------S 0 1.0 0.0 1 81 174 65535 65535
r 7.913312 0 1 sctp 1500 -------D 0 0.0 1.0 1 82 166 0 81