+ 0.5 0 1 sctp 56 -------I 0 0.0 1.0 1 -1 2 65535 65535
- 0.5 0 1 sctp 56 -------I 0 0.0 1.0 1 -1 2 65535 65535
r 0.700896 0 1 sctp 56 -------I 0 0.0 1.0 1 -1 2 65535 65535
+ 0.700896 1 0 sctp 56 -------I 0 1.0 0.0 1 -1 3 65535 65535
- 0.700896 1 0 sctp 56 -------I 0 1.0 0.0 1 -1 3 65535 65535
r 0.901792 1 0 sctp 56 -------I 0 1.0 0.0 1 -1 3 65535 65535
+ 0.901792 0 1 sctp 36 -------I 0 0.0 1.0 1 -1 4 65535 65535
- 0.901792 0 1 sctp 36 -------I 0 0.0 1.0 1 -1 4 65535 65535
r 1.102368 0 1 sctp 36 -------I 0 0.0 1.0 1 -1 4 65535 65535
+ 1.102368 1 0 sctp 36 -------I 0 1.0 0.0 1 -1 5 65535 65535
- 1.102368 1 0 sctp 36 -------I 0 1.0 0.0 1 -1 5 65535 65535
r 1.302944 1 0 sctp 36 -------I 0 1.0 0.0 1 -1 5 65535 65535
+ 1.302944 0 1 sctp 56 -------H 0 0.0 1.0 1 -1 6 65535 65535
- 1.302944 0 1 sctp 56 -------H 0 0.0 1.0 1 -1 6 65535 65535
r 1.50384 0 1 sctp 56 -------H 0 0.0 1.0 1 -1 6 65535 65535
+ 1.50384 1 0 sctp 56 -------B 0 1.0 0.0 1 -1 7 65535 65535
- 1.50384 1 0 sctp 56 -------B 0 1.0 0.0 1 -1 7 65535 65535
r 1.704736 1 0 sctp 56 -------B 0 1.0 0.0 1 -1 7 65535 65535
+ 1.704736 0 1 sctp 1500 -------D 0 0.0 1.0 1 1 8 0 0
- 1.704736 0 1 sctp 1500 -------D 0 0.0 1.0 1 1 8 0 0
+ 1.704736 0 1 sctp 1500 -------D 0 0.0 1.0 1 2 9 0 1
+ 1.704736 0 1 sctp 1500 -------D 0 0.0 1.0 1 3 10 0 2
- 1.728736 0 1 sctp 1500 -------D 0 0.0 1.0 1 2 9 0 1
- 1.752736 0 1 sctp 1500 -------D 0 0.0 1.0 1 3 10 0 2
r 1.928736 0 1 sctp 1500 -------D 0 0.0 1.0 1 1 8 0 0
+ 1.928736 1 0 sctp 48 -------S 0 1.0 0.0 1 1 11 65535 65535
- 1.928736 1 0 sctp 48 -------S 0 1.0 0.0 1 1 11 65535 65535
r 1.952736 0 1 sctp 1500 -------D 0 0.0 1.0 1 2 9 0 1
+ 1.952736 1 0 sctp 48 -------S 0 1.0 0.0 1 2 12 65535 65535
- 1.952736 1 0 sctp 48 -------S 0 1.0 0.0 1 2 12 65535 65535
r 1.976736 0 1 sctp 1500 -------D 0 0.0 1.0 1 3 10 0 2
+ 1.976736 1 0 sctp 48 -------S 0 1.0 0.0 1 3 13 65535 65535
- 1.976736 1 0 sctp 48 -------S 0 1.0 0.0 1 3 13 65535 65535
r 2.129504 1 0 sctp 48 -------S 0 1.0 0.0 1 1 11 65535 65535
+ 2.129504 0 1 sctp 1500 -------D 0 0.0 1.0 1 4 14 0 3
- 2.129504 0 1 sctp 1500 -------D 0 0.0 1.0 1 4 14 0 3
+ 2.129504 0 1 sctp 1500 -------D 0 0.0 1.0 1 5 15 0 4
r 2.153504 1 0 sctp 48 -------S 0 1.0 0.0 1 2 12 65535 65535
+ 2.153504 0 1 sctp 1500 -------D 0 0.0 1.0 1 6 16 0 5
+ 2.153504 0 1 sctp 1500 -------D 0 0.0 1.0 1 7 17 0 6
- 2.153504 0 1 sctp 1500 -------D 0 0.0 1.0 1 5 15 0 4
r 2.177504 1 0 sctp 48 -------S 0 1.0 0.0 1 3 13 65535 65535
+ 2.177504 0 1 sctp 1500 -------D 0 0.0 1.0 1 8 18 0 7
d 2.177504 0 1 sctp 1500 -------D 0 0.0 1.0 1 9 19 0 8
- 2.177504 0 1 sctp 1500 -------D 0 0.0 1.0 1 6 16 0 5
- 2.201504 0 1 sctp 1500 -------D 0 0.0 1.0 1 7 17 0 6
- 2.225504 0 1 sctp 1500 -------D 0 0.0 1.0 1 8 18 0 7
r 2.353504 0 1 sctp 1500 -------D 0 0.0 1.0 1 4 14 0 3
+ 2.353504 1 0 sctp 48 -------S 0 1.0 0.0 1 4 20 65535 65535
- 2.353504 1 0 sctp 48 -------S 0 1.0 0.0 1 4 20 65535 65535
r 2.377504 0 1 sctp 1500 -------D 0 0.0 1.0 1 5 15 0 4
+ 2.377504 1 0 sctp 48 -------S 0 1.0 0.0 1 5 21 65535 65535
- 2.377504 1 0 sctp 48 -------S 0 1.0 0.0 1 5 21 65535 65535
r 2.401504 0 1 sctp 1500 -------D 0 0.0 1.0 1 6 16 0 5
+ 2.401504 1 0 sctp 48 -------S 0 1.0 0.0 1 6 22 65535 65535
- 2.401504 1 0 sctp 48 -------S 0 1.0 0.0 1 6 22 65535 65535
r 2.425504 0 1 sctp 1500 -------D 0 0.0 1.0 1 7 17 0 6
+ 2.425504 1 0 sctp 48 -------S 0 1.0 0.0 1 7 23 65535 65535
- 2.425504 1 0 sctp 48 -------S 0 1.0 0.0 1 7 23 65535 65535
r 2.449504 0 1 sctp 1500 -------D 0 0.0 1.0 1 8 18 0 7
+ 2.449504 1 0 sctp 48 -------S 0 1.0 0.0 1 8 24 65535 65535
- 2.449504 1 0 sctp 48 -------S 0 1.0 0.0 1 8 24 65535 65535
r 2.554272 1 0 sctp 48 -------S 0 1.0 0.0 1 4 20 65535 65535
+ 2.554272 0 1 sctp 1500 -------D 0 0.0 1.0 1 10 25 0 9
- 2.554272 0 1 sctp 1500 -------D 0 0.0 1.0 1 10 25 0 9
+ 2.554272 0 1 sctp 1500 -------D 0 0.0 1.0 1 11 26 0 10
r 2.578272 1 0 sctp 48 -------S 0 1.0 0.0 1 5 21 65535 65535
+ 2.578272 0 1 sctp 1500 -------D 0 0.0 1.0 1 12 27 0 11
+ 2.578272 0 1 sctp 1500 -------D 0 0.0 1.0 1 13 28 0 12
- 2.578272 0 1 sctp 1500 -------D 0 0.0 1.0 1 11 26 0 10
r 2.602272 1 0 sctp 48 -------S 0 1.0 0.0 1 6 22 65535 65535
+ 2.602272 0 1 sctp 1500 -------D 0 0.0 1.0 1 14 29 0 13
+ 2.602272 0 1 sctp 1500 -------D 0 0.0 1.0 1 15 30 0 14
- 2.602272 0 1 sctp 1500 -------D 0 0.0 1.0 1 12 27 0 11
r 2.626272 1 0 sctp 48 -------S 0 1.0 0.0 1 7 23 65535 65535
+ 2.626272 0 1 sctp 1500 -------D 0 0.0 1.0 1 16 31 0 15
+ 2.626272 0 1 sctp 1500 -------D 0 0.0 1.0 1 17 32 0 16
- 2.626272 0 1 sctp 1500 -------D 0 0.0 1.0 1 13 28 0 12
r 2.650272 1 0 sctp 48 -------S 0 1.0 0.0 1 8 24 65535 65535
+ 2.650272 0 1 sctp 1500 -------D 0 0.0 1.0 1 18 33 0 17
+ 2.650272 0 1 sctp 1500 -------D 0 0.0 1.0 1 19 34 0 18
- 2.650272 0 1 sctp 1500 -------D 0 0.0 1.0 1 14 29 0 13
- 2.674272 0 1 sctp 1500 -------D 0 0.0 1.0 1 15 30 0 14
- 2.698272 0 1 sctp 1500 -------D 0 0.0 1.0 1 16 31 0 15
- 2.722272 0 1 sctp 1500 -------D 0 0.0 1.0 1 17 32 0 16
- 2.746272 0 1 sctp 1500 -------D 0 0.0 1.0 1 18 33 0 17
- 2.770272 0 1 sctp 1500 -------D 0 0.0 1.0 1 19 34 0 18
r 2.778272 0 1 sctp 1500 -------D 0 0.0 1.0 1 10 25 0 9
+ 2.778272 1 0 sctp 52 -------S 0 1.0 0.0 1 8 35 65535 65535
- 2.778272 1 0 sctp 52 -------S 0 1.0 0.0 1 8 35 65535 65535
r 2.802272 0 1 sctp 1500 -------D 0 0.0 1.0 1 11 26 0 10
+ 2.802272 1 0 sctp 52 -------S 0 1.0 0.0 1 8 36 65535 65535
- 2.802272 1 0 sctp 52 -------S 0 1.0 0.0 1 8 36 65535 65535
r 2.826272 0 1 sctp 1500 -------D 0 0.0 1.0 1 12 27 0 11
+ 2.826272 1 0 sctp 52 -------S 0 1.0 0.0 1 8 37 65535 65535
- 2.826272 1 0 sctp 52 -------S 0 1.0 0.0 1 8 37 65535 65535
r 2.850272 0 1 sctp 1500 -------D 0 0.0 1.0 1 13 28 0 12
+ 2.850272 1 0 sctp 52 -------S 0 1.0 0.0 1 8 38 65535 65535
- 2.850272 1 0 sctp 52 -------S 0 1.0 0.0 1 8 38 65535 65535
r 2.874272 0 1 sctp 1500 -------D 0 0.0 1.0 1 14 29 0 13
+ 2.874272 1 0 sctp 52 -------S 0 1.0 0.0 1 8 39 65535 65535
- 2.874272 1 0 sctp 52 -------S 0 1.0 0.0 1 8 39 65535 65535
r 2.898272 0 1 sctp 1500 -------D 0 0.0 1.0 1 15 30 0 14
+ 2.898272 1 0 sctp 52 -------S 0 1.0 0.0 1 8 40 65535 65535
- 2.898272 1 0 sctp 52 -------S 0 1.0 0.0 1 8 40 65535 65535
r 2.922272 0 1 sctp 1500 -------D 0 0.0 1.0 1 16 31 0 15
+ 2.922272 1 0 sctp 52 -------S 0 1.0 0.0 1 8 41 65535 65535
- 2.922272 1 0 sctp 52 -------S 0 1.0 0.0 1 8 41 65535 65535
r 2.946272 0 1 sctp 1500 -------D 0 0.0 1.0 1 17 32 0 16
+ 2.946272 1 0 sctp 52 -------S 0 1.0 0.0 1 8 42 65535 65535
- 2.946272 1 0 sctp 52 -------S 0 1.0 0.0 1 8 42 65535 65535
r 2.970272 0 1 sctp 1500 -------D 0 0.0 1.0 1 18 33 0 17
+ 2.970272 1 0 sctp 52 -------S 0 1.0 0.0 1 8 43 65535 65535
- 2.970272 1 0 sctp 52 -------S 0 1.0 0.0 1 8 43 65535 65535
r 2.979104 1 0 sctp 52 -------S 0 1.0 0.0 1 8 35 65535 65535
+ 2.979104 0 1 sctp 1500 -------D 0 0.0 1.0 1 20 44 0 19
- 2.979104 0 1 sctp 1500 -------D 0 0.0 1.0 1 20 44 0 19
r 2.994272 0 1 sctp 1500 -------D 0 0.0 1.0 1 19 34 0 18
+ 2.994272 1 0 sctp 52 -------S 0 1.0 0.0 1 8 45 65535 65535
- 2.994272 1 0 sctp 52 -------S 0 1.0 0.0 1 8 45 65535 65535
r 3.003104 1 0 sctp 52 -------S 0 1.0 0.0 1 8 36 65535 65535
+ 3.003104 0 1 sctp 1500 -------D 0 0.0 1.0 1 21 46 0 20
- 3.003104 0 1 sctp 1500 -------D 0 0.0 1.0 1 21 46 0 20
r 3.027104 1 0 sctp 52 -------S 0 1.0 0.0 1 8 37 65535 65535
+ 3.027104 0 1 sctp 1500 -------D 0 0.0 1.0 1 9 47 0 8
- 3.027104 0 1 sctp 1500 -------D 0 0.0 1.0 1 9 47 0 8
r 3.051104 1 0 sctp 52 -------S 0 1.0 0.0 1 8 38 65535 65535
r 3.075104 1 0 sctp 52 -------S 0 1.0 0.0 1 8 39 65535 65535
r 3.099104 1 0 sctp 52 -------S 0 1.0 0.0 1 8 40 65535 65535
r 3.123104 1 0 sctp 52 -------S 0 1.0 0.0 1 8 41 65535 65535
r 3.147104 1 0 sctp 52 -------S 0 1.0 0.0 1 8 42 65535 65535
+ 3.147104 0 1 sctp 1500 -------D 0 0.0 1.0 1 22 48 0 21
- 3.147104 0 1 sctp 1500 -------D 0 0.0 1.0 1 22 48 0 21
r 3.171104 1 0 sctp 52 -------S 0 1.0 0.0 1 8 43 65535 65535
+ 3.171104 0 1 sctp 1500 -------D 0 0.0 1.0 1 23 49 0 22
- 3.171104 0 1 sctp 1500 -------D 0 0.0 1.0 1 23 49 0 22
r 3.195104 1 0 sctp 52 -------S 0 1.0 0.0 1 8 45 65535 65535
+ 3.195104 0 1 sctp 1500 -------D 0 0.0 1.0 1 24 50 0 23
- 3.195104 0 1 sctp 1500 -------D 0 0.0 1.0 1 24 50 0 23
r 3.203104 0 1 sctp 1500 -------D 0 0.0 1.0 1 20 44 0 19
+ 3.203104 1 0 sctp 52 -------S 0 1.0 0.0 1 8 51 65535 65535
- 3.203104 1 0 sctp 52 -------S 0 1.0 0.0 1 8 51 65535 65535
r 3.227104 0 1 sctp 1500 -------D 0 0.0 1.0 1 21 46 0 20
+ 3.227104 1 0 sctp 52 -------S 0 1.0 0.0 1 8 52 65535 65535
- 3.227104 1 0 sctp 52 -------S 0 1.0 0.0 1 8 52 65535 65535
r 3.251104 0 1 sctp 1500 -------D 0 0.0 1.0 1 9 47 0 8
+ 3.251104 1 0 sctp 48 -------S 0 1.0 0.0 1 21 53 65535 65535
- 3.251104 1 0 sctp 48 -------S 0 1.0 0.0 1 21 53 65535 65535
r 3.371104 0 1 sctp 1500 -------D 0 0.0 1.0 1 22 48 0 21
+ 3.371104 1 0 sctp 48 -------S 0 1.0 0.0 1 22 54 65535 65535
- 3.371104 1 0 sctp 48 -------S 0 1.0 0.0 1 22 54 65535 65535
r 3.395104 0 1 sctp 1500 -------D 0 0.0 1.0 1 23 49 0 22
+ 3.395104 1 0 sctp 48 -------S 0 1.0 0.0 1 23 55 65535 65535
- 3.395104 1 0 sctp 48 -------S 0 1.0 0.0 1 23 55 65535 65535
r 3.403936 1 0 sctp 52 -------S 0 1.0 0.0 1 8 51 65535 65535
+ 3.403936 0 1 sctp 1500 -------D 0 0.0 1.0 1 25 56 0 24
- 3.403936 0 1 sctp 1500 -------D 0 0.0 1.0 1 25 56 0 24
r 3.419104 0 1 sctp 1500 -------D 0 0.0 1.0 1 24 50 0 23
+ 3.419104 1 0 sctp 48 -------S 0 1.0 0.0 1 24 57 65535 65535
- 3.419104 1 0 sctp 48 -------S 0 1.0 0.0 1 24 57 65535 65535
r 3.427936 1 0 sctp 52 -------S 0 1.0 0.0 1 8 52 65535 65535
+ 3.427936 0 1 sctp 1500 -------D 0 0.0 1.0 1 26 58 0 25
- 3.427936 0 1 sctp 1500 -------D 0 0.0 1.0 1 26 58 0 25
r 3.451872 1 0 sctp 48 -------S 0 1.0 0.0 1 21 53 65535 65535
+ 3.451872 0 1 sctp 1500 -------D 0 0.0 1.0 1 27 59 0 26
+ 3.451872 0 1 sctp 1500 -------D 0 0.0 1.0 1 28 60 0 27
- 3.451936 0 1 sctp 1500 -------D 0 0.0 1.0 1 27 59 0 26
- 3.475936 0 1 sctp 1500 -------D 0 0.0 1.0 1 28 60 0 27
r 3.571872 1 0 sctp 48 -------S 0 1.0 0.0 1 22 54 65535 65535
+ 3.571872 0 1 sctp 1500 -------D 0 0.0 1.0 1 29 61 0 28
- 3.571872 0 1 sctp 1500 -------D 0 0.0 1.0 1 29 61 0 28
r 3.595872 1 0 sctp 48 -------S 0 1.0 0.0 1 23 55 65535 65535
+ 3.595872 0 1 sctp 1500 -------D 0 0.0 1.0 1 30 62 0 29
- 3.595872 0 1 sctp 1500 -------D 0 0.0 1.0 1 30 62 0 29
r 3.619872 1 0 sctp 48 -------S 0 1.0 0.0 1 24 57 65535 65535
+ 3.619872 0 1 sctp 1500 -------D 0 0.0 1.0 1 31 63 0 30
- 3.619872 0 1 sctp 1500 -------D 0 0.0 1.0 1 31 63 0 30
r 3.627936 0 1 sctp 1500 -------D 0 0.0 1.0 1 25 56 0 24
+ 3.627936 1 0 sctp 48 -------S 0 1.0 0.0 1 25 64 65535 65535
- 3.627936 1 0 sctp 48 -------S 0 1.0 0.0 1 25 64 65535 65535
r 3.651936 0 1 sctp 1500 -------D 0 0.0 1.0 1 26 58 0 25
+ 3.651936 1 0 sctp 48 -------S 0 1.0 0.0 1 26 65 65535 65535
- 3.651936 1 0 sctp 48 -------S 0 1.0 0.0 1 26 65 65535 65535
r 3.675936 0 1 sctp 1500 -------D 0 0.0 1.0 1 27 59 0 26
+ 3.675936 1 0 sctp 48 -------S 0 1.0 0.0 1 27 66 65535 65535
- 3.675936 1 0 sctp 48 -------S 0 1.0 0.0 1 27 66 65535 65535
r 3.699936 0 1 sctp 1500 -------D 0 0.0 1.0 1 28 60 0 27
+ 3.699936 1 0 sctp 48 -------S 0 1.0 0.0 1 28 67 65535 65535
- 3.699936 1 0 sctp 48 -------S 0 1.0 0.0 1 28 67 65535 65535
r 3.795872 0 1 sctp 1500 -------D 0 0.0 1.0 1 29 61 0 28
+ 3.795872 1 0 sctp 48 -------S 0 1.0 0.0 1 29 68 65535 65535
- 3.795872 1 0 sctp 48 -------S 0 1.0 0.0 1 29 68 65535 65535
r 3.819872 0 1 sctp 1500 -------D 0 0.0 1.0 1 30 62 0 29
+ 3.819872 1 0 sctp 48 -------S 0 1.0 0.0 1 30 69 65535 65535
- 3.819872 1 0 sctp 48 -------S 0 1.0 0.0 1 30 69 65535 65535
r 3.828704 1 0 sctp 48 -------S 0 1.0 0.0 1 25 64 65535 65535
+ 3.828704 0 1 sctp 1500 -------D 0 0.0 1.0 1 32 70 0 31
- 3.828704 0 1 sctp 1500 -------D 0 0.0 1.0 1 32 70 0 31
r 3.843872 0 1 sctp 1500 -------D 0 0.0 1.0 1 31 63 0 30
+ 3.843872 1 0 sctp 48 -------S 0 1.0 0.0 1 31 71 65535 65535
- 3.843872 1 0 sctp 48 -------S 0 1.0 0.0 1 31 71 65535 65535
r 3.852704 1 0 sctp 48 -------S 0 1.0 0.0 1 26 65 65535 65535
+ 3.852704 0 1 sctp 1500 -------D 0 0.0 1.0 1 33 72 0 32
- 3.852704 0 1 sctp 1500 -------D 0 0.0 1.0 1 33 72 0 32
r 3.876704 1 0 sctp 48 -------S 0 1.0 0.0 1 27 66 65535 65535
+ 3.876704 0 1 sctp 1500 -------D 0 0.0 1.0 1 34 73 0 33
- 3.876704 0 1 sctp 1500 -------D 0 0.0 1.0 1 34 73 0 33
r 3.900704 1 0 sctp 48 -------S 0 1.0 0.0 1 28 67 65535 65535
+ 3.900704 0 1 sctp 1500 -------D 0 0.0 1.0 1 35 74 0 34
+ 3.900704 0 1 sctp 1500 -------D 0 0.0 1.0 1 36 75 0 35
- 3.900704 0 1 sctp 1500 -------D 0 0.0 1.0 1 35 74 0 34
- 3.924704 0 1 sctp 1500 -------D 0 0.0 1.0 1 36 75 0 35
r 3.99664 1 0 sctp 48 -------S 0 1.0 0.0 1 29 68 65535 65535
+ 3.99664 0 1 sctp 1500 -------D 0 0.0 1.0 1 37 76 0 36
- 3.99664 0 1 sctp 1500 -------D 0 0.0 1.0 1 37 76 0 36
r 4.02064 1 0 sctp 48 -------S 0 1.0 0.0 1 30 69 65535 65535
+ 4.02064 0 1 sctp 1500 -------D 0 0.0 1.0 1 38 77 0 37
- 4.02064 0 1 sctp 1500 -------D 0 0.0 1.0 1 38 77 0 37
r 4.04464 1 0 sctp 48 -------S 0 1.0 0.0 1 31 71 65535 65535
+ 4.04464 0 1 sctp 1500 -------D 0 0.0 1.0 1 39 78 0 38
- 4.04464 0 1 sctp 1500 -------D 0 0.0 1.0 1 39 78 0 38
r 4.052704 0 1 sctp 1500 -------D 0 0.0 1.0 1 32 70 0 31
+ 4.052704 1 0 sctp 48 -------S 0 1.0 0.0 1 32 79 65535 65535
- 4.052704 1 0 sctp 48 -------S 0 1.0 0.0 1 32 79 65535 65535
r 4.076704 0 1 sctp 1500 -------D 0 0.0 1.0 1 33 72 0 32
+ 4.076704 1 0 sctp 48 -------S 0 1.0 0.0 1 33 80 65535 65535
- 4.076704 1 0 sctp 48 -------S 0 1.0 0.0 1 33 80 65535 65535
r 4.100704 0 1 sctp 1500 -------D 0 0.0 1.0 1 34 73 0 33
+ 4.100704 1 0 sctp 48 -------S 0 1.0 0.0 1 34 81 65535 65535
- 4.100704 1 0 sctp 48 -------S 0 1.0 0.0 1 34 81 65535 65535
r 4.124704 0 1 sctp 1500 -------D 0 0.0 1.0 1 35 74 0 34
+ 4.124704 1 0 sctp 48 -------S 0 1.0 0.0 1 35 82 65535 65535
- 4.124704 1 0 sctp 48 -------S 0 1.0 0.0 1 35 82 65535 65535
r 4.148704 0 1 sctp 1500 -------D 0 0.0 1.0 1 36 75 0 35
+ 4.148704 1 0 sctp 48 -------S 0 1.0 0.0 1 36 83 65535 65535
- 4.148704 1 0 sctp 48 -------S 0 1.0 0.0 1 36 83 65535 65535
r 4.22064 0 1 sctp 1500 -------D 0 0.0 1.0 1 37 76 0 36
+ 4.22064 1 0 sctp 48 -------S 0 1.0 0.0 1 37 84 65535 65535
- 4.22064 1 0 sctp 48 -------S 0 1.0 0.0 1 37 84 65535 65535
r 4.24464 0 1 sctp 1500 -------D 0 0.0 1.0 1 38 77 0 37
+ 4.24464 1 0 sctp 48 -------S 0 1.0 0.0 1 38 85 65535 65535
- 4.24464 1 0 sctp 48 -------S 0 1.0 0.0 1 38 85 65535 65535
r 4.253472 1 0 sctp 48 -------S 0 1.0 0.0 1 32 79 65535 65535
+ 4.253472 0 1 sctp 1500 -------D 0 0.0 1.0 1 40 86 0 39
- 4.253472 0 1 sctp 1500 -------D 0 0.0 1.0 1 40 86 0 39
r 4.26864 0 1 sctp 1500 -------D 0 0.0 1.0 1 39 78 0 38
+ 4.26864 1 0 sctp 48 -------S 0 1.0 0.0 1 39 87 65535 65535
- 4.26864 1 0 sctp 48 -------S 0 1.0 0.0 1 39 87 65535 65535
r 4.277472 1 0 sctp 48 -------S 0 1.0 0.0 1 33 80 65535 65535
+ 4.277472 0 1 sctp 1500 -------D 0 0.0 1.0 1 41 88 0 40
- 4.277472 0 1 sctp 1500 -------D 0 0.0 1.0 1 41 88 0 40
r 4.301472 1 0 sctp 48 -------S 0 1.0 0.0 1 34 81 65535 65535
+ 4.301472 0 1 sctp 1500 -------D 0 0.0 1.0 1 42 89 0 41
- 4.301472 0 1 sctp 1500 -------D 0 0.0 1.0 1 42 89 0 41
r 4.325472 1 0 sctp 48 -------S 0 1.0 0.0 1 35 82 65535 65535
+ 4.325472 0 1 sctp 1500 -------D 0 0.0 1.0 1 43 90 0 42
+ 4.325472 0 1 sctp 1500 -------D 0 0.0 1.0 1 44 91 0 43
- 4.325472 0 1 sctp 1500 -------D 0 0.0 1.0 1 43 90 0 42
r 4.349472 1 0 sctp 48 -------S 0 1.0 0.0 1 36 83 65535 65535
+ 4.349472 0 1 sctp 1500 -------D 0 0.0 1.0 1 45 92 0 44
- 4.349472 0 1 sctp 1500 -------D 0 0.0 1.0 1 44 91 0 43
- 4.373472 0 1 sctp 1500 -------D 0 0.0 1.0 1 45 92 0 44
r 4.421408 1 0 sctp 48 -------S 0 1.0 0.0 1 37 84 65535 65535
+ 4.421408 0 1 sctp 1500 -------D 0 0.0 1.0 1 46 93 0 45
- 4.421408 0 1 sctp 1500 -------D 0 0.0 1.0 1 46 93 0 45
r 4.445408 1 0 sctp 48 -------S 0 1.0 0.0 1 38 85 65535 65535
+ 4.445408 0 1 sctp 1500 -------D 0 0.0 1.0 1 47 94 0 46
- 4.445408 0 1 sctp 1500 -------D 0 0.0 1.0 1 47 94 0 46
r 4.469408 1 0 sctp 48 -------S 0 1.0 0.0 1 39 87 65535 65535
+ 4.469408 0 1 sctp 1500 -------D 0 0.0 1.0 1 48 95 0 47
- 4.469408 0 1 sctp 1500 -------D 0 0.0 1.0 1 48 95 0 47
r 4.477472 0 1 sctp 1500 -------D 0 0.0 1.0 1 40 86 0 39
+ 4.477472 1 0 sctp 48 -------S 0 1.0 0.0 1 40 96 65535 65535
- 4.477472 1 0 sctp 48 -------S 0 1.0 0.0 1 40 96 65535 65535
r 4.501472 0 1 sctp 1500 -------D 0 0.0 1.0 1 41 88 0 40
+ 4.501472 1 0 sctp 48 -------S 0 1.0 0.0 1 41 97 65535 65535
- 4.501472 1 0 sctp 48 -------S 0 1.0 0.0 1 41 97 65535 65535
r 4.525472 0 1 sctp 1500 -------D 0 0.0 1.0 1 42 89 0 41
+ 4.525472 1 0 sctp 48 -------S 0 1.0 0.0 1 42 98 65535 65535
- 4.525472 1 0 sctp 48 -------S 0 1.0 0.0 1 42 98 65535 65535
r 4.549472 0 1 sctp 1500 -------D 0 0.0 1.0 1 43 90 0 42
+ 4.549472 1 0 sctp 48 -------S 0 1.0 0.0 1 43 99 65535 65535
- 4.549472 1 0 sctp 48 -------S 0 1.0 0.0 1 43 99 65535 65535
r 4.573472 0 1 sctp 1500 -------D 0 0.0 1.0 1 44 91 0 43
+ 4.573472 1 0 sctp 48 -------S 0 1.0 0.0 1 44 100 65535 65535
- 4.573472 1 0 sctp 48 -------S 0 1.0 0.0 1 44 100 65535 65535
r 4.597472 0 1 sctp 1500 -------D 0 0.0 1.0 1 45 92 0 44
+ 4.597472 1 0 sctp 48 -------S 0 1.0 0.0 1 45 101 65535 65535
- 4.597472 1 0 sctp 48 -------S 0 1.0 0.0 1 45 101 65535 65535
r 4.645408 0 1 sctp 1500 -------D 0 0.0 1.0 1 46 93 0 45
+ 4.645408 1 0 sctp 48 -------S 0 1.0 0.0 1 46 102 65535 65535
- 4.645408 1 0 sctp 48 -------S 0 1.0 0.0 1 46 102 65535 65535
r 4.669408 0 1 sctp 1500 -------D 0 0.0 1.0 1 47 94 0 46
+ 4.669408 1 0 sctp 48 -------S 0 1.0 0.0 1 47 103 65535 65535
- 4.669408 1 0 sctp 48 -------S 0 1.0 0.0 1 47 103 65535 65535
r 4.67824 1 0 sctp 48 -------S 0 1.0 0.0 1 40 96 65535 65535
+ 4.67824 0 1 sctp 1500 -------D 0 0.0 1.0 1 49 104 0 48
- 4.67824 0 1 sctp 1500 -------D 0 0.0 1.0 1 49 104 0 48
r 4.693408 0 1 sctp 1500 -------D 0 0.0 1.0 1 48 95 0 47
+ 4.693408 1 0 sctp 48 -------S 0 1.0 0.0 1 48 105 65535 65535
- 4.693408 1 0 sctp 48 -------S 0 1.0 0.0 1 48 105 65535 65535
r 4.70224 1 0 sctp 48 -------S 0 1.0 0.0 1 41 97 65535 65535
+ 4.70224 0 1 sctp 1500 -------D 0 0.0 1.0 1 50 106 0 49
- 4.70224 0 1 sctp 1500 -------D 0 0.0 1.0 1 50 106 0 49
r 4.72624 1 0 sctp 48 -------S 0 1.0 0.0 1 42 98 65535 65535
+ 4.72624 0 1 sctp 1500 -------D 0 0.0 1.0 1 51 107 0 50
- 4.72624 0 1 sctp 1500 -------D 0 0.0 1.0 1 51 107 0 50
r 4.75024 1 0 sctp 48 -------S 0 1.0 0.0 1 43 99 65535 65535
+ 4.75024 0 1 sctp 1500 -------D 0 0.0 1.0 1 52 108 0 51
- 4.75024 0 1 sctp 1500 -------D 0 0.0 1.0 1 52 108 0 51
r 4.77424 1 0 sctp 48 -------S 0 1.0 0.0 1 44 100 65535 65535
+ 4.77424 0 1 sctp 1500 -------D 0 0.0 1.0 1 53 109 0 52
+ 4.77424 0 1 sctp 1500 -------D 0 0.0 1.0 1 54 110 0 53
- 4.77424 0 1 sctp 1500 -------D 0 0.0 1.0 1 53 109 0 52
r 4.79824 1 0 sctp 48 -------S 0 1.0 0.0 1 45 101 65535 65535
+ 4.79824 0 1 sctp 1500 -------D 0 0.0 1.0 1 55 111 0 54
- 4.79824 0 1 sctp 1500 -------D 0 0.0 1.0 1 54 110 0 53
- 4.82224 0 1 sctp 1500 -------D 0 0.0 1.0 1 55 111 0 54
r 4.846176 1 0 sctp 48 -------S 0 1.0 0.0 1 46 102 65535 65535
+ 4.846176 0 1 sctp 1500 -------D 0 0.0 1.0 1 56 112 0 55
- 4.84624 0 1 sctp 1500 -------D 0 0.0 1.0 1 56 112 0 55
r 4.870176 1 0 sctp 48 -------S 0 1.0 0.0 1 47 103 65535 65535
+ 4.870176 0 1 sctp 1500 -------D 0 0.0 1.0 1 57 113 0 56
- 4.87024 0 1 sctp 1500 -------D 0 0.0 1.0 1 57 113 0 56
r 4.894176 1 0 sctp 48 -------S 0 1.0 0.0 1 48 105 65535 65535
+ 4.894176 0 1 sctp 1500 -------D 0 0.0 1.0 1 58 114 0 57
- 4.89424 0 1 sctp 1500 -------D 0 0.0 1.0 1 58 114 0 57
r 4.90224 0 1 sctp 1500 -------D 0 0.0 1.0 1 49 104 0 48
+ 4.90224 1 0 sctp 48 -------S 0 1.0 0.0 1 49 115 65535 65535
- 4.90224 1 0 sctp 48 -------S 0 1.0 0.0 1 49 115 65535 65535
r 4.92624 0 1 sctp 1500 -------D 0 0.0 1.0 1 50 106 0 49
+ 4.92624 1 0 sctp 48 -------S 0 1.0 0.0 1 50 116 65535 65535
- 4.92624 1 0 sctp 48 -------S 0 1.0 0.0 1 50 116 65535 65535
r 4.95024 0 1 sctp 1500 -------D 0 0.0 1.0 1 51 107 0 50
+ 4.95024 1 0 sctp 48 -------S 0 1.0 0.0 1 51 117 65535 65535
- 4.95024 1 0 sctp 48 -------S 0 1.0 0.0 1 51 117 65535 65535
r 4.97424 0 1 sctp 1500 -------D 0 0.0 1.0 1 52 108 0 51
+ 4.97424 1 0 sctp 48 -------S 0 1.0 0.0 1 52 118 65535 65535
- 4.97424 1 0 sctp 48 -------S 0 1.0 0.0 1 52 118 65535 65535
r 4.99824 0 1 sctp 1500 -------D 0 0.0 1.0 1 53 109 0 52
+ 4.99824 1 0 sctp 48 -------S 0 1.0 0.0 1 53 119 65535 65535
- 4.99824 1 0 sctp 48 -------S 0 1.0 0.0 1 53 119 65535 65535
