+ 0.5 0 1 sctp 56 -------I 0 0.0 1.0 1 -1 2 65535 65535
- 0.5 0 1 sctp 56 -------I 0 0.0 1.0 1 -1 2 65535 65535
r 0.8 0 1 sctp 56 -------I 0 0.0 1.0 1 -1 2 65535 65535
+ 0.8 1 0 sctp 56 -------I 0 1.0 0.0 1 -1 3 65535 65535
- 0.8 1 0 sctp 56 -------I 0 1.0 0.0 1 -1 3 65535 65535
r 1.100001 1 0 sctp 56 -------I 0 1.0 0.0 1 -1 3 65535 65535
+ 1.100001 0 1 sctp 36 -------I 0 0.0 1.0 1 -1 4 65535 65535
- 1.100001 0 1 sctp 36 -------I 0 0.0 1.0 1 -1 4 65535 65535
r 1.400001 0 1 sctp 36 -------I 0 0.0 1.0 1 -1 4 65535 65535
+ 1.400001 1 0 sctp 36 -------I 0 1.0 0.0 1 -1 5 65535 65535
- 1.400001 1 0 sctp 36 -------I 0 1.0 0.0 1 -1 5 65535 65535
r 1.700001 1 0 sctp 36 -------I 0 1.0 0.0 1 -1 5 65535 65535
+ 1.700001 0 1 sctp 56 -------H 0 0.0 1.0 1 -1 6 65535 65535
- 1.700001 0 1 sctp 56 -------H 0 0.0 1.0 1 -1 6 65535 65535
r 2.000001 0 1 sctp 56 -------H 0 0.0 1.0 1 -1 6 65535 65535
+ 2.000001 1 0 sctp 56 -------B 0 1.0 0.0 1 -1 7 65535 65535
- 2.000001 1 0 sctp 56 -------B 0 1.0 0.0 1 -1 7 65535 65535
r 2.300002 1 0 sctp 56 -------B 0 1.0 0.0 1 -1 7 65535 65535
+ 2.300002 0 1 sctp 1500 -------D 0 0.0 1.0 1 1 8 0 0
- 2.300002 0 1 sctp 1500 -------D 0 0.0 1.0 1 1 8 0 0
+ 2.300002 0 1 sctp 1500 -------D 0 0.0 1.0 1 2 9 0 1
+ 2.300002 0 1 sctp 1500 -------D 0 0.0 1.0 1 3 10 0 2
- 2.30001 0 1 sctp 1500 -------D 0 0.0 1.0 1 2 9 0 1
- 2.300018 0 1 sctp 1500 -------D 0 0.0 1.0 1 3 10 0 2
r 2.60001 0 1 sctp 1500 -------D 0 0.0 1.0 1 1 8 0 0
+ 2.60001 1 0 sctp 48 -------S 0 1.0 0.0 1 1 11 65535 65535
- 2.60001 1 0 sctp 48 -------S 0 1.0 0.0 1 1 11 65535 65535
r 2.600018 0 1 sctp 1500 -------D 0 0.0 1.0 1 2 9 0 1
+ 2.600018 1 0 sctp 48 -------S 0 1.0 0.0 1 2 12 65535 65535
- 2.600018 1 0 sctp 48 -------S 0 1.0 0.0 1 2 12 65535 65535
r 2.600026 0 1 sctp 1500 -------D 0 0.0 1.0 1 3 10 0 2
+ 2.600026 1 0 sctp 48 -------S 0 1.0 0.0 1 3 13 65535 65535
- 2.600026 1 0 sctp 48 -------S 0 1.0 0.0 1 3 13 65535 65535
r 2.90001 1 0 sctp 48 -------S 0 1.0 0.0 1 1 11 65535 65535
+ 2.90001 0 1 sctp 1500 -------D 0 0.0 1.0 1 4 14 0 3
- 2.90001 0 1 sctp 1500 -------D 0 0.0 1.0 1 4 14 0 3
+ 2.90001 0 1 sctp 1500 -------D 0 0.0 1.0 1 5 15 0 4
r 2.900018 1 0 sctp 48 -------S 0 1.0 0.0 1 2 12 65535 65535
+ 2.900018 0 1 sctp 1500 -------D 0 0.0 1.0 1 6 16 0 5
+ 2.900018 0 1 sctp 1500 -------D 0 0.0 1.0 1 7 17 0 6
- 2.900018 0 1 sctp 1500 -------D 0 0.0 1.0 1 5 15 0 4
r 2.900026 1 0 sctp 48 -------S 0 1.0 0.0 1 3 13 65535 65535
+ 2.900026 0 1 sctp 1500 -------D 0 0.0 1.0 1 8 18 0 7
+ 2.900026 0 1 sctp 1500 -------D 0 0.0 1.0 1 9 19 0 8
- 2.900026 0 1 sctp 1500 -------D 0 0.0 1.0 1 6 16 0 5
- 2.900034 0 1 sctp 1500 -------D 0 0.0 1.0 1 7 17 0 6
- 2.900042 0 1 sctp 1500 -------D 0 0.0 1.0 1 8 18 0 7
- 2.90005 0 1 sctp 1500 -------D 0 0.0 1.0 1 9 19 0 8
r 3.200018 0 1 sctp 1500 -------D 0 0.0 1.0 1 4 14 0 3
+ 3.200018 1 0 sctp 48 -------S 0 1.0 0.0 1 4 20 65535 65535
- 3.200018 1 0 sctp 48 -------S 0 1.0 0.0 1 4 20 65535 65535
r 3.200026 0 1 sctp 1500 -------D 0 0.0 1.0 1 5 15 0 4
+ 3.200026 1 0 sctp 48 -------S 0 1.0 0.0 1 5 21 65535 65535
- 3.200026 1 0 sctp 48 -------S 0 1.0 0.0 1 5 21 65535 65535
r 3.200034 0 1 sctp 1500 -------D 0 0.0 1.0 1 6 16 0 5
+ 3.200034 1 0 sctp 48 -------S 0 1.0 0.0 1 6 22 65535 65535
- 3.200034 1 0 sctp 48 -------S 0 1.0 0.0 1 6 22 65535 65535
r 3.200042 0 1 sctp 1500 -------D 0 0.0 1.0 1 7 17 0 6
+ 3.200042 1 0 sctp 48 -------S 0 1.0 0.0 1 7 23 65535 65535
- 3.200042 1 0 sctp 48 -------S 0 1.0 0.0 1 7 23 65535 65535
r 3.20005 0 1 sctp 1500 -------D 0 0.0 1.0 1 8 18 0 7
+ 3.20005 1 0 sctp 48 -------S 0 1.0 0.0 1 8 24 65535 65535
- 3.20005 1 0 sctp 48 -------S 0 1.0 0.0 1 8 24 65535 65535
r 3.200058 0 1 sctp 1500 -------D 0 0.0 1.0 1 9 19 0 8
+ 3.200058 1 0 sctp 48 -------S 0 1.0 0.0 1 9 25 65535 65535
- 3.200058 1 0 sctp 48 -------S 0 1.0 0.0 1 9 25 65535 65535
r 3.500018 1 0 sctp 48 -------S 0 1.0 0.0 1 4 20 65535 65535
+ 3.500018 0 1 sctp 1500 -------D 0 0.0 1.0 1 10 26 0 9
- 3.500018 0 1 sctp 1500 -------D 0 0.0 1.0 1 10 26 0 9
+ 3.500018 0 1 sctp 1500 -------D 0 0.0 1.0 1 11 27 0 10
r 3.500026 1 0 sctp 48 -------S 0 1.0 0.0 1 5 21 65535 65535
+ 3.500026 0 1 sctp 1500 -------D 0 0.0 1.0 1 12 28 0 11
+ 3.500026 0 1 sctp 1500 -------D 0 0.0 1.0 1 13 29 0 12
- 3.500026 0 1 sctp 1500 -------D 0 0.0 1.0 1 11 27 0 10
r 3.500034 1 0 sctp 48 -------S 0 1.0 0.0 1 6 22 65535 65535
+ 3.500034 0 1 sctp 1500 -------D 0 0.0 1.0 1 14 30 0 13
+ 3.500034 0 1 sctp 1500 -------D 0 0.0 1.0 1 15 31 0 14
- 3.500034 0 1 sctp 1500 -------D 0 0.0 1.0 1 12 28 0 11
r 3.500042 1 0 sctp 48 -------S 0 1.0 0.0 1 7 23 65535 65535
+ 3.500042 0 1 sctp 1500 -------D 0 0.0 1.0 1 16 32 0 15
+ 3.500042 0 1 sctp 1500 -------D 0 0.0 1.0 1 17 33 0 16
- 3.500042 0 1 sctp 1500 -------D 0 0.0 1.0 1 13 29 0 12
r 3.50005 1 0 sctp 48 -------S 0 1.0 0.0 1 8 24 65535 65535
+ 3.50005 0 1 sctp 1500 -------D 0 0.0 1.0 1 18 34 0 17
+ 3.50005 0 1 sctp 1500 -------D 0 0.0 1.0 1 19 35 0 18
- 3.50005 0 1 sctp 1500 -------D 0 0.0 1.0 1 14 30 0 13
r 3.500058 1 0 sctp 48 -------S 0 1.0 0.0 1 9 25 65535 65535
+ 3.500058 0 1 sctp 1500 -------D 0 0.0 1.0 1 20 36 0 19
+ 3.500058 0 1 sctp 1500 -------D 0 0.0 1.0 1 21 37 0 20
- 3.500058 0 1 sctp 1500 -------D 0 0.0 1.0 1 15 31 0 14
- 3.500066 0 1 sctp 1500 -------D 0 0.0 1.0 1 16 32 0 15
- 3.500074 0 1 sctp 1500 -------D 0 0.0 1.0 1 17 33 0 16
- 3.500082 0 1 sctp 1500 -------D 0 0.0 1.0 1 18 34 0 17
- 3.50009 0 1 sctp 1500 -------D 0 0.0 1.0 1 19 35 0 18
- 3.500098 0 1 sctp 1500 -------D 0 0.0 1.0 1 20 36 0 19
- 3.500106 0 1 sctp 1500 -------D 0 0.0 1.0 1 21 37 0 20
r 3.800026 0 1 sctp 1500 -------D 0 0.0 1.0 1 10 26 0 9
+ 3.800026 1 0 sctp 48 -------S 0 1.0 0.0 1 10 38 65535 65535
- 3.800026 1 0 sctp 48 -------S 0 1.0 0.0 1 10 38 65535 65535
r 3.800034 0 1 sctp 1500 -------D 0 0.0 1.0 1 11 27 0 10
+ 3.800034 1 0 sctp 48 -------S 0 1.0 0.0 1 11 39 65535 65535
- 3.800034 1 0 sctp 48 -------S 0 1.0 0.0 1 11 39 65535 65535
r 3.800042 0 1 sctp 1500 -------D 0 0.0 1.0 1 12 28 0 11
+ 3.800042 1 0 sctp 48 -------S 0 1.0 0.0 1 12 40 65535 65535
- 3.800042 1 0 sctp 48 -------S 0 1.0 0.0 1 12 40 65535 65535
r 3.80005 0 1 sctp 1500 -------D 0 0.0 1.0 1 13 29 0 12
+ 3.80005 1 0 sctp 48 -------S 0 1.0 0.0 1 13 41 65535 65535
- 3.80005 1 0 sctp 48 -------S 0 1.0 0.0 1 13 41 65535 65535
r 3.800058 0 1 sctp 1500 -------D 0 0.0 1.0 1 14 30 0 13
+ 3.800058 1 0 sctp 48 -------S 0 1.0 0.0 1 14 42 65535 65535
- 3.800058 1 0 sctp 48 -------S 0 1.0 0.0 1 14 42 65535 65535
r 3.800066 0 1 sctp 1500 -------D 0 0.0 1.0 1 15 31 0 14
+ 3.800066 1 0 sctp 48 -------S 0 1.0 0.0 1 15 43 65535 65535
- 3.800066 1 0 sctp 48 -------S 0 1.0 0.0 1 15 43 65535 65535
r 3.800074 0 1 sctp 1500 -------D 0 0.0 1.0 1 16 32 0 15
+ 3.800074 1 0 sctp 48 -------S 0 1.0 0.0 1 16 44 65535 65535
- 3.800074 1 0 sctp 48 -------S 0 1.0 0.0 1 16 44 65535 65535
r 3.800082 0 1 sctp 1500 -------D 0 0.0 1.0 1 17 33 0 16
+ 3.800082 1 0 sctp 48 -------S 0 1.0 0.0 1 17 45 65535 65535
- 3.800082 1 0 sctp 48 -------S 0 1.0 0.0 1 17 45 65535 65535
r 3.80009 0 1 sctp 1500 -------D 0 0.0 1.0 1 18 34 0 17
+ 3.80009 1 0 sctp 48 -------S 0 1.0 0.0 1 18 46 65535 65535
- 3.80009 1 0 sctp 48 -------S 0 1.0 0.0 1 18 46 65535 65535
r 3.800098 0 1 sctp 1500 -------D 0 0.0 1.0 1 19 35 0 18
+ 3.800098 1 0 sctp 48 -------S 0 1.0 0.0 1 19 47 65535 65535
- 3.800098 1 0 sctp 48 -------S 0 1.0 0.0 1 19 47 65535 65535
r 3.800106 0 1 sctp 1500 -------D 0 0.0 1.0 1 20 36 0 19
+ 3.800106 1 0 sctp 48 -------S 0 1.0 0.0 1 20 48 65535 65535
- 3.800106 1 0 sctp 48 -------S 0 1.0 0.0 1 20 48 65535 65535
r 3.800114 0 1 sctp 1500 -------D 0 0.0 1.0 1 21 37 0 20
+ 3.800114 1 0 sctp 48 -------S 0 1.0 0.0 1 21 49 65535 65535
- 3.800114 1 0 sctp 48 -------S 0 1.0 0.0 1 21 49 65535 65535
r 4.100026 1 0 sctp 48 -------S 0 1.0 0.0 1 10 38 65535 65535
+ 4.100026 0 1 sctp 1500 -------D 0 0.0 1.0 1 22 50 0 21
- 4.100026 0 1 sctp 1500 -------D 0 0.0 1.0 1 22 50 0 21
+ 4.100026 0 1 sctp 1500 -------D 0 0.0 1.0 1 23 51 0 22
r 4.100034 1 0 sctp 48 -------S 0 1.0 0.0 1 11 39 65535 65535
+ 4.100034 0 1 sctp 1500 -------D 0 0.0 1.0 1 24 52 0 23
+ 4.100034 0 1 sctp 1500 -------D 0 0.0 1.0 1 25 53 0 24
- 4.100034 0 1 sctp 1500 -------D 0 0.0 1.0 1 23 51 0 22
r 4.100042 1 0 sctp 48 -------S 0 1.0 0.0 1 12 40 65535 65535
+ 4.100042 0 1 sctp 1500 -------D 0 0.0 1.0 1 26 54 0 25
+ 4.100042 0 1 sctp 1500 -------D 0 0.0 1.0 1 27 55 0 26
- 4.100042 0 1 sctp 1500 -------D 0 0.0 1.0 1 24 52 0 23
r 4.10005 1 0 sctp 48 -------S 0 1.0 0.0 1 13 41 65535 65535
+ 4.10005 0 1 sctp 1500 -------D 0 0.0 1.0 1 28 56 0 27
+ 4.10005 0 1 sctp 1500 -------D 0 0.0 1.0 1 29 57 0 28
- 4.10005 0 1 sctp 1500 -------D 0 0.0 1.0 1 25 53 0 24
r 4.100058 1 0 sctp 48 -------S 0 1.0 0.0 1 14 42 65535 65535
+ 4.100058 0 1 sctp 1500 -------D 0 0.0 1.0 1 30 58 0 29
+ 4.100058 0 1 sctp 1500 -------D 0 0.0 1.0 1 31 59 0 30
- 4.100058 0 1 sctp 1500 -------D 0 0.0 1.0 1 26 54 0 25
r 4.100066 1 0 sctp 48 -------S 0 1.0 0.0 1 15 43 65535 65535
+ 4.100066 0 1 sctp 1500 -------D 0 0.0 1.0 1 32 60 0 31
+ 4.100066 0 1 sctp 1500 -------D 0 0.0 1.0 1 33 61 0 32
- 4.100066 0 1 sctp 1500 -------D 0 0.0 1.0 1 27 55 0 26
r 4.100074 1 0 sctp 48 -------S 0 1.0 0.0 1 16 44 65535 65535
+ 4.100074 0 1 sctp 1500 -------D 0 0.0 1.0 1 34 62 0 33
+ 4.100074 0 1 sctp 1500 -------D 0 0.0 1.0 1 35 63 0 34
- 4.100074 0 1 sctp 1500 -------D 0 0.0 1.0 1 28 56 0 27
r 4.100082 1 0 sctp 48 -------S 0 1.0 0.0 1 17 45 65535 65535
+ 4.100082 0 1 sctp 1500 -------D 0 0.0 1.0 1 36 64 0 35
+ 4.100082 0 1 sctp 1500 -------D 0 0.0 1.0 1 37 65 0 36
- 4.100082 0 1 sctp 1500 -------D 0 0.0 1.0 1 29 57 0 28
r 4.10009 1 0 sctp 48 -------S 0 1.0 0.0 1 18 46 65535 65535
+ 4.10009 0 1 sctp 1500 -------D 0 0.0 1.0 1 38 66 0 37
+ 4.10009 0 1 sctp 1500 -------D 0 0.0 1.0 1 39 67 0 38
- 4.10009 0 1 sctp 1500 -------D 0 0.0 1.0 1 30 58 0 29
r 4.100098 1 0 sctp 48 -------S 0 1.0 0.0 1 19 47 65535 65535
+ 4.100098 0 1 sctp 1500 -------D 0 0.0 1.0 1 40 68 0 39
+ 4.100098 0 1 sctp 1500 -------D 0 0.0 1.0 1 41 69 0 40
- 4.100098 0 1 sctp 1500 -------D 0 0.0 1.0 1 31 59 0 30
r 4.100106 1 0 sctp 48 -------S 0 1.0 0.0 1 20 48 65535 65535
+ 4.100106 0 1 sctp 1500 -------D 0 0.0 1.0 1 42 70 0 41
+ 4.100106 0 1 sctp 1500 -------D 0 0.0 1.0 1 43 71 0 42
- 4.100106 0 1 sctp 1500 -------D 0 0.0 1.0 1 32 60 0 31
r 4.100114 1 0 sctp 48 -------S 0 1.0 0.0 1 21 49 65535 65535
+ 4.100114 0 1 sctp 1500 -------D 0 0.0 1.0 1 44 72 0 43
+ 4.100114 0 1 sctp 1500 -------D 0 0.0 1.0 1 45 73 0 44
- 4.100114 0 1 sctp 1500 -------D 0 0.0 1.0 1 33 61 0 32
- 4.100122 0 1 sctp 1500 -------D 0 0.0 1.0 1 34 62 0 33
- 4.10013 0 1 sctp 1500 -------D 0 0.0 1.0 1 35 63 0 34
- 4.100138 0 1 sctp 1500 -------D 0 0.0 1.0 1 36 64 0 35
- 4.100146 0 1 sctp 1500 -------D 0 0.0 1.0 1 37 65 0 36
- 4.100154 0 1 sctp 1500 -------D 0 0.0 1.0 1 38 66 0 37
- 4.100162 0 1 sctp 1500 -------D 0 0.0 1.0 1 39 67 0 38
- 4.10017 0 1 sctp 1500 -------D 0 0.0 1.0 1 40 68 0 39
- 4.100178 0 1 sctp 1500 -------D 0 0.0 1.0 1 41 69 0 40
- 4.100186 0 1 sctp 1500 -------D 0 0.0 1.0 1 42 70 0 41
- 4.100194 0 1 sctp 1500 -------D 0 0.0 1.0 1 43 71 0 42
- 4.100202 0 1 sctp 1500 -------D 0 0.0 1.0 1 44 72 0 43
- 4.10021 0 1 sctp 1500 -------D 0 0.0 1.0 1 45 73 0 44
r 4.400034 0 1 sctp 1500 -------D 0 0.0 1.0 1 22 50 0 21
+ 4.400034 1 0 sctp 48 -------S 0 1.0 0.0 1 22 74 65535 65535
- 4.400034 1 0 sctp 48 -------S 0 1.0 0.0 1 22 74 65535 65535
r 4.400042 0 1 sctp 1500 -------D 0 0.0 1.0 1 23 51 0 22
+ 4.400042 1 0 sctp 48 -------S 0 1.0 0.0 1 23 75 65535 65535
- 4.400042 1 0 sctp 48 -------S 0 1.0 0.0 1 23 75 65535 65535
r 4.40005 0 1 sctp 1500 -------D 0 0.0 1.0 1 24 52 0 23
+ 4.40005 1 0 sctp 48 -------S 0 1.0 0.0 1 24 76 65535 65535
- 4.40005 1 0 sctp 48 -------S 0 1.0 0.0 1 24 76 65535 65535
r 4.400058 0 1 sctp 1500 -------D 0 0.0 1.0 1 25 53 0 24
+ 4.400058 1 0 sctp 48 -------S 0 1.0 0.0 1 25 77 65535 65535
- 4.400058 1 0 sctp 48 -------S 0 1.0 0.0 1 25 77 65535 65535
r 4.400066 0 1 sctp 1500 -------D 0 0.0 1.0 1 26 54 0 25
+ 4.400066 1 0 sctp 48 -------S 0 1.0 0.0 1 26 78 65535 65535
- 4.400066 1 0 sctp 48 -------S 0 1.0 0.0 1 26 78 65535 65535
r 4.400074 0 1 sctp 1500 -------D 0 0.0 1.0 1 27 55 0 26
+ 4.400074 1 0 sctp 48 -------S 0 1.0 0.0 1 27 79 65535 65535
- 4.400074 1 0 sctp 48 -------S 0 1.0 0.0 1 27 79 65535 65535
r 4.400082 0 1 sctp 1500 -------D 0 0.0 1.0 1 28 56 0 27
+ 4.400082 1 0 sctp 48 -------S 0 1.0 0.0 1 28 80 65535 65535
- 4.400082 1 0 sctp 48 -------S 0 1.0 0.0 1 28 80 65535 65535
r 4.40009 0 1 sctp 1500 -------D 0 0.0 1.0 1 29 57 0 28
+ 4.40009 1 0 sctp 48 -------S 0 1.0 0.0 1 29 81 65535 65535
- 4.40009 1 0 sctp 48 -------S 0 1.0 0.0 1 29 81 65535 65535
r 4.400098 0 1 sctp 1500 -------D 0 0.0 1.0 1 30 58 0 29
+ 4.400098 1 0 sctp 48 -------S 0 1.0 0.0 1 30 82 65535 65535
- 4.400098 1 0 sctp 48 -------S 0 1.0 0.0 1 30 82 65535 65535
r 4.400106 0 1 sctp 1500 -------D 0 0.0 1.0 1 31 59 0 30
+ 4.400106 1 0 sctp 48 -------S 0 1.0 0.0 1 31 83 65535 65535
- 4.400106 1 0 sctp 48 -------S 0 1.0 0.0 1 31 83 65535 65535
r 4.400114 0 1 sctp 1500 -------D 0 0.0 1.0 1 32 60 0 31
+ 4.400114 1 0 sctp 48 -------S 0 1.0 0.0 1 32 84 65535 65535
- 4.400114 1 0 sctp 48 -------S 0 1.0 0.0 1 32 84 65535 65535
r 4.400122 0 1 sctp 1500 -------D 0 0.0 1.0 1 33 61 0 32
+ 4.400122 1 0 sctp 48 -------S 0 1.0 0.0 1 33 85 65535 65535
- 4.400122 1 0 sctp 48 -------S 0 1.0 0.0 1 33 85 65535 65535
r 4.40013 0 1 sctp 1500 -------D 0 0.0 1.0 1 34 62 0 33
+ 4.40013 1 0 sctp 48 -------S 0 1.0 0.0 1 34 86 65535 65535
- 4.40013 1 0 sctp 48 -------S 0 1.0 0.0 1 34 86 65535 65535
r 4.400138 0 1 sctp 1500 -------D 0 0.0 1.0 1 35 63 0 34
+ 4.400138 1 0 sctp 48 -------S 0 1.0 0.0 1 35 87 65535 65535
- 4.400138 1 0 sctp 48 -------S 0 1.0 0.0 1 35 87 65535 65535
r 4.400146 0 1 sctp 1500 -------D 0 0.0 1.0 1 36 64 0 35
+ 4.400146 1 0 sctp 48 -------S 0 1.0 0.0 1 36 88 65535 65535
- 4.400146 1 0 sctp 48 -------S 0 1.0 0.0 1 36 88 65535 65535
r 4.400154 0 1 sctp 1500 -------D 0 0.0 1.0 1 37 65 0 36
+ 4.400154 1 0 sctp 48 -------S 0 1.0 0.0 1 37 89 65535 65535
- 4.400154 1 0 sctp 48 -------S 0 1.0 0.0 1 37 89 65535 65535
r 4.400162 0 1 sctp 1500 -------D 0 0.0 1.0 1 38 66 0 37
+ 4.400162 1 0 sctp 48 -------S 0 1.0 0.0 1 38 90 65535 65535
- 4.400162 1 0 sctp 48 -------S 0 1.0 0.0 1 38 90 65535 65535
r 4.40017 0 1 sctp 1500 -------D 0 0.0 1.0 1 39 67 0 38
+ 4.40017 1 0 sctp 48 -------S 0 1.0 0.0 1 39 91 65535 65535
- 4.40017 1 0 sctp 48 -------S 0 1.0 0.0 1 39 91 65535 65535
r 4.400178 0 1 sctp 1500 -------D 0 0.0 1.0 1 40 68 0 39
+ 4.400178 1 0 sctp 48 -------S 0 1.0 0.0 1 40 92 65535 65535
- 4.400178 1 0 sctp 48 -------S 0 1.0 0.0 1 40 92 65535 65535
r 4.400186 0 1 sctp 1500 -------D 0 0.0 1.0 1 41 69 0 40
+ 4.400186 1 0 sctp 48 -------S 0 1.0 0.0 1 41 93 65535 65535
- 4.400186 1 0 sctp 48 -------S 0 1.0 0.0 1 41 93 65535 65535
r 4.400194 0 1 sctp 1500 -------D 0 0.0 1.0 1 42 70 0 41
+ 4.400194 1 0 sctp 48 -------S 0 1.0 0.0 1 42 94 65535 65535
- 4.400194 1 0 sctp 48 -------S 0 1.0 0.0 1 42 94 65535 65535
r 4.400202 0 1 sctp 1500 -------D 0 0.0 1.0 1 43 71 0 42
+ 4.400202 1 0 sctp 48 -------S 0 1.0 0.0 1 43 95 65535 65535
- 4.400202 1 0 sctp 48 -------S 0 1.0 0.0 1 43 95 65535 65535
r 4.40021 0 1 sctp 1500 -------D 0 0.0 1.0 1 44 72 0 43
+ 4.40021 1 0 sctp 48 -------S 0 1.0 0.0 1 44 96 65535 65535
- 4.40021 1 0 sctp 48 -------S 0 1.0 0.0 1 44 96 65535 65535
r 4.400218 0 1 sctp 1500 -------D 0 0.0 1.0 1 45 73 0 44
+ 4.400218 1 0 sctp 48 -------S 0 1.0 0.0 1 45 97 65535 65535
- 4.400218 1 0 sctp 48 -------S 0 1.0 0.0 1 45 97 65535 65535
r 4.700035 1 0 sctp 48 -------S 0 1.0 0.0 1 22 74 65535 65535
+ 4.700035 0 1 sctp 1500 -------D 0 0.0 1.0 1 46 98 0 45
- 4.700035 0 1 sctp 1500 -------D 0 0.0 1.0 1 46 98 0 45
+ 4.700035 0 1 sctp 1500 -------D 0 0.0 1.0 1 47 99 0 46
r 4.700043 1 0 sctp 48 -------S 0 1.0 0.0 1 23 75 65535 65535
+ 4.700043 0 1 sctp 1500 -------D 0 0.0 1.0 1 48 100 0 47
+ 4.700043 0 1 sctp 1500 -------D 0 0.0 1.0 1 49 101 0 48
- 4.700043 0 1 sctp 1500 -------D 0 0.0 1.0 1 47 99 0 46
r 4.700051 1 0 sctp 48 -------S 0 1.0 0.0 1 24 76 65535 65535
+ 4.700051 0 1 sctp 1500 -------D 0 0.0 1.0 1 50 102 0 49
+ 4.700051 0 1 sctp 1500 -------D 0 0.0 1.0 1 51 103 0 50
- 4.700051 0 1 sctp 1500 -------D 0 0.0 1.0 1 48 100 0 47
r 4.700059 1 0 sctp 48 -------S 0 1.0 0.0 1 25 77 65535 65535
+ 4.700059 0 1 sctp 1500 -------D 0 0.0 1.0 1 52 104 0 51
+ 4.700059 0 1 sctp 1500 -------D 0 0.0 1.0 1 53 105 0 52
- 4.700059 0 1 sctp 1500 -------D 0 0.0 1.0 1 49 101 0 48
r 4.700067 1 0 sctp 48 -------S 0 1.0 0.0 1 26 78 65535 65535
+ 4.700067 0 1 sctp 1500 -------D 0 0.0 1.0 1 54 106 0 53
+ 4.700067 0 1 sctp 1500 -------D 0 0.0 1.0 1 55 107 0 54
- 4.700067 0 1 sctp 1500 -------D 0 0.0 1.0 1 50 102 0 49
r 4.700075 1 0 sctp 48 -------S 0 1.0 0.0 1 27 79 65535 65535
+ 4.700075 0 1 sctp 1500 -------D 0 0.0 1.0 1 56 108 0 55
+ 4.700075 0 1 sctp 1500 -------D 0 0.0 1.0 1 57 109 0 56
- 4.700075 0 1 sctp 1500 -------D 0 0.0 1.0 1 51 103 0 50
r 4.700083 1 0 sctp 48 -------S 0 1.0 0.0 1 28 80 65535 65535
+ 4.700083 0 1 sctp 1500 -------D 0 0.0 1.0 1 58 110 0 57
+ 4.700083 0 1 sctp 1500 -------D 0 0.0 1.0 1 59 111 0 58
- 4.700083 0 1 sctp 1500 -------D 0 0.0 1.0 1 52 104 0 51
r 4.700091 1 0 sctp 48 -------S 0 1.0 0.0 1 29 81 65535 65535
+ 4.700091 0 1 sctp 1500 -------D 0 0.0 1.0 1 60 112 0 59
+ 4.700091 0 1 sctp 1500 -------D 0 0.0 1.0 1 61 113 0 60
- 4.700091 0 1 sctp 1500 -------D 0 0.0 1.0 1 53 105 0 52
r 4.700099 1 0 sctp 48 -------S 0 1.0 0.0 1 30 82 65535 65535
+ 4.700099 0 1 sctp 1500 -------D 0 0.0 1.0 1 62 114 0 61
+ 4.700099 0 1 sctp 1500 -------D 0 0.0 1.0 1 63 115 0 62
- 4.700099 0 1 sctp 1500 -------D 0 0.0 1.0 1 54 106 0 53
r 4.700107 1 0 sctp 48 -------S 0 1.0 0.0 1 31 83 65535 65535
+ 4.700107 0 1 sctp 1500 -------D 0 0.0 1.0 1 64 116 0 63
+ 4.700107 0 1 sctp 1500 -------D 0 0.0 1.0 1 65 117 0 64
- 4.700107 0 1 sctp 1500 -------D 0 0.0 1.0 1 55 107 0 54
r 4.700115 1 0 sctp 48 -------S 0 1.0 0.0 1 32 84 65535 65535
+ 4.700115 0 1 sctp 1500 -------D 0 0.0 1.0 1 66 118 0 65
+ 4.700115 0 1 sctp 1500 -------D 0 0.0 1.0 1 67 119 0 66
- 4.700115 0 1 sctp 1500 -------D 0 0.0 1.0 1 56 108 0 55
r 4.700123 1 0 sctp 48 -------S 0 1.0 0.0 1 33 85 65535 65535
+ 4.700123 0 1 sctp 1500 -------D 0 0.0 1.0 1 68 120 0 67
+ 4.700123 0 1 sctp 1500 -------D 0 0.0 1.0 1 69 121 0 68
- 4.700123 0 1 sctp 1500 -------D 0 0.0 1.0 1 57 109 0 56
r 4.700131 1 0 sctp 48 -------S 0 1.0 0.0 1 34 86 65535 65535
+ 4.700131 0 1 sctp 1500 -------D 0 0.0 1.0 1 70 122 0 69
+ 4.700131 0 1 sctp 1500 -------D 0 0.0 1.0 1 71 123 0 70
- 4.700131 0 1 sctp 1500 -------D 0 0.0 1.0 1 58 110 0 57
r 4.700139 1 0 sctp 48 -------S 0 1.0 0.0 1 35 87 65535 65535
+ 4.700139 0 1 sctp 1500 -------D 0 0.0 1.0 1 72 124 0 71
+ 4.700139 0 1 sctp 1500 -------D 0 0.0 1.0 1 73 125 0 72
- 4.700139 0 1 sctp 1500 -------D 0 0.0 1.0 1 59 111 0 58
r 4.700147 1 0 sctp 48 -------S 0 1.0 0.0 1 36 88 65535 65535
+ 4.700147 0 1 sctp 1500 -------D 0 0.0 1.0 1 74 126 0 73
+ 4.700147 0 1 sctp 1500 -------D 0 0.0 1.0 1 75 127 0 74
- 4.700147 0 1 sctp 1500 -------D 0 0.0 1.0 1 60 112 0 59
r 4.700155 1 0 sctp 48 -------S 0 1.0 0.0 1 37 89 65535 65535
+ 4.700155 0 1 sctp 1500 -------D 0 0.0 1.0 1 76 128 0 75
+ 4.700155 0 1 sctp 1500 -------D 0 0.0 1.0 1 77 129 0 76
- 4.700155 0 1 sctp 1500 -------D 0 0.0 1.0 1 61 113 0 60
r 4.700163 1 0 sctp 48 -------S 0 1.0 0.0 1 38 90 65535 65535
+ 4.700163 0 1 sctp 1500 -------D 0 0.0 1.0 1 78 130 0 77
+ 4.700163 0 1 sctp 1500 -------D 0 0.0 1.0 1 79 131 0 78
- 4.700163 0 1 sctp 1500 -------D 0 0.0 1.0 1 62 114 0 61
r 4.700171 1 0 sctp 48 -------S 0 1.0 0.0 1 39 91 65535 65535
+ 4.700171 0 1 sctp 1500 -------D 0 0.0 1.0 1 80 132 0 79
+ 4.700171 0 1 sctp 1500 -------D 0 0.0 1.0 1 81 133 0 80
- 4.700171 0 1 sctp 1500 -------D 0 0.0 1.0 1 63 115 0 62
r 4.700179 1 0 sctp 48 -------S 0 1.0 0.0 1 40 92 65535 65535
+ 4.700179 0 1 sctp 1500 -------D 0 0.0 1.0 1 82 134 0 81
+ 4.700179 0 1 sctp 1500 -------D 0 0.0 1.0 1 83 135 0 82
- 4.700179 0 1 sctp 1500 -------D 0 0.0 1.0 1 64 116 0 63
r 4.700187 1 0 sctp 48 -------S 0 1.0 0.0 1 41 93 65535 65535
+ 4.700187 0 1 sctp 1500 -------D 0 0.0 1.0 1 84 136 0 83
+ 4.700187 0 1 sctp 1500 -------D 0 0.0 1.0 1 85 137 0 84
- 4.700187 0 1 sctp 1500 -------D 0 0.0 1.0 1 65 117 0 64
r 4.700195 1 0 sctp 48 -------S 0 1.0 0.0 1 42 94 65535 65535
+ 4.700195 0 1 sctp 1500 -------D 0 0.0 1.0 1 86 138 0 85
+ 4.700195 0 1 sctp 1500 -------D 0 0.0 1.0 1 87 139 0 86
- 4.700195 0 1 sctp 1500 -------D 0 0.0 1.0 1 66 118 0 65
r 4.700203 1 0 sctp 48 -------S 0 1.0 0.0 1 43 95 65535 65535
+ 4.700203 0 1 sctp 1500 -------D 0 0.0 1.0 1 88 140 0 87
- 4.700203 0 1 sctp 1500 -------D 0 0.0 1.0 1 67 119 0 66
r 4.700211 1 0 sctp 48 -------S 0 1.0 0.0 1 44 96 65535 65535
+ 4.700211 0 1 sctp 1500 -------D 0 0.0 1.0 1 89 141 0 88
- 4.700211 0 1 sctp 1500 -------D 0 0.0 1.0 1 68 120 0 67
r 4.700219 1 0 sctp 48 -------S 0 1.0 0.0 1 45 97 65535 65535
+ 4.700219 0 1 sctp 1500 -------D 0 0.0 1.0 1 90 142 0 89
- 4.700219 0 1 sctp 1500 -------D 0 0.0 1.0 1 69 121 0 68
- 4.700227 0 1 sctp 1500 -------D 0 0.0 1.0 1 70 122 0 69
- 4.700235 0 1 sctp 1500 -------D 0 0.0 1.0 1 71 123 0 70
- 4.700243 0 1 sctp 1500 -------D 0 0.0 1.0 1 72 124 0 71
- 4.700251 0 1 sctp 1500 -------D 0 0.0 1.0 1 73 125 0 72
- 4.700259 0 1 sctp 1500 -------D 0 0.0 1.0 1 74 126 0 73
- 4.700267 0 1 sctp 1500 -------D 0 0.0 1.0 1 75 127 0 74
- 4.700275 0 1 sctp 1500 -------D 0 0.0 1.0 1 76 128 0 75
- 4.700283 0 1 sctp 1500 -------D 0 0.0 1.0 1 77 129 0 76
- 4.700291 0 1 sctp 1500 -------D 0 0.0 1.0 1 78 130 0 77
- 4.700299 0 1 sctp 1500 -------D 0 0.0 1.0 1 79 131 0 78
- 4.700307 0 1 sctp 1500 -------D 0 0.0 1.0 1 80 132 0 79
- 4.700315 0 1 sctp 1500 -------D 0 0.0 1.0 1 81 133 0 80
- 4.700323 0 1 sctp 1500 -------D 0 0.0 1.0 1 82 134 0 81
- 4.700331 0 1 sctp 1500 -------D 0 0.0 1.0 1 83 135 0 82
- 4.700339 0 1 sctp 1500 -------D 0 0.0 1.0 1 84 136 0 83
- 4.700347 0 1 sctp 1500 -------D 0 0.0 1.0 1 85 137 0 84
- 4.700355 0 1 sctp 1500 -------D 0 0.0 1.0 1 86 138 0 85
- 4.700363 0 1 sctp 1500 -------D 0 0.0 1.0 1 87 139 0 86
- 4.700371 0 1 sctp 1500 -------D 0 0.0 1.0 1 88 140 0 87
- 4.700379 0 1 sctp 1500 -------D 0 0.0 1.0 1 89 141 0 88
- 4.700387 0 1 sctp 1500 -------D 0 0.0 1.0 1 90 142 0 89
r 5.000043 0 1 sctp 1500 -------D 0 0.0 1.0 1 46 98 0 45
+ 5.000043 1 0 sctp 48 -------S 0 1.0 0.0 1 46 143 65535 65535
- 5.000043 1 0 sctp 48 -------S 0 1.0 0.0 1 46 143 65535 65535
r 5.000051 0 1 sctp 1500 -------D 0 0.0 1.0 1 47 99 0 46
+ 5.000051 1 0 sctp 48 -------S 0 1.0 0.0 1 47 144 65535 65535
- 5.000051 1 0 sctp 48 -------S 0 1.0 0.0 1 47 144 65535 65535
r 5.000059 0 1 sctp 1500 -------D 0 0.0 1.0 1 48 100 0 47
+ 5.000059 1 0 sctp 48 -------S 0 1.0 0.0 1 48 145 65535 65535
- 5.000059 1 0 sctp 48 -------S 0 1.0 0.0 1 48 145 65535 65535
r 5.000067 0 1 sctp 1500 -------D 0 0.0 1.0 1 49 101 0 48
+ 5.000067 1 0 sctp 48 -------S 0 1.0 0.0 1 49 146 65535 65535
- 5.000067 1 0 sctp 48 -------S 0 1.0 0.0 1 49 146 65535 65535
r 5.000075 0 1 sctp 1500 -------D 0 0.0 1.0 1 50 102 0 49
+ 5.000075 1 0 sctp 48 -------S 0 1.0 0.0 1 50 147 65535 65535
- 5.000075 1 0 sctp 48 -------S 0 1.0 0.0 1 50 147 65535 65535
r 5.000083 0 1 sctp 1500 -------D 0 0.0 1.0 1 51 103 0 50
+ 5.000083 1 0 sctp 48 -------S 0 1.0 0.0 1 51 148 65535 65535
- 5.000083 1 0 sctp 48 -------S 0 1.0 0.0 1 51 148 65535 65535
r 5.000091 0 1 sctp 1500 -------D 0 0.0 1.0 1 52 104 0 51
+ 5.000091 1 0 sctp 48 -------S 0 1.0 0.0 1 52 149 65535 65535
- 5.000091 1 0 sctp 48 -------S 0 1.0 0.0 1 52 149 65535 65535
r 5.000099 0 1 sctp 1500 -------D 0 0.0 1.0 1 53 105 0 52
+ 5.000099 1 0 sctp 48 -------S 0 1.0 0.0 1 53 150 65535 65535
- 5.000099 1 0 sctp 48 -------S 0 1.0 0.0 1 53 150 65535 65535
r 5.000107 0 1 sctp 1500 -------D 0 0.0 1.0 1 54 106 0 53
+ 5.000107 1 0 sctp 48 -------S 0 1.0 0.0 1 54 151 65535 65535
- 5.000107 1 0 sctp 48 -------S 0 1.0 0.0 1 54 151 65535 65535
r 5.000115 0 1 sctp 1500 -------D 0 0.0 1.0 1 55 107 0 54
+ 5.000115 1 0 sctp 48 -------S 0 1.0 0.0 1 55 152 65535 65535
- 5.000115 1 0 sctp 48 -------S 0 1.0 0.0 1 55 152 65535 65535
r 5.000123 0 1 sctp 1500 -------D 0 0.0 1.0 1 56 108 0 55
+ 5.000123 1 0 sctp 48 -------S 0 1.0 0.0 1 56 153 65535 65535
- 5.000123 1 0 sctp 48 -------S 0 1.0 0.0 1 56 153 65535 65535
r 5.000131 0 1 sctp 1500 -------D 0 0.0 1.0 1 57 109 0 56
+ 5.000131 1 0 sctp 48 -------S 0 1.0 0.0 1 57 154 65535 65535
- 5.000131 1 0 sctp 48 -------S 0 1.0 0.0 1 57 154 65535 65535
r 5.000139 0 1 sctp 1500 -------D 0 0.0 1.0 1 58 110 0 57
+ 5.000139 1 0 sctp 48 -------S 0 1.0 0.0 1 58 155 65535 65535
- 5.000139 1 0 sctp 48 -------S 0 1.0 0.0 1 58 155 65535 65535
r 5.000147 0 1 sctp 1500 -------D 0 0.0 1.0 1 59 111 0 58
+ 5.000147 1 0 sctp 48 -------S 0 1.0 0.0 1 59 156 65535 65535
- 5.000147 1 0 sctp 48 -------S 0 1.0 0.0 1 59 156 65535 65535
r 5.000155 0 1 sctp 1500 -------D 0 0.0 1.0 1 60 112 0 59
+ 5.000155 1 0 sctp 48 -------S 0 1.0 0.0 1 60 157 65535 65535
- 5.000155 1 0 sctp 48 -------S 0 1.0 0.0 1 60 157 65535 65535
r 5.000163 0 1 sctp 1500 -------D 0 0.0 1.0 1 61 113 0 60
+ 5.000163 1 0 sctp 48 -------S 0 1.0 0.0 1 61 158 65535 65535
- 5.000163 1 0 sctp 48 -------S 0 1.0 0.0 1 61 158 65535 65535
r 5.000171 0 1 sctp 1500 -------D 0 0.0 1.0 1 62 114 0 61
+ 5.000171 1 0 sctp 48 -------S 0 1.0 0.0 1 62 159 65535 65535
- 5.000171 1 0 sctp 48 -------S 0 1.0 0.0 1 62 159 65535 65535
r 5.000179 0 1 sctp 1500 -------D 0 0.0 1.0 1 63 115 0 62
+ 5.000179 1 0 sctp 48 -------S 0 1.0 0.0 1 63 160 65535 65535
- 5.000179 1 0 sctp 48 -------S 0 1.0 0.0 1 63 160 65535 65535
r 5.000187 0 1 sctp 1500 -------D 0 0.0 1.0 1 64 116 0 63
+ 5.000187 1 0 sctp 48 -------S 0 1.0 0.0 1 64 161 65535 65535
- 5.000187 1 0 sctp 48 -------S 0 1.0 0.0 1 64 161 65535 65535
r 5.000195 0 1 sctp 1500 -------D 0 0.0 1.0 1 65 117 0 64
+ 5.000195 1 0 sctp 48 -------S 0 1.0 0.0 1 65 162 65535 65535
- 5.000195 1 0 sctp 48 -------S 0 1.0 0.0 1 65 162 65535 65535
r 5.000203 0 1 sctp 1500 -------D 0 0.0 1.0 1 66 118 0 65
+ 5.000203 1 0 sctp 48 -------S 0 1.0 0.0 1 66 163 65535 65535
- 5.000203 1 0 sctp 48 -------S 0 1.0 0.0 1 66 163 65535 65535
r 5.000211 0 1 sctp 1500 -------D 0 0.0 1.0 1 67 119 0 66
+ 5.000211 1 0 sctp 48 -------S 0 1.0 0.0 1 67 164 65535 65535
- 5.000211 1 0 sctp 48 -------S 0 1.0 0.0 1 67 164 65535 65535
r 5.000219 0 1 sctp 1500 -------D 0 0.0 1.0 1 68 120 0 67
+ 5.000219 1 0 sctp 48 -------S 0 1.0 0.0 1 68 165 65535 65535
- 5.000219 1 0 sctp 48 -------S 0 1.0 0.0 1 68 165 65535 65535
r 5.000227 0 1 sctp 1500 -------D 0 0.0 1.0 1 69 121 0 68
+ 5.000227 1 0 sctp 48 -------S 0 1.0 0.0 1 69 166 65535 65535
- 5.000227 1 0 sctp 48 -------S 0 1.0 0.0 1 69 166 65535 65535
r 5.000235 0 1 sctp 1500 -------D 0 0.0 1.0 1 70 122 0 69
+ 5.000235 1 0 sctp 48 -------S 0 1.0 0.0 1 70 167 65535 65535
- 5.000235 1 0 sctp 48 -------S 0 1.0 0.0 1 70 167 65535 65535
r 5.000243 0 1 sctp 1500 -------D 0 0.0 1.0 1 71 123 0 70
+ 5.000243 1 0 sctp 48 -------S 0 1.0 0.0 1 71 168 65535 65535
- 5.000243 1 0 sctp 48 -------S 0 1.0 0.0 1 71 168 65535 65535
r 5.000251 0 1 sctp 1500 -------D 0 0.0 1.0 1 72 124 0 71
+ 5.000251 1 0 sctp 48 -------S 0 1.0 0.0 1 72 169 65535 65535
- 5.000251 1 0 sctp 48 -------S 0 1.0 0.0 1 72 169 65535 65535
r 5.000259 0 1 sctp 1500 -------D 0 0.0 1.0 1 73 125 0 72
+ 5.000259 1 0 sctp 48 -------S 0 1.0 0.0 1 73 170 65535 65535
- 5.000259 1 0 sctp 48 -------S 0 1.0 0.0 1 73 170 65535 65535
r 5.000267 0 1 sctp 1500 -------D 0 0.0 1.0 1 74 126 0 73
+ 5.000267 1 0 sctp 48 -------S 0 1.0 0.0 1 74 171 65535 65535
- 5.000267 1 0 sctp 48 -------S 0 1.0 0.0 1 74 171 65535 65535
r 5.000275 0 1 sctp 1500 -------D 0 0.0 1.0 1 75 127 0 74
+ 5.000275 1 0 sctp 48 -------S 0 1.0 0.0 1 75 172 65535 65535
- 5.000275 1 0 sctp 48 -------S 0 1.0 0.0 1 75 172 65535 65535
r 5.000283 0 1 sctp 1500 -------D 0 0.0 1.0 1 76 128 0 75
+ 5.000283 1 0 sctp 48 -------S 0 1.0 0.0 1 76 173 65535 65535
- 5.000283 1 0 sctp 48 -------S 0 1.0 0.0 1 76 173 65535 65535
r 5.000291 0 1 sctp 1500 -------D 0 0.0 1.0 1 77 129 0 76
+ 5.000291 1 0 sctp 48 -------S 0 1.0 0.0 1 77 174 65535 65535
- 5.000291 1 0 sctp 48 -------S 0 1.0 0.0 1 77 174 65535 65535
r 5.000299 0 1 sctp 1500 -------D 0 0.0 1.0 1 78 130 0 77
+ 5.000299 1 0 sctp 48 -------S 0 1.0 0.0 1 78 175 65535 65535
- 5.000299 1 0 sctp 48 -------S 0 1.0 0.0 1 78 175 65535 65535
r 5.000307 0 1 sctp 1500 -------D 0 0.0 1.0 1 79 131 0 78
+ 5.000307 1 0 sctp 48 -------S 0 1.0 0.0 1 79 176 65535 65535
- 5.000307 1 0 sctp 48 -------S 0 1.0 0.0 1 79 176 65535 65535
r 5.000315 0 1 sctp 1500 -------D 0 0.0 1.0 1 80 132 0 79
+ 5.000315 1 0 sctp 48 -------S 0 1.0 0.0 1 80 177 65535 65535
- 5.000315 1 0 sctp 48 -------S 0 1.0 0.0 1 80 177 65535 65535
r 5.000323 0 1 sctp 1500 -------D 0 0.0 1.0 1 81 133 0 80
+ 5.000323 1 0 sctp 48 -------S 0 1.0 0.0 1 81 178 65535 65535
- 5.000323 1 0 sctp 48 -------S 0 1.0 0.0 1 81 178 65535 65535
r 5.000331 0 1 sctp 1500 -------D 0 0.0 1.0 1 82 134 0 81
+ 5.000331 1 0 sctp 48 -------S 0 1.0 0.0 1 82 179 65535 65535
- 5.000331 1 0 sctp 48 -------S 0 1.0 0.0 1 82 179 65535 65535
r 5.000339 0 1 sctp 1500 -------D 0 0.0 1.0 1 83 135 0 82
+ 5.000339 1 0 sctp 48 -------S 0 1.0 0.0 1 83 180 65535 65535
- 5.000339 1 0 sctp 48 -------S 0 1.0 0.0 1 83 180 65535 65535
r 5.000347 0 1 sctp 1500 -------D 0 0.0 1.0 1 84 136 0 83
+ 5.000347 1 0 sctp 48 -------S 0 1.0 0.0 1 84 181 65535 65535
- 5.000347 1 0 sctp 48 -------S 0 1.0 0.0 1 84 181 65535 65535
r 5.000355 0 1 sctp 1500 -------D 0 0.0 1.0 1 85 137 0 84
+ 5.000355 1 0 sctp 48 -------S 0 1.0 0.0 1 85 182 65535 65535
- 5.000355 1 0 sctp 48 -------S 0 1.0 0.0 1 85 182 65535 65535
r 5.000363 0 1 sctp 1500 -------D 0 0.0 1.0 1 86 138 0 85
+ 5.000363 1 0 sctp 48 -------S 0 1.0 0.0 1 86 183 65535 65535
- 5.000363 1 0 sctp 48 -------S 0 1.0 0.0 1 86 183 65535 65535
r 5.000371 0 1 sctp 1500 -------D 0 0.0 1.0 1 87 139 0 86
+ 5.000371 1 0 sctp 48 -------S 0 1.0 0.0 1 87 184 65535 65535
- 5.000371 1 0 sctp 48 -------S 0 1.0 0.0 1 87 184 65535 65535
r 5.000379 0 1 sctp 1500 -------D 0 0.0 1.0 1 88 140 0 87