+ 0 1 4 sctp 56 -------I 0 1.0 4.0 1 -1 4 65535 65535
- 0 1 4 sctp 56 -------I 0 1.0 4.0 1 -1 4 65535 65535
r 0.045045 1 4 sctp 56 -------I 0 1.0 4.0 1 -1 4 65535 65535
+ 0.045045 4 1 sctp 56 -------I 0 4.0 1.0 1 -1 5 65535 65535
- 0.045045 4 1 sctp 56 -------I 0 4.0 1.0 1 -1 5 65535 65535
r 0.09009 4 1 sctp 56 -------I 0 4.0 1.0 1 -1 5 65535 65535
+ 0.09009 1 4 sctp 36 -------I 0 1.0 4.0 1 -1 6 65535 65535
- 0.09009 1 4 sctp 36 -------I 0 1.0 4.0 1 -1 6 65535 65535
r 0.135118 1 4 sctp 36 -------I 0 1.0 4.0 1 -1 6 65535 65535
+ 0.135118 4 1 sctp 36 -------I 0 4.0 1.0 1 -1 7 65535 65535
- 0.135118 4 1 sctp 36 -------I 0 4.0 1.0 1 -1 7 65535 65535
r 0.180147 4 1 sctp 36 -------I 0 4.0 1.0 1 -1 7 65535 65535
+ 0.180147 1 4 sctp 56 -------H 0 1.0 4.0 1 -1 8 65535 65535
- 0.180147 1 4 sctp 56 -------H 0 1.0 4.0 1 -1 8 65535 65535
+ 0.180147 2 5 sctp 56 -------H 0 2.0 5.0 1 -1 9 65535 65535
- 0.180147 2 5 sctp 56 -------H 0 2.0 5.0 1 -1 9 65535 65535
r 0.225192 1 4 sctp 56 -------H 0 1.0 4.0 1 -1 8 65535 65535
+ 0.225192 4 1 sctp 56 -------B 0 4.0 1.0 1 -1 10 65535 65535
- 0.225192 4 1 sctp 56 -------B 0 4.0 1.0 1 -1 10 65535 65535
r 0.225192 2 5 sctp 56 -------H 0 2.0 5.0 1 -1 9 65535 65535
+ 0.225192 5 2 sctp 56 -------B 0 5.0 2.0 1 -1 11 65535 65535
- 0.225192 5 2 sctp 56 -------B 0 5.0 2.0 1 -1 11 65535 65535
r 0.270237 4 1 sctp 56 -------B 0 4.0 1.0 1 -1 10 65535 65535
r 0.270237 5 2 sctp 56 -------B 0 5.0 2.0 1 -1 11 65535 65535
+ 0.270237 1 4 sctp 1500 -------D 0 1.0 4.0 1 1 12 0 0
- 0.270237 1 4 sctp 1500 -------D 0 1.0 4.0 1 1 12 0 0
+ 0.270237 1 4 sctp 1500 -------D 0 1.0 4.0 1 2 13 0 1
+ 0.270237 1 4 sctp 1500 -------D 0 1.0 4.0 1 3 14 0 2
+ 0.270237 2 5 sctp 1500 -------D 0 2.0 5.0 1 4 15 0 3
- 0.270237 2 5 sctp 1500 -------D 0 2.0 5.0 1 4 15 0 3
+ 0.270237 2 5 sctp 1500 -------D 0 2.0 5.0 1 5 16 0 4
+ 0.270237 2 5 sctp 1500 -------D 0 2.0 5.0 1 6 17 0 5
- 0.271437 1 4 sctp 1500 -------D 0 1.0 4.0 1 2 13 0 1
- 0.271437 2 5 sctp 1500 -------D 0 2.0 5.0 1 5 16 0 4
- 0.272637 1 4 sctp 1500 -------D 0 1.0 4.0 1 3 14 0 2
- 0.272637 2 5 sctp 1500 -------D 0 2.0 5.0 1 6 17 0 5
r 0.316437 1 4 sctp 1500 -------D 0 1.0 4.0 1 1 12 0 0
r 0.316437 2 5 sctp 1500 -------D 0 2.0 5.0 1 4 15 0 3
+ 0.316437 5 2 sctp 52 -------S 0 5.0 2.0 1 1 18 65535 65535
- 0.316437 5 2 sctp 52 -------S 0 5.0 2.0 1 1 18 65535 65535
r 0.317637 1 4 sctp 1500 -------D 0 1.0 4.0 1 2 13 0 1
r 0.317637 2 5 sctp 1500 -------D 0 2.0 5.0 1 5 16 0 4
+ 0.317637 5 2 sctp 52 -------S 0 5.0 2.0 1 2 19 65535 65535
- 0.317637 5 2 sctp 52 -------S 0 5.0 2.0 1 2 19 65535 65535
r 0.318837 1 4 sctp 1500 -------D 0 1.0 4.0 1 3 14 0 2
r 0.318837 2 5 sctp 1500 -------D 0 2.0 5.0 1 6 17 0 5
+ 0.318837 5 2 sctp 48 -------S 0 5.0 2.0 1 6 20 65535 65535
- 0.318837 5 2 sctp 48 -------S 0 5.0 2.0 1 6 20 65535 65535
r 0.361478 5 2 sctp 52 -------S 0 5.0 2.0 1 1 18 65535 65535
d 0.361478 1 4 sctp 1500 -------D 0 1.0 4.0 1 7 21 0 6
d 0.361478 1 4 sctp 1500 -------D 0 1.0 4.0 1 8 22 0 7
+ 0.361478 2 5 sctp 1500 -------D 0 2.0 5.0 1 9 23 0 8
- 0.361478 2 5 sctp 1500 -------D 0 2.0 5.0 1 9 23 0 8
+ 0.361478 2 5 sctp 1500 -------D 0 2.0 5.0 1 10 24 0 9
r 0.362678 5 2 sctp 52 -------S 0 5.0 2.0 1 2 19 65535 65535
d 0.362678 1 4 sctp 1500 -------D 0 1.0 4.0 1 11 25 0 10
d 0.362678 1 4 sctp 1500 -------D 0 1.0 4.0 1 12 26 0 11
+ 0.362678 2 5 sctp 1500 -------D 0 2.0 5.0 1 13 27 0 12
+ 0.362678 2 5 sctp 1500 -------D 0 2.0 5.0 1 14 28 0 13
- 0.362678 2 5 sctp 1500 -------D 0 2.0 5.0 1 10 24 0 9
r 0.363875 5 2 sctp 48 -------S 0 5.0 2.0 1 6 20 65535 65535
d 0.363875 1 4 sctp 1500 -------D 0 1.0 4.0 1 15 29 0 14
d 0.363875 1 4 sctp 1500 -------D 0 1.0 4.0 1 16 30 0 15
+ 0.363875 2 5 sctp 1500 -------D 0 2.0 5.0 1 17 31 0 16
+ 0.363875 2 5 sctp 1500 -------D 0 2.0 5.0 1 18 32 0 17
- 0.363878 2 5 sctp 1500 -------D 0 2.0 5.0 1 13 27 0 12
- 0.365078 2 5 sctp 1500 -------D 0 2.0 5.0 1 14 28 0 13
- 0.366278 2 5 sctp 1500 -------D 0 2.0 5.0 1 17 31 0 16
- 0.367478 2 5 sctp 1500 -------D 0 2.0 5.0 1 18 32 0 17
r 0.407678 2 5 sctp 1500 -------D 0 2.0 5.0 1 9 23 0 8
r 0.408878 2 5 sctp 1500 -------D 0 2.0 5.0 1 10 24 0 9
+ 0.408878 5 2 sctp 52 -------S 0 5.0 2.0 1 6 33 65535 65535
- 0.408878 5 2 sctp 52 -------S 0 5.0 2.0 1 6 33 65535 65535
r 0.410078 2 5 sctp 1500 -------D 0 2.0 5.0 1 13 27 0 12
r 0.411278 2 5 sctp 1500 -------D 0 2.0 5.0 1 14 28 0 13
+ 0.411278 5 2 sctp 56 -------S 0 5.0 2.0 1 6 34 65535 65535
- 0.411278 5 2 sctp 56 -------S 0 5.0 2.0 1 6 34 65535 65535
r 0.412478 2 5 sctp 1500 -------D 0 2.0 5.0 1 17 31 0 16
r 0.413678 2 5 sctp 1500 -------D 0 2.0 5.0 1 18 32 0 17
+ 0.413678 5 2 sctp 60 -------S 0 5.0 2.0 1 6 35 65535 65535
- 0.413678 5 2 sctp 60 -------S 0 5.0 2.0 1 6 35 65535 65535
r 0.45392 5 2 sctp 52 -------S 0 5.0 2.0 1 6 33 65535 65535
+ 0.45392 2 5 sctp 1500 -------D 0 2.0 5.0 1 19 36 0 18
- 0.45392 2 5 sctp 1500 -------D 0 2.0 5.0 1 19 36 0 18
+ 0.45392 2 5 sctp 1500 -------D 0 2.0 5.0 1 20 37 0 19
+ 0.45392 2 5 sctp 1500 -------D 0 2.0 5.0 1 21 38 0 20
- 0.45512 2 5 sctp 1500 -------D 0 2.0 5.0 1 20 37 0 19
- 0.45632 2 5 sctp 1500 -------D 0 2.0 5.0 1 21 38 0 20
r 0.456323 5 2 sctp 56 -------S 0 5.0 2.0 1 6 34 65535 65535
+ 0.456323 2 5 sctp 1500 -------D 0 2.0 5.0 1 22 39 0 21
+ 0.456323 2 5 sctp 1500 -------D 0 2.0 5.0 1 23 40 0 22
+ 0.456323 2 5 sctp 1500 -------D 0 2.0 5.0 1 24 41 0 23
- 0.45752 2 5 sctp 1500 -------D 0 2.0 5.0 1 22 39 0 21
- 0.45872 2 5 sctp 1500 -------D 0 2.0 5.0 1 23 40 0 22
r 0.458726 5 2 sctp 60 -------S 0 5.0 2.0 1 6 35 65535 65535
+ 0.458726 2 5 sctp 1500 -------D 0 2.0 5.0 1 25 42 0 24
+ 0.458726 2 5 sctp 1500 -------D 0 2.0 5.0 1 26 43 0 25
+ 0.458726 2 5 sctp 1500 -------D 0 2.0 5.0 1 27 44 0 26
- 0.45992 2 5 sctp 1500 -------D 0 2.0 5.0 1 24 41 0 23
- 0.46112 2 5 sctp 1500 -------D 0 2.0 5.0 1 25 42 0 24
- 0.46232 2 5 sctp 1500 -------D 0 2.0 5.0 1 26 43 0 25
- 0.46352 2 5 sctp 1500 -------D 0 2.0 5.0 1 27 44 0 26
r 0.50012 2 5 sctp 1500 -------D 0 2.0 5.0 1 19 36 0 18
r 0.50132 2 5 sctp 1500 -------D 0 2.0 5.0 1 20 37 0 19
+ 0.50132 5 2 sctp 60 -------S 0 5.0 2.0 1 6 45 65535 65535
- 0.50132 5 2 sctp 60 -------S 0 5.0 2.0 1 6 45 65535 65535
r 0.50252 2 5 sctp 1500 -------D 0 2.0 5.0 1 21 38 0 20
r 0.50372 2 5 sctp 1500 -------D 0 2.0 5.0 1 22 39 0 21
+ 0.50372 5 2 sctp 60 -------S 0 5.0 2.0 1 6 46 65535 65535
- 0.50372 5 2 sctp 60 -------S 0 5.0 2.0 1 6 46 65535 65535
r 0.50492 2 5 sctp 1500 -------D 0 2.0 5.0 1 23 40 0 22
r 0.50612 2 5 sctp 1500 -------D 0 2.0 5.0 1 24 41 0 23
+ 0.50612 5 2 sctp 60 -------S 0 5.0 2.0 1 6 47 65535 65535
- 0.50612 5 2 sctp 60 -------S 0 5.0 2.0 1 6 47 65535 65535
r 0.50732 2 5 sctp 1500 -------D 0 2.0 5.0 1 25 42 0 24
r 0.50852 2 5 sctp 1500 -------D 0 2.0 5.0 1 26 43 0 25
+ 0.50852 5 2 sctp 60 -------S 0 5.0 2.0 1 6 48 65535 65535
- 0.50852 5 2 sctp 60 -------S 0 5.0 2.0 1 6 48 65535 65535
r 0.50972 2 5 sctp 1500 -------D 0 2.0 5.0 1 27 44 0 26
r 0.546368 5 2 sctp 60 -------S 0 5.0 2.0 1 6 45 65535 65535
+ 0.546368 2 5 sctp 1500 -------D 0 2.0 5.0 1 28 49 0 27
- 0.546368 2 5 sctp 1500 -------D 0 2.0 5.0 1 28 49 0 27
+ 0.546368 2 5 sctp 1500 -------D 0 2.0 5.0 1 29 50 0 28
+ 0.546368 2 5 sctp 1500 -------D 0 2.0 5.0 1 30 51 0 29
- 0.547568 2 5 sctp 1500 -------D 0 2.0 5.0 1 29 50 0 28
r 0.548768 5 2 sctp 60 -------S 0 5.0 2.0 1 6 46 65535 65535
+ 0.548768 2 5 sctp 1500 -------D 0 2.0 5.0 1 31 52 0 30
+ 0.548768 2 5 sctp 1500 -------D 0 2.0 5.0 1 32 53 0 31
+ 0.548768 2 5 sctp 1500 -------D 0 2.0 5.0 1 33 54 0 32
- 0.548768 2 5 sctp 1500 -------D 0 2.0 5.0 1 30 51 0 29
- 0.549968 2 5 sctp 1500 -------D 0 2.0 5.0 1 31 52 0 30
r 0.551168 5 2 sctp 60 -------S 0 5.0 2.0 1 6 47 65535 65535
+ 0.551168 2 5 sctp 1500 -------D 0 2.0 5.0 1 34 55 0 33
+ 0.551168 2 5 sctp 1500 -------D 0 2.0 5.0 1 35 56 0 34
- 0.551168 2 5 sctp 1500 -------D 0 2.0 5.0 1 32 53 0 31
- 0.552368 2 5 sctp 1500 -------D 0 2.0 5.0 1 33 54 0 32
r 0.553568 5 2 sctp 60 -------S 0 5.0 2.0 1 6 48 65535 65535
+ 0.553568 2 5 sctp 1500 -------D 0 2.0 5.0 1 36 57 0 35
+ 0.553568 2 5 sctp 1500 -------D 0 2.0 5.0 1 37 58 0 36
- 0.553568 2 5 sctp 1500 -------D 0 2.0 5.0 1 34 55 0 33
- 0.554768 2 5 sctp 1500 -------D 0 2.0 5.0 1 35 56 0 34
- 0.555968 2 5 sctp 1500 -------D 0 2.0 5.0 1 36 57 0 35
- 0.557168 2 5 sctp 1500 -------D 0 2.0 5.0 1 37 58 0 36
r 0.592568 2 5 sctp 1500 -------D 0 2.0 5.0 1 28 49 0 27
+ 0.592568 5 2 sctp 60 -------S 0 5.0 2.0 1 6 59 65535 65535
- 0.592568 5 2 sctp 60 -------S 0 5.0 2.0 1 6 59 65535 65535
r 0.593768 2 5 sctp 1500 -------D 0 2.0 5.0 1 29 50 0 28
r 0.594968 2 5 sctp 1500 -------D 0 2.0 5.0 1 30 51 0 29
+ 0.594968 5 2 sctp 60 -------S 0 5.0 2.0 1 6 60 65535 65535
- 0.594968 5 2 sctp 60 -------S 0 5.0 2.0 1 6 60 65535 65535
r 0.596168 2 5 sctp 1500 -------D 0 2.0 5.0 1 31 52 0 30
r 0.597368 2 5 sctp 1500 -------D 0 2.0 5.0 1 32 53 0 31
+ 0.597368 5 2 sctp 60 -------S 0 5.0 2.0 1 6 61 65535 65535
- 0.597368 5 2 sctp 60 -------S 0 5.0 2.0 1 6 61 65535 65535
r 0.598568 2 5 sctp 1500 -------D 0 2.0 5.0 1 33 54 0 32
r 0.599768 2 5 sctp 1500 -------D 0 2.0 5.0 1 34 55 0 33
+ 0.599768 5 2 sctp 60 -------S 0 5.0 2.0 1 6 62 65535 65535
- 0.599768 5 2 sctp 60 -------S 0 5.0 2.0 1 6 62 65535 65535
r 0.600968 2 5 sctp 1500 -------D 0 2.0 5.0 1 35 56 0 34
r 0.602168 2 5 sctp 1500 -------D 0 2.0 5.0 1 36 57 0 35
+ 0.602168 5 2 sctp 60 -------S 0 5.0 2.0 1 6 63 65535 65535
- 0.602168 5 2 sctp 60 -------S 0 5.0 2.0 1 6 63 65535 65535
r 0.603368 2 5 sctp 1500 -------D 0 2.0 5.0 1 37 58 0 36
r 0.637616 5 2 sctp 60 -------S 0 5.0 2.0 1 6 59 65535 65535
+ 0.637616 2 5 sctp 1500 -------D 0 2.0 5.0 1 38 64 0 37
- 0.637616 2 5 sctp 1500 -------D 0 2.0 5.0 1 38 64 0 37
+ 0.637616 2 5 sctp 1500 -------D 0 2.0 5.0 1 39 65 0 38
- 0.638816 2 5 sctp 1500 -------D 0 2.0 5.0 1 39 65 0 38
r 0.640016 5 2 sctp 60 -------S 0 5.0 2.0 1 6 60 65535 65535
+ 0.640016 2 5 sctp 1500 -------D 0 2.0 5.0 1 40 66 0 39
+ 0.640016 2 5 sctp 1500 -------D 0 2.0 5.0 1 41 67 0 40
- 0.640016 2 5 sctp 1500 -------D 0 2.0 5.0 1 40 66 0 39
- 0.641216 2 5 sctp 1500 -------D 0 2.0 5.0 1 41 67 0 40
r 0.642416 5 2 sctp 60 -------S 0 5.0 2.0 1 6 61 65535 65535
+ 0.642416 2 5 sctp 1500 -------D 0 2.0 5.0 1 42 68 0 41
+ 0.642416 2 5 sctp 1500 -------D 0 2.0 5.0 1 43 69 0 42
- 0.642416 2 5 sctp 1500 -------D 0 2.0 5.0 1 42 68 0 41
- 0.643616 2 5 sctp 1500 -------D 0 2.0 5.0 1 43 69 0 42
r 0.644816 5 2 sctp 60 -------S 0 5.0 2.0 1 6 62 65535 65535
+ 0.644816 2 5 sctp 1500 -------D 0 2.0 5.0 1 44 70 0 43
+ 0.644816 2 5 sctp 1500 -------D 0 2.0 5.0 1 45 71 0 44
+ 0.644816 2 5 sctp 1500 -------D 0 2.0 5.0 1 46 72 0 45
- 0.644816 2 5 sctp 1500 -------D 0 2.0 5.0 1 44 70 0 43
- 0.646016 2 5 sctp 1500 -------D 0 2.0 5.0 1 45 71 0 44
r 0.647216 5 2 sctp 60 -------S 0 5.0 2.0 1 6 63 65535 65535
+ 0.647216 2 5 sctp 1500 -------D 0 2.0 5.0 1 47 73 0 46
+ 0.647216 2 5 sctp 1500 -------D 0 2.0 5.0 1 48 74 0 47
- 0.647216 2 5 sctp 1500 -------D 0 2.0 5.0 1 46 72 0 45
- 0.648416 2 5 sctp 1500 -------D 0 2.0 5.0 1 47 73 0 46
- 0.649616 2 5 sctp 1500 -------D 0 2.0 5.0 1 48 74 0 47
r 0.683816 2 5 sctp 1500 -------D 0 2.0 5.0 1 38 64 0 37
+ 0.683816 5 2 sctp 60 -------S 0 5.0 2.0 1 6 75 65535 65535
- 0.683816 5 2 sctp 60 -------S 0 5.0 2.0 1 6 75 65535 65535
r 0.685016 2 5 sctp 1500 -------D 0 2.0 5.0 1 39 65 0 38
r 0.686216 2 5 sctp 1500 -------D 0 2.0 5.0 1 40 66 0 39
+ 0.686216 5 2 sctp 60 -------S 0 5.0 2.0 1 6 76 65535 65535
- 0.686216 5 2 sctp 60 -------S 0 5.0 2.0 1 6 76 65535 65535
r 0.687416 2 5 sctp 1500 -------D 0 2.0 5.0 1 41 67 0 40
r 0.688616 2 5 sctp 1500 -------D 0 2.0 5.0 1 42 68 0 41
+ 0.688616 5 2 sctp 60 -------S 0 5.0 2.0 1 6 77 65535 65535
- 0.688616 5 2 sctp 60 -------S 0 5.0 2.0 1 6 77 65535 65535
r 0.689816 2 5 sctp 1500 -------D 0 2.0 5.0 1 43 69 0 42
r 0.691016 2 5 sctp 1500 -------D 0 2.0 5.0 1 44 70 0 43
+ 0.691016 5 2 sctp 60 -------S 0 5.0 2.0 1 6 78 65535 65535
- 0.691016 5 2 sctp 60 -------S 0 5.0 2.0 1 6 78 65535 65535
r 0.692216 2 5 sctp 1500 -------D 0 2.0 5.0 1 45 71 0 44
r 0.693416 2 5 sctp 1500 -------D 0 2.0 5.0 1 46 72 0 45
+ 0.693416 5 2 sctp 60 -------S 0 5.0 2.0 1 6 79 65535 65535
- 0.693416 5 2 sctp 60 -------S 0 5.0 2.0 1 6 79 65535 65535
r 0.694616 2 5 sctp 1500 -------D 0 2.0 5.0 1 47 73 0 46
r 0.695816 2 5 sctp 1500 -------D 0 2.0 5.0 1 48 74 0 47
+ 0.695816 5 2 sctp 60 -------S 0 5.0 2.0 1 6 80 65535 65535
- 0.695816 5 2 sctp 60 -------S 0 5.0 2.0 1 6 80 65535 65535
r 0.728864 5 2 sctp 60 -------S 0 5.0 2.0 1 6 75 65535 65535
+ 0.728864 2 5 sctp 1500 -------D 0 2.0 5.0 1 49 81 0 48
- 0.728864 2 5 sctp 1500 -------D 0 2.0 5.0 1 49 81 0 48
+ 0.728864 2 5 sctp 1500 -------D 0 2.0 5.0 1 50 82 0 49
- 0.730064 2 5 sctp 1500 -------D 0 2.0 5.0 1 50 82 0 49
r 0.731264 5 2 sctp 60 -------S 0 5.0 2.0 1 6 76 65535 65535
r 0.733664 5 2 sctp 60 -------S 0 5.0 2.0 1 6 77 65535 65535
r 0.736064 5 2 sctp 60 -------S 0 5.0 2.0 1 6 78 65535 65535
r 0.738464 5 2 sctp 60 -------S 0 5.0 2.0 1 6 79 65535 65535
r 0.740864 5 2 sctp 60 -------S 0 5.0 2.0 1 6 80 65535 65535
r 0.775064 2 5 sctp 1500 -------D 0 2.0 5.0 1 49 81 0 48
r 0.776264 2 5 sctp 1500 -------D 0 2.0 5.0 1 50 82 0 49
+ 0.776264 5 2 sctp 60 -------S 0 5.0 2.0 1 6 83 65535 65535
- 0.776264 5 2 sctp 60 -------S 0 5.0 2.0 1 6 83 65535 65535
r 0.821312 5 2 sctp 60 -------S 0 5.0 2.0 1 6 83 65535 65535
+ 1.363875 2 5 sctp 1500 -------D 0 2.0 5.0 1 7 84 0 6
- 1.363875 2 5 sctp 1500 -------D 0 2.0 5.0 1 7 84 0 6
+ 1.363875 2 5 sctp 1500 -------D 0 2.0 5.0 1 8 85 0 7
+ 1.363875 2 5 sctp 1500 -------D 0 2.0 5.0 1 11 86 0 10
+ 1.363875 2 5 sctp 1500 -------D 0 2.0 5.0 1 12 87 0 11
+ 1.363875 2 5 sctp 1500 -------D 0 2.0 5.0 1 15 88 0 14
+ 1.363875 2 5 sctp 1500 -------D 0 2.0 5.0 1 16 89 0 15
- 1.365075 2 5 sctp 1500 -------D 0 2.0 5.0 1 8 85 0 7
- 1.366275 2 5 sctp 1500 -------D 0 2.0 5.0 1 11 86 0 10
- 1.367475 2 5 sctp 1500 -------D 0 2.0 5.0 1 12 87 0 11
- 1.368675 2 5 sctp 1500 -------D 0 2.0 5.0 1 15 88 0 14
- 1.369875 2 5 sctp 1500 -------D 0 2.0 5.0 1 16 89 0 15
r 1.410075 2 5 sctp 1500 -------D 0 2.0 5.0 1 7 84 0 6
r 1.411275 2 5 sctp 1500 -------D 0 2.0 5.0 1 8 85 0 7
+ 1.411275 5 2 sctp 56 -------S 0 5.0 2.0 1 10 90 65535 65535
- 1.411275 5 2 sctp 56 -------S 0 5.0 2.0 1 10 90 65535 65535
r 1.412475 2 5 sctp 1500 -------D 0 2.0 5.0 1 11 86 0 10
r 1.413675 2 5 sctp 1500 -------D 0 2.0 5.0 1 12 87 0 11
+ 1.413675 5 2 sctp 52 -------S 0 5.0 2.0 1 14 91 65535 65535
- 1.413675 5 2 sctp 52 -------S 0 5.0 2.0 1 14 91 65535 65535
r 1.414875 2 5 sctp 1500 -------D 0 2.0 5.0 1 15 88 0 14
r 1.416075 2 5 sctp 1500 -------D 0 2.0 5.0 1 16 89 0 15
+ 1.416075 5 2 sctp 48 -------S 0 5.0 2.0 1 50 92 65535 65535
- 1.416075 5 2 sctp 48 -------S 0 5.0 2.0 1 50 92 65535 65535
r 1.45632 5 2 sctp 56 -------S 0 5.0 2.0 1 10 90 65535 65535
+ 1.45632 1 4 sctp 1500 -------D 0 1.0 4.0 1 51 93 0 50
- 1.45632 1 4 sctp 1500 -------D 0 1.0 4.0 1 51 93 0 50
+ 1.45632 2 5 sctp 1500 -------D 0 2.0 5.0 1 52 94 0 51
- 1.45632 2 5 sctp 1500 -------D 0 2.0 5.0 1 52 94 0 51
+ 1.45632 2 5 sctp 1500 -------D 0 2.0 5.0 1 53 95 0 52
+ 1.45632 2 5 sctp 1500 -------D 0 2.0 5.0 1 54 96 0 53
- 1.45752 2 5 sctp 1500 -------D 0 2.0 5.0 1 53 95 0 52
r 1.458717 5 2 sctp 52 -------S 0 5.0 2.0 1 14 91 65535 65535
+ 1.458717 2 5 sctp 1500 -------D 0 2.0 5.0 1 55 97 0 54
+ 1.458717 2 5 sctp 1500 -------D 0 2.0 5.0 1 56 98 0 55
+ 1.458717 2 5 sctp 1500 -------D 0 2.0 5.0 1 57 99 0 56
+ 1.458717 2 5 sctp 1500 -------D 0 2.0 5.0 1 58 100 0 57
- 1.45872 2 5 sctp 1500 -------D 0 2.0 5.0 1 54 96 0 53
- 1.45992 2 5 sctp 1500 -------D 0 2.0 5.0 1 55 97 0 54
r 1.461114 5 2 sctp 48 -------S 0 5.0 2.0 1 50 92 65535 65535
+ 1.461114 2 5 sctp 1500 -------D 0 2.0 5.0 1 59 101 0 58
+ 1.461114 2 5 sctp 1500 -------D 0 2.0 5.0 1 60 102 0 59
+ 1.461114 2 5 sctp 1500 -------D 0 2.0 5.0 1 61 103 0 60
+ 1.461114 2 5 sctp 1500 -------D 0 2.0 5.0 1 62 104 0 61
- 1.46112 2 5 sctp 1500 -------D 0 2.0 5.0 1 56 98 0 55
- 1.46232 2 5 sctp 1500 -------D 0 2.0 5.0 1 57 99 0 56
- 1.46352 2 5 sctp 1500 -------D 0 2.0 5.0 1 58 100 0 57
- 1.46472 2 5 sctp 1500 -------D 0 2.0 5.0 1 59 101 0 58
- 1.46592 2 5 sctp 1500 -------D 0 2.0 5.0 1 60 102 0 59
- 1.46712 2 5 sctp 1500 -------D 0 2.0 5.0 1 61 103 0 60
- 1.46832 2 5 sctp 1500 -------D 0 2.0 5.0 1 62 104 0 61
r 1.50252 1 4 sctp 1500 -------D 0 1.0 4.0 1 51 93 0 50
r 1.50252 2 5 sctp 1500 -------D 0 2.0 5.0 1 52 94 0 51
+ 1.50252 5 2 sctp 48 -------S 0 5.0 2.0 1 52 105 65535 65535
- 1.50252 5 2 sctp 48 -------S 0 5.0 2.0 1 52 105 65535 65535
r 1.50372 2 5 sctp 1500 -------D 0 2.0 5.0 1 53 95 0 52
r 1.50492 2 5 sctp 1500 -------D 0 2.0 5.0 1 54 96 0 53
+ 1.50492 5 2 sctp 48 -------S 0 5.0 2.0 1 54 106 65535 65535
- 1.50492 5 2 sctp 48 -------S 0 5.0 2.0 1 54 106 65535 65535
r 1.50612 2 5 sctp 1500 -------D 0 2.0 5.0 1 55 97 0 54
r 1.50732 2 5 sctp 1500 -------D 0 2.0 5.0 1 56 98 0 55
+ 1.50732 5 2 sctp 48 -------S 0 5.0 2.0 1 56 107 65535 65535
- 1.50732 5 2 sctp 48 -------S 0 5.0 2.0 1 56 107 65535 65535
r 1.50852 2 5 sctp 1500 -------D 0 2.0 5.0 1 57 99 0 56
r 1.50972 2 5 sctp 1500 -------D 0 2.0 5.0 1 58 100 0 57
+ 1.50972 5 2 sctp 48 -------S 0 5.0 2.0 1 58 108 65535 65535
- 1.50972 5 2 sctp 48 -------S 0 5.0 2.0 1 58 108 65535 65535
r 1.51092 2 5 sctp 1500 -------D 0 2.0 5.0 1 59 101 0 58
r 1.51212 2 5 sctp 1500 -------D 0 2.0 5.0 1 60 102 0 59
+ 1.51212 5 2 sctp 48 -------S 0 5.0 2.0 1 60 109 65535 65535
- 1.51212 5 2 sctp 48 -------S 0 5.0 2.0 1 60 109 65535 65535
r 1.51332 2 5 sctp 1500 -------D 0 2.0 5.0 1 61 103 0 60
r 1.51452 2 5 sctp 1500 -------D 0 2.0 5.0 1 62 104 0 61
+ 1.51452 5 2 sctp 48 -------S 0 5.0 2.0 1 62 110 65535 65535
- 1.51452 5 2 sctp 48 -------S 0 5.0 2.0 1 62 110 65535 65535
r 1.547558 5 2 sctp 48 -------S 0 5.0 2.0 1 52 105 65535 65535
+ 1.547558 1 4 sctp 1500 -------D 0 1.0 4.0 1 63 111 0 62
- 1.547558 1 4 sctp 1500 -------D 0 1.0 4.0 1 63 111 0 62
+ 1.547558 1 4 sctp 1500 -------D 0 1.0 4.0 1 64 112 0 63
+ 1.547558 2 5 sctp 1500 -------D 0 2.0 5.0 1 65 113 0 64
- 1.547558 2 5 sctp 1500 -------D 0 2.0 5.0 1 65 113 0 64
+ 1.547558 2 5 sctp 1500 -------D 0 2.0 5.0 1 66 114 0 65
- 1.548758 1 4 sctp 1500 -------D 0 1.0 4.0 1 64 112 0 63
- 1.548758 2 5 sctp 1500 -------D 0 2.0 5.0 1 66 114 0 65
r 1.549958 5 2 sctp 48 -------S 0 5.0 2.0 1 54 106 65535 65535
+ 1.549958 2 5 sctp 1500 -------D 0 2.0 5.0 1 67 115 0 66
+ 1.549958 2 5 sctp 1500 -------D 0 2.0 5.0 1 68 116 0 67
- 1.549958 2 5 sctp 1500 -------D 0 2.0 5.0 1 67 115 0 66
- 1.551158 2 5 sctp 1500 -------D 0 2.0 5.0 1 68 116 0 67
r 1.552358 5 2 sctp 48 -------S 0 5.0 2.0 1 56 107 65535 65535
+ 1.552358 2 5 sctp 1500 -------D 0 2.0 5.0 1 69 117 0 68
+ 1.552358 2 5 sctp 1500 -------D 0 2.0 5.0 1 70 118 0 69
- 1.552358 2 5 sctp 1500 -------D 0 2.0 5.0 1 69 117 0 68
- 1.553558 2 5 sctp 1500 -------D 0 2.0 5.0 1 70 118 0 69
r 1.554758 5 2 sctp 48 -------S 0 5.0 2.0 1 58 108 65535 65535
+ 1.554758 2 5 sctp 1500 -------D 0 2.0 5.0 1 71 119 0 70
+ 1.554758 2 5 sctp 1500 -------D 0 2.0 5.0 1 72 120 0 71
- 1.554758 2 5 sctp 1500 -------D 0 2.0 5.0 1 71 119 0 70
- 1.555958 2 5 sctp 1500 -------D 0 2.0 5.0 1 72 120 0 71
r 1.557158 5 2 sctp 48 -------S 0 5.0 2.0 1 60 109 65535 65535
+ 1.557158 2 5 sctp 1500 -------D 0 2.0 5.0 1 73 121 0 72
+ 1.557158 2 5 sctp 1500 -------D 0 2.0 5.0 1 74 122 0 73
- 1.557158 2 5 sctp 1500 -------D 0 2.0 5.0 1 73 121 0 72
- 1.558358 2 5 sctp 1500 -------D 0 2.0 5.0 1 74 122 0 73
r 1.559558 5 2 sctp 48 -------S 0 5.0 2.0 1 62 110 65535 65535
+ 1.559558 2 5 sctp 1500 -------D 0 2.0 5.0 1 75 123 0 74
+ 1.559558 2 5 sctp 1500 -------D 0 2.0 5.0 1 76 124 0 75
- 1.559558 2 5 sctp 1500 -------D 0 2.0 5.0 1 75 123 0 74
- 1.560758 2 5 sctp 1500 -------D 0 2.0 5.0 1 76 124 0 75
r 1.593758 1 4 sctp 1500 -------D 0 1.0 4.0 1 63 111 0 62
r 1.593758 2 5 sctp 1500 -------D 0 2.0 5.0 1 65 113 0 64
+ 1.593758 5 2 sctp 52 -------S 0 5.0 2.0 1 63 125 65535 65535
- 1.593758 5 2 sctp 52 -------S 0 5.0 2.0 1 63 125 65535 65535
r 1.594958 1 4 sctp 1500 -------D 0 1.0 4.0 1 64 112 0 63
r 1.594958 2 5 sctp 1500 -------D 0 2.0 5.0 1 66 114 0 65
+ 1.594958 5 2 sctp 48 -------S 0 5.0 2.0 1 66 126 65535 65535
- 1.594958 5 2 sctp 48 -------S 0 5.0 2.0 1 66 126 65535 65535
r 1.596158 2 5 sctp 1500 -------D 0 2.0 5.0 1 67 115 0 66
r 1.597358 2 5 sctp 1500 -------D 0 2.0 5.0 1 68 116 0 67
+ 1.597358 5 2 sctp 48 -------S 0 5.0 2.0 1 68 127 65535 65535
- 1.597358 5 2 sctp 48 -------S 0 5.0 2.0 1 68 127 65535 65535
r 1.598558 2 5 sctp 1500 -------D 0 2.0 5.0 1 69 117 0 68
r 1.599758 2 5 sctp 1500 -------D 0 2.0 5.0 1 70 118 0 69
+ 1.599758 5 2 sctp 48 -------S 0 5.0 2.0 1 70 128 65535 65535
- 1.599758 5 2 sctp 48 -------S 0 5.0 2.0 1 70 128 65535 65535
r 1.600958 2 5 sctp 1500 -------D 0 2.0 5.0 1 71 119 0 70
r 1.602158 2 5 sctp 1500 -------D 0 2.0 5.0 1 72 120 0 71
+ 1.602158 5 2 sctp 48 -------S 0 5.0 2.0 1 72 129 65535 65535
- 1.602158 5 2 sctp 48 -------S 0 5.0 2.0 1 72 129 65535 65535
r 1.603358 2 5 sctp 1500 -------D 0 2.0 5.0 1 73 121 0 72
r 1.604558 2 5 sctp 1500 -------D 0 2.0 5.0 1 74 122 0 73
+ 1.604558 5 2 sctp 48 -------S 0 5.0 2.0 1 74 130 65535 65535
- 1.604558 5 2 sctp 48 -------S 0 5.0 2.0 1 74 130 65535 65535
r 1.605758 2 5 sctp 1500 -------D 0 2.0 5.0 1 75 123 0 74
r 1.606958 2 5 sctp 1500 -------D 0 2.0 5.0 1 76 124 0 75
+ 1.606958 5 2 sctp 48 -------S 0 5.0 2.0 1 76 131 65535 65535
- 1.606958 5 2 sctp 48 -------S 0 5.0 2.0 1 76 131 65535 65535
r 1.6388 5 2 sctp 52 -------S 0 5.0 2.0 1 63 125 65535 65535
+ 1.6388 1 4 sctp 1500 -------D 0 1.0 4.0 1 77 132 0 76
- 1.6388 1 4 sctp 1500 -------D 0 1.0 4.0 1 77 132 0 76
+ 1.6388 1 4 sctp 1500 -------D 0 1.0 4.0 1 78 133 0 77
+ 1.6388 2 5 sctp 1500 -------D 0 2.0 5.0 1 79 134 0 78
- 1.6388 2 5 sctp 1500 -------D 0 2.0 5.0 1 79 134 0 78
r 1.639997 5 2 sctp 48 -------S 0 5.0 2.0 1 66 126 65535 65535
+ 1.639997 1 4 sctp 1500 -------D 0 1.0 4.0 1 80 135 0 79
+ 1.639997 2 5 sctp 1500 -------D 0 2.0 5.0 1 81 136 0 80
+ 1.639997 2 5 sctp 1500 -------D 0 2.0 5.0 1 82 137 0 81
- 1.64 1 4 sctp 1500 -------D 0 1.0 4.0 1 78 133 0 77
- 1.64 2 5 sctp 1500 -------D 0 2.0 5.0 1 81 136 0 80
- 1.6412 1 4 sctp 1500 -------D 0 1.0 4.0 1 80 135 0 79
- 1.6412 2 5 sctp 1500 -------D 0 2.0 5.0 1 82 137 0 81
r 1.642397 5 2 sctp 48 -------S 0 5.0 2.0 1 68 127 65535 65535
+ 1.642397 2 5 sctp 1500 -------D 0 2.0 5.0 1 83 138 0 82
+ 1.642397 2 5 sctp 1500 -------D 0 2.0 5.0 1 84 139 0 83
- 1.6424 2 5 sctp 1500 -------D 0 2.0 5.0 1 83 138 0 82
- 1.6436 2 5 sctp 1500 -------D 0 2.0 5.0 1 84 139 0 83
r 1.644797 5 2 sctp 48 -------S 0 5.0 2.0 1 70 128 65535 65535
+ 1.644797 2 5 sctp 1500 -------D 0 2.0 5.0 1 85 140 0 84
+ 1.644797 2 5 sctp 1500 -------D 0 2.0 5.0 1 86 141 0 85
- 1.6448 2 5 sctp 1500 -------D 0 2.0 5.0 1 85 140 0 84
- 1.646 2 5 sctp 1500 -------D 0 2.0 5.0 1 86 141 0 85
r 1.647197 5 2 sctp 48 -------S 0 5.0 2.0 1 72 129 65535 65535
+ 1.647197 2 5 sctp 1500 -------D 0 2.0 5.0 1 87 142 0 86
+ 1.647197 2 5 sctp 1500 -------D 0 2.0 5.0 1 88 143 0 87
- 1.6472 2 5 sctp 1500 -------D 0 2.0 5.0 1 87 142 0 86
- 1.6484 2 5 sctp 1500 -------D 0 2.0 5.0 1 88 143 0 87
r 1.649597 5 2 sctp 48 -------S 0 5.0 2.0 1 74 130 65535 65535
+ 1.649597 2 5 sctp 1500 -------D 0 2.0 5.0 1 89 144 0 88
+ 1.649597 2 5 sctp 1500 -------D 0 2.0 5.0 1 90 145 0 89
- 1.6496 2 5 sctp 1500 -------D 0 2.0 5.0 1 89 144 0 88
- 1.6508 2 5 sctp 1500 -------D 0 2.0 5.0 1 90 145 0 89
r 1.651997 5 2 sctp 48 -------S 0 5.0 2.0 1 76 131 65535 65535
+ 1.651997 2 5 sctp 1500 -------D 0 2.0 5.0 1 91 146 0 90
+ 1.651997 2 5 sctp 1500 -------D 0 2.0 5.0 1 92 147 0 91
- 1.652 2 5 sctp 1500 -------D 0 2.0 5.0 1 91 146 0 90
- 1.6532 2 5 sctp 1500 -------D 0 2.0 5.0 1 92 147 0 91
r 1.685 1 4 sctp 1500 -------D 0 1.0 4.0 1 77 132 0 76
r 1.685 2 5 sctp 1500 -------D 0 2.0 5.0 1 79 134 0 78
+ 1.685 5 2 sctp 52 -------S 0 5.0 2.0 1 77 148 65535 65535
- 1.685 5 2 sctp 52 -------S 0 5.0 2.0 1 77 148 65535 65535
r 1.6862 1 4 sctp 1500 -------D 0 1.0 4.0 1 78 133 0 77
r 1.6862 2 5 sctp 1500 -------D 0 2.0 5.0 1 81 136 0 80
+ 1.6862 5 2 sctp 52 -------S 0 5.0 2.0 1 79 149 65535 65535
- 1.6862 5 2 sctp 52 -------S 0 5.0 2.0 1 79 149 65535 65535
r 1.6874 1 4 sctp 1500 -------D 0 1.0 4.0 1 80 135 0 79
r 1.6874 2 5 sctp 1500 -------D 0 2.0 5.0 1 82 137 0 81
+ 1.6874 5 2 sctp 48 -------S 0 5.0 2.0 1 82 150 65535 65535
- 1.6874 5 2 sctp 48 -------S 0 5.0 2.0 1 82 150 65535 65535
r 1.6886 2 5 sctp 1500 -------D 0 2.0 5.0 1 83 138 0 82
r 1.6898 2 5 sctp 1500 -------D 0 2.0 5.0 1 84 139 0 83
+ 1.6898 5 2 sctp 48 -------S 0 5.0 2.0 1 84 151 65535 65535
- 1.6898 5 2 sctp 48 -------S 0 5.0 2.0 1 84 151 65535 65535
r 1.691 2 5 sctp 1500 -------D 0 2.0 5.0 1 85 140 0 84
r 1.6922 2 5 sctp 1500 -------D 0 2.0 5.0 1 86 141 0 85
+ 1.6922 5 2 sctp 48 -------S 0 5.0 2.0 1 86 152 65535 65535
- 1.6922 5 2 sctp 48 -------S 0 5.0 2.0 1 86 152 65535 65535
r 1.6934 2 5 sctp 1500 -------D 0 2.0 5.0 1 87 142 0 86
r 1.6946 2 5 sctp 1500 -------D 0 2.0 5.0 1 88 143 0 87
+ 1.6946 5 2 sctp 48 -------S 0 5.0 2.0 1 88 153 65535 65535
- 1.6946 5 2 sctp 48 -------S 0 5.0 2.0 1 88 153 65535 65535
r 1.6958 2 5 sctp 1500 -------D 0 2.0 5.0 1 89 144 0 88
r 1.697 2 5 sctp 1500 -------D 0 2.0 5.0 1 90 145 0 89
+ 1.697 5 2 sctp 48 -------S 0 5.0 2.0 1 90 154 65535 65535
- 1.697 5 2 sctp 48 -------S 0 5.0 2.0 1 90 154 65535 65535
r 1.6982 2 5 sctp 1500 -------D 0 2.0 5.0 1 91 146 0 90
r 1.6994 2 5 sctp 1500 -------D 0 2.0 5.0 1 92 147 0 91
+ 1.6994 5 2 sctp 48 -------S 0 5.0 2.0 1 92 155 65535 65535
- 1.6994 5 2 sctp 48 -------S 0 5.0 2.0 1 92 155 65535 65535
r 1.730042 5 2 sctp 52 -------S 0 5.0 2.0 1 77 148 65535 65535
+ 1.730042 1 4 sctp 1500 -------D 0 1.0 4.0 1 93 156 0 92
- 1.730042 1 4 sctp 1500 -------D 0 1.0 4.0 1 93 156 0 92
+ 1.730042 2 5 sctp 1500 -------D 0 2.0 5.0 1 94 157 0 93
- 1.730042 2 5 sctp 1500 -------D 0 2.0 5.0 1 94 157 0 93
r 1.731242 5 2 sctp 52 -------S 0 5.0 2.0 1 79 149 65535 65535
+ 1.731242 1 4 sctp 1500 -------D 0 1.0 4.0 1 95 158 0 94
+ 1.731242 1 4 sctp 1500 -------D 0 1.0 4.0 1 96 159 0 95
+ 1.731242 2 5 sctp 1500 -------D 0 2.0 5.0 1 97 160 0 96
- 1.731242 1 4 sctp 1500 -------D 0 1.0 4.0 1 95 158 0 94
- 1.731242 2 5 sctp 1500 -------D 0 2.0 5.0 1 97 160 0 96
r 1.732438 5 2 sctp 48 -------S 0 5.0 2.0 1 82 150 65535 65535
+ 1.732438 1 4 sctp 1500 -------D 0 1.0 4.0 1 98 161 0 97
+ 1.732438 2 5 sctp 1500 -------D 0 2.0 5.0 1 99 162 0 98
+ 1.732438 2 5 sctp 1500 -------D 0 2.0 5.0 1 100 163 0 99
- 1.732442 1 4 sctp 1500 -------D 0 1.0 4.0 1 96 159 0 95
- 1.732442 2 5 sctp 1500 -------D 0 2.0 5.0 1 99 162 0 98
- 1.733642 1 4 sctp 1500 -------D 0 1.0 4.0 1 98 161 0 97
- 1.733642 2 5 sctp 1500 -------D 0 2.0 5.0 1 100 163 0 99
r 1.734838 5 2 sctp 48 -------S 0 5.0 2.0 1 84 151 65535 65535
+ 1.734838 2 5 sctp 1500 -------D 0 2.0 5.0 1 101 164 0 100
+ 1.734838 2 5 sctp 1500 -------D 0 2.0 5.0 1 102 165 0 101
- 1.734842 2 5 sctp 1500 -------D 0 2.0 5.0 1 101 164 0 100
- 1.736042 2 5 sctp 1500 -------D 0 2.0 5.0 1 102 165 0 101
r 1.737238 5 2 sctp 48 -------S 0 5.0 2.0 1 86 152 65535 65535
+ 1.737238 2 5 sctp 1500 -------D 0 2.0 5.0 1 103 166 0 102
+ 1.737238 2 5 sctp 1500 -------D 0 2.0 5.0 1 104 167 0 103
- 1.737242 2 5 sctp 1500 -------D 0 2.0 5.0 1 103 166 0 102
- 1.738442 2 5 sctp 1500 -------D 0 2.0 5.0 1 104 167 0 103
r 1.739638 5 2 sctp 48 -------S 0 5.0 2.0 1 88 153 65535 65535
+ 1.739638 2 5 sctp 1500 -------D 0 2.0 5.0 1 105 168 0 104
+ 1.739638 2 5 sctp 1500 -------D 0 2.0 5.0 1 106 169 0 105
- 1.739642 2 5 sctp 1500 -------D 0 2.0 5.0 1 105 168 0 104
- 1.740842 2 5 sctp 1500 -------D 0 2.0 5.0 1 106 169 0 105
r 1.742038 5 2 sctp 48 -------S 0 5.0 2.0 1 90 154 65535 65535
+ 1.742038 2 5 sctp 1500 -------D 0 2.0 5.0 1 107 170 0 106
+ 1.742038 2 5 sctp 1500 -------D 0 2.0 5.0 1 108 171 0 107
- 1.742042 2 5 sctp 1500 -------D 0 2.0 5.0 1 107 170 0 106
- 1.743242 2 5 sctp 1500 -------D 0 2.0 5.0 1 108 171 0 107
r 1.744438 5 2 sctp 48 -------S 0 5.0 2.0 1 92 155 65535 65535
+ 1.744438 2 5 sctp 1500 -------D 0 2.0 5.0 1 109 172 0 108
+ 1.744438 2 5 sctp 1500 -------D 0 2.0 5.0 1 110 173 0 109
- 1.744442 2 5 sctp 1500 -------D 0 2.0 5.0 1 109 172 0 108
- 1.745642 2 5 sctp 1500 -------D 0 2.0 5.0 1 110 173 0 109
r 1.776242 1 4 sctp 1500 -------D 0 1.0 4.0 1 93 156 0 92
r 1.776242 2 5 sctp 1500 -------D 0 2.0 5.0 1 94 157 0 93
+ 1.776242 5 2 sctp 48 -------S 0 5.0 2.0 1 94 174 65535 65535
- 1.776242 5 2 sctp 48 -------S 0 5.0 2.0 1 94 174 65535 65535
r 1.777442 1 4 sctp 1500 -------D 0 1.0 4.0 1 95 158 0 94
r 1.777442 2 5 sctp 1500 -------D 0 2.0 5.0 1 97 160 0 96
+ 1.777442 5 2 sctp 52 -------S 0 5.0 2.0 1 95 175 65535 65535
- 1.777442 5 2 sctp 52 -------S 0 5.0 2.0 1 95 175 65535 65535
r 1.778642 1 4 sctp 1500 -------D 0 1.0 4.0 1 96 159 0 95
r 1.778642 2 5 sctp 1500 -------D 0 2.0 5.0 1 99 162 0 98
+ 1.778642 5 2 sctp 52 -------S 0 5.0 2.0 1 97 176 65535 65535
- 1.778642 5 2 sctp 52 -------S 0 5.0 2.0 1 97 176 65535 65535
r 1.779842 1 4 sctp 1500 -------D 0 1.0 4.0 1 98 161 0 97
r 1.779842 2 5 sctp 1500 -------D 0 2.0 5.0 1 100 163 0 99
+ 1.779842 5 2 sctp 48 -------S 0 5.0 2.0 1 100 177 65535 65535
- 1.779842 5 2 sctp 48 -------S 0 5.0 2.0 1 100 177 65535 65535
r 1.781042 2 5 sctp 1500 -------D 0 2.0 5.0 1 101 164 0 100
r 1.782242 2 5 sctp 1500 -------D 0 2.0 5.0 1 102 165 0 101
+ 1.782242 5 2 sctp 48 -------S 0 5.0 2.0 1 102 178 65535 65535
- 1.782242 5 2 sctp 48 -------S 0 5.0 2.0 1 102 178 65535 65535
r 1.783442 2 5 sctp 1500 -------D 0 2.0 5.0 1 103 166 0 102
r 1.784642 2 5 sctp 1500 -------D 0 2.0 5.0 1 104 167 0 103
+ 1.784642 5 2 sctp 48 -------S 0 5.0 2.0 1 104 179 65535 65535
- 1.784642 5 2 sctp 48 -------S 0 5.0 2.0 1 104 179 65535 65535
r 1.785842 2 5 sctp 1500 -------D 0 2.0 5.0 1 105 168 0 104
r 1.787042 2 5 sctp 1500 -------D 0 2.0 5.0 1 106 169 0 105
+ 1.787042 5 2 sctp 48 -------S 0 5.0 2.0 1 106 180 65535 65535
- 1.787042 5 2 sctp 48 -------S 0 5.0 2.0 1 106 180 65535 65535
r 1.788242 2 5 sctp 1500 -------D 0 2.0 5.0 1 107 170 0 106
r 1.789442 2 5 sctp 1500 -------D 0 2.0 5.0 1 108 171 0 107
+ 1.789442 5 2 sctp 48 -------S 0 5.0 2.0 1 108 181 65535 65535