+ 0 1 4 sctp 56 -------I 0 1.0 4.0 1 -1 4 65535 65535
- 0 1 4 sctp 56 -------I 0 1.0 4.0 1 -1 4 65535 65535
r 0.045045 1 4 sctp 56 -------I 0 1.0 4.0 1 -1 4 65535 65535
+ 0.045045 4 1 sctp 56 -------I 0 4.0 1.0 1 -1 5 65535 65535
- 0.045045 4 1 sctp 56 -------I 0 4.0 1.0 1 -1 5 65535 65535
r 0.09009 4 1 sctp 56 -------I 0 4.0 1.0 1 -1 5 65535 65535
+ 0.09009 1 4 sctp 36 -------I 0 1.0 4.0 1 -1 6 65535 65535
- 0.09009 1 4 sctp 36 -------I 0 1.0 4.0 1 -1 6 65535 65535
r 0.135118 1 4 sctp 36 -------I 0 1.0 4.0 1 -1 6 65535 65535
+ 0.135118 4 1 sctp 36 -------I 0 4.0 1.0 1 -1 7 65535 65535
- 0.135118 4 1 sctp 36 -------I 0 4.0 1.0 1 -1 7 65535 65535
r 0.180147 4 1 sctp 36 -------I 0 4.0 1.0 1 -1 7 65535 65535
+ 0.180147 1 4 sctp 56 -------H 0 1.0 4.0 1 -1 8 65535 65535
- 0.180147 1 4 sctp 56 -------H 0 1.0 4.0 1 -1 8 65535 65535
+ 0.180147 2 5 sctp 56 -------H 0 2.0 5.0 1 -1 9 65535 65535
- 0.180147 2 5 sctp 56 -------H 0 2.0 5.0 1 -1 9 65535 65535
r 0.225192 1 4 sctp 56 -------H 0 1.0 4.0 1 -1 8 65535 65535
+ 0.225192 4 1 sctp 56 -------B 0 4.0 1.0 1 -1 10 65535 65535
- 0.225192 4 1 sctp 56 -------B 0 4.0 1.0 1 -1 10 65535 65535
r 0.225192 2 5 sctp 56 -------H 0 2.0 5.0 1 -1 9 65535 65535
+ 0.225192 5 2 sctp 56 -------B 0 5.0 2.0 1 -1 11 65535 65535
- 0.225192 5 2 sctp 56 -------B 0 5.0 2.0 1 -1 11 65535 65535
r 0.270237 4 1 sctp 56 -------B 0 4.0 1.0 1 -1 10 65535 65535
r 0.270237 5 2 sctp 56 -------B 0 5.0 2.0 1 -1 11 65535 65535
d 0.270237 1 4 sctp 1500 -------D 0 1.0 4.0 1 1 12 0 0
d 0.270237 1 4 sctp 1500 -------D 0 1.0 4.0 1 2 13 0 1
d 0.270237 1 4 sctp 1500 -------D 0 1.0 4.0 1 3 14 0 2
+ 0.270237 2 5 sctp 1500 -------D 0 2.0 5.0 1 4 15 0 3
- 0.270237 2 5 sctp 1500 -------D 0 2.0 5.0 1 4 15 0 3
+ 0.270237 2 5 sctp 1500 -------D 0 2.0 5.0 1 5 16 0 4
+ 0.270237 2 5 sctp 1500 -------D 0 2.0 5.0 1 6 17 0 5
- 0.271437 2 5 sctp 1500 -------D 0 2.0 5.0 1 5 16 0 4
- 0.272637 2 5 sctp 1500 -------D 0 2.0 5.0 1 6 17 0 5
r 0.316437 2 5 sctp 1500 -------D 0 2.0 5.0 1 4 15 0 3
r 0.317637 2 5 sctp 1500 -------D 0 2.0 5.0 1 5 16 0 4
+ 0.317637 5 2 sctp 52 -------S 0 5.0 2.0 1 0 18 65535 65535
- 0.317637 5 2 sctp 52 -------S 0 5.0 2.0 1 0 18 65535 65535
r 0.318837 2 5 sctp 1500 -------D 0 2.0 5.0 1 6 17 0 5
r 0.362678 5 2 sctp 52 -------S 0 5.0 2.0 1 0 18 65535 65535
+ 0.362678 2 5 sctp 1500 -------D 0 2.0 5.0 1 7 19 0 6
- 0.362678 2 5 sctp 1500 -------D 0 2.0 5.0 1 7 19 0 6
+ 0.362678 2 5 sctp 1500 -------D 0 2.0 5.0 1 8 20 0 7
+ 0.362678 2 5 sctp 1500 -------D 0 2.0 5.0 1 9 21 0 8
- 0.363878 2 5 sctp 1500 -------D 0 2.0 5.0 1 8 20 0 7
- 0.365078 2 5 sctp 1500 -------D 0 2.0 5.0 1 9 21 0 8
r 0.408878 2 5 sctp 1500 -------D 0 2.0 5.0 1 7 19 0 6
+ 0.408878 5 2 sctp 52 -------S 0 5.0 2.0 1 0 22 65535 65535
- 0.408878 5 2 sctp 52 -------S 0 5.0 2.0 1 0 22 65535 65535
r 0.410078 2 5 sctp 1500 -------D 0 2.0 5.0 1 8 20 0 7
r 0.411278 2 5 sctp 1500 -------D 0 2.0 5.0 1 9 21 0 8
+ 0.411278 5 2 sctp 52 -------S 0 5.0 2.0 1 0 23 65535 65535
- 0.411278 5 2 sctp 52 -------S 0 5.0 2.0 1 0 23 65535 65535
r 0.45392 5 2 sctp 52 -------S 0 5.0 2.0 1 0 22 65535 65535
+ 0.45392 2 5 sctp 1500 -------D 0 2.0 5.0 1 10 24 0 9
- 0.45392 2 5 sctp 1500 -------D 0 2.0 5.0 1 10 24 0 9
+ 0.45392 2 5 sctp 1500 -------D 0 2.0 5.0 1 11 25 0 10
+ 0.45392 2 5 sctp 1500 -------D 0 2.0 5.0 1 12 26 0 11
- 0.45512 2 5 sctp 1500 -------D 0 2.0 5.0 1 11 25 0 10
r 0.45632 5 2 sctp 52 -------S 0 5.0 2.0 1 0 23 65535 65535
+ 0.45632 2 5 sctp 1500 -------D 0 2.0 5.0 1 13 27 0 12
+ 0.45632 2 5 sctp 1500 -------D 0 2.0 5.0 1 14 28 0 13
+ 0.45632 2 5 sctp 1500 -------D 0 2.0 5.0 1 15 29 0 14
- 0.45632 2 5 sctp 1500 -------D 0 2.0 5.0 1 12 26 0 11
- 0.45752 2 5 sctp 1500 -------D 0 2.0 5.0 1 13 27 0 12
- 0.45872 2 5 sctp 1500 -------D 0 2.0 5.0 1 14 28 0 13
- 0.45992 2 5 sctp 1500 -------D 0 2.0 5.0 1 15 29 0 14
r 0.50012 2 5 sctp 1500 -------D 0 2.0 5.0 1 10 24 0 9
r 0.50132 2 5 sctp 1500 -------D 0 2.0 5.0 1 11 25 0 10
+ 0.50132 5 2 sctp 52 -------S 0 5.0 2.0 1 0 30 65535 65535
- 0.50132 5 2 sctp 52 -------S 0 5.0 2.0 1 0 30 65535 65535
r 0.50252 2 5 sctp 1500 -------D 0 2.0 5.0 1 12 26 0 11
r 0.50372 2 5 sctp 1500 -------D 0 2.0 5.0 1 13 27 0 12
+ 0.50372 5 2 sctp 52 -------S 0 5.0 2.0 1 0 31 65535 65535
- 0.50372 5 2 sctp 52 -------S 0 5.0 2.0 1 0 31 65535 65535
r 0.50492 2 5 sctp 1500 -------D 0 2.0 5.0 1 14 28 0 13
r 0.50612 2 5 sctp 1500 -------D 0 2.0 5.0 1 15 29 0 14
+ 0.50612 5 2 sctp 52 -------S 0 5.0 2.0 1 0 32 65535 65535
- 0.50612 5 2 sctp 52 -------S 0 5.0 2.0 1 0 32 65535 65535
r 0.546362 5 2 sctp 52 -------S 0 5.0 2.0 1 0 30 65535 65535
+ 0.546362 2 5 sctp 1500 -------D 0 2.0 5.0 1 16 33 0 15
- 0.546362 2 5 sctp 1500 -------D 0 2.0 5.0 1 16 33 0 15
+ 0.546362 2 5 sctp 1500 -------D 0 2.0 5.0 1 17 34 0 16
+ 0.546362 2 5 sctp 1500 -------D 0 2.0 5.0 1 18 35 0 17
- 0.547562 2 5 sctp 1500 -------D 0 2.0 5.0 1 17 34 0 16
r 0.548762 5 2 sctp 52 -------S 0 5.0 2.0 1 0 31 65535 65535
+ 0.548762 2 5 sctp 1500 -------D 0 2.0 5.0 1 19 36 0 18
+ 0.548762 2 5 sctp 1500 -------D 0 2.0 5.0 1 20 37 0 19
+ 0.548762 2 5 sctp 1500 -------D 0 2.0 5.0 1 21 38 0 20
- 0.548762 2 5 sctp 1500 -------D 0 2.0 5.0 1 18 35 0 17
- 0.549962 2 5 sctp 1500 -------D 0 2.0 5.0 1 19 36 0 18
r 0.551162 5 2 sctp 52 -------S 0 5.0 2.0 1 0 32 65535 65535
+ 0.551162 2 5 sctp 1500 -------D 0 2.0 5.0 1 22 39 0 21
+ 0.551162 2 5 sctp 1500 -------D 0 2.0 5.0 1 23 40 0 22
+ 0.551162 2 5 sctp 1500 -------D 0 2.0 5.0 1 24 41 0 23
- 0.551162 2 5 sctp 1500 -------D 0 2.0 5.0 1 20 37 0 19
- 0.552362 2 5 sctp 1500 -------D 0 2.0 5.0 1 21 38 0 20
- 0.553562 2 5 sctp 1500 -------D 0 2.0 5.0 1 22 39 0 21
- 0.554762 2 5 sctp 1500 -------D 0 2.0 5.0 1 23 40 0 22
- 0.555962 2 5 sctp 1500 -------D 0 2.0 5.0 1 24 41 0 23
r 0.592562 2 5 sctp 1500 -------D 0 2.0 5.0 1 16 33 0 15
r 0.593762 2 5 sctp 1500 -------D 0 2.0 5.0 1 17 34 0 16
+ 0.593762 5 2 sctp 52 -------S 0 5.0 2.0 1 0 42 65535 65535
- 0.593762 5 2 sctp 52 -------S 0 5.0 2.0 1 0 42 65535 65535
r 0.594962 2 5 sctp 1500 -------D 0 2.0 5.0 1 18 35 0 17
r 0.596162 2 5 sctp 1500 -------D 0 2.0 5.0 1 19 36 0 18
+ 0.596162 5 2 sctp 52 -------S 0 5.0 2.0 1 0 43 65535 65535
- 0.596162 5 2 sctp 52 -------S 0 5.0 2.0 1 0 43 65535 65535
r 0.597362 2 5 sctp 1500 -------D 0 2.0 5.0 1 20 37 0 19
r 0.598562 2 5 sctp 1500 -------D 0 2.0 5.0 1 21 38 0 20
+ 0.598562 5 2 sctp 52 -------S 0 5.0 2.0 1 0 44 65535 65535
- 0.598562 5 2 sctp 52 -------S 0 5.0 2.0 1 0 44 65535 65535
r 0.599762 2 5 sctp 1500 -------D 0 2.0 5.0 1 22 39 0 21
r 0.600962 2 5 sctp 1500 -------D 0 2.0 5.0 1 23 40 0 22
+ 0.600962 5 2 sctp 52 -------S 0 5.0 2.0 1 0 45 65535 65535
- 0.600962 5 2 sctp 52 -------S 0 5.0 2.0 1 0 45 65535 65535
r 0.602162 2 5 sctp 1500 -------D 0 2.0 5.0 1 24 41 0 23
r 0.638803 5 2 sctp 52 -------S 0 5.0 2.0 1 0 42 65535 65535
+ 0.638803 2 5 sctp 1500 -------D 0 2.0 5.0 1 25 46 0 24
- 0.638803 2 5 sctp 1500 -------D 0 2.0 5.0 1 25 46 0 24
+ 0.638803 2 5 sctp 1500 -------D 0 2.0 5.0 1 26 47 0 25
+ 0.638803 2 5 sctp 1500 -------D 0 2.0 5.0 1 27 48 0 26
- 0.640003 2 5 sctp 1500 -------D 0 2.0 5.0 1 26 47 0 25
r 0.641203 5 2 sctp 52 -------S 0 5.0 2.0 1 0 43 65535 65535
+ 0.641203 2 5 sctp 1500 -------D 0 2.0 5.0 1 28 49 0 27
+ 0.641203 2 5 sctp 1500 -------D 0 2.0 5.0 1 29 50 0 28
+ 0.641203 2 5 sctp 1500 -------D 0 2.0 5.0 1 30 51 0 29
- 0.641203 2 5 sctp 1500 -------D 0 2.0 5.0 1 27 48 0 26
- 0.642403 2 5 sctp 1500 -------D 0 2.0 5.0 1 28 49 0 27
r 0.643603 5 2 sctp 52 -------S 0 5.0 2.0 1 0 44 65535 65535
+ 0.643603 2 5 sctp 1500 -------D 0 2.0 5.0 1 31 52 0 30
+ 0.643603 2 5 sctp 1500 -------D 0 2.0 5.0 1 32 53 0 31
- 0.643603 2 5 sctp 1500 -------D 0 2.0 5.0 1 29 50 0 28
- 0.644803 2 5 sctp 1500 -------D 0 2.0 5.0 1 30 51 0 29
r 0.646003 5 2 sctp 52 -------S 0 5.0 2.0 1 0 45 65535 65535
+ 0.646003 2 5 sctp 1500 -------D 0 2.0 5.0 1 33 54 0 32
+ 0.646003 2 5 sctp 1500 -------D 0 2.0 5.0 1 34 55 0 33
- 0.646003 2 5 sctp 1500 -------D 0 2.0 5.0 1 31 52 0 30
- 0.647203 2 5 sctp 1500 -------D 0 2.0 5.0 1 32 53 0 31
- 0.648403 2 5 sctp 1500 -------D 0 2.0 5.0 1 33 54 0 32
- 0.649603 2 5 sctp 1500 -------D 0 2.0 5.0 1 34 55 0 33
r 0.685003 2 5 sctp 1500 -------D 0 2.0 5.0 1 25 46 0 24
+ 0.685003 5 2 sctp 52 -------S 0 5.0 2.0 1 0 56 65535 65535
- 0.685003 5 2 sctp 52 -------S 0 5.0 2.0 1 0 56 65535 65535
r 0.686203 2 5 sctp 1500 -------D 0 2.0 5.0 1 26 47 0 25
r 0.687403 2 5 sctp 1500 -------D 0 2.0 5.0 1 27 48 0 26
+ 0.687403 5 2 sctp 52 -------S 0 5.0 2.0 1 0 57 65535 65535
- 0.687403 5 2 sctp 52 -------S 0 5.0 2.0 1 0 57 65535 65535
r 0.688603 2 5 sctp 1500 -------D 0 2.0 5.0 1 28 49 0 27
r 0.689803 2 5 sctp 1500 -------D 0 2.0 5.0 1 29 50 0 28
+ 0.689803 5 2 sctp 52 -------S 0 5.0 2.0 1 0 58 65535 65535
- 0.689803 5 2 sctp 52 -------S 0 5.0 2.0 1 0 58 65535 65535
r 0.691003 2 5 sctp 1500 -------D 0 2.0 5.0 1 30 51 0 29
r 0.692203 2 5 sctp 1500 -------D 0 2.0 5.0 1 31 52 0 30
+ 0.692203 5 2 sctp 52 -------S 0 5.0 2.0 1 0 59 65535 65535
- 0.692203 5 2 sctp 52 -------S 0 5.0 2.0 1 0 59 65535 65535
r 0.693403 2 5 sctp 1500 -------D 0 2.0 5.0 1 32 53 0 31
r 0.694603 2 5 sctp 1500 -------D 0 2.0 5.0 1 33 54 0 32
+ 0.694603 5 2 sctp 52 -------S 0 5.0 2.0 1 0 60 65535 65535
- 0.694603 5 2 sctp 52 -------S 0 5.0 2.0 1 0 60 65535 65535
r 0.695803 2 5 sctp 1500 -------D 0 2.0 5.0 1 34 55 0 33
r 0.730045 5 2 sctp 52 -------S 0 5.0 2.0 1 0 56 65535 65535
+ 0.730045 2 5 sctp 1500 -------D 0 2.0 5.0 1 35 61 0 34
- 0.730045 2 5 sctp 1500 -------D 0 2.0 5.0 1 35 61 0 34
+ 0.730045 2 5 sctp 1500 -------D 0 2.0 5.0 1 36 62 0 35
- 0.731245 2 5 sctp 1500 -------D 0 2.0 5.0 1 36 62 0 35
r 0.732445 5 2 sctp 52 -------S 0 5.0 2.0 1 0 57 65535 65535
+ 0.732445 2 5 sctp 1500 -------D 0 2.0 5.0 1 37 63 0 36
+ 0.732445 2 5 sctp 1500 -------D 0 2.0 5.0 1 38 64 0 37
- 0.732445 2 5 sctp 1500 -------D 0 2.0 5.0 1 37 63 0 36
- 0.733645 2 5 sctp 1500 -------D 0 2.0 5.0 1 38 64 0 37
r 0.734845 5 2 sctp 52 -------S 0 5.0 2.0 1 0 58 65535 65535
+ 0.734845 2 5 sctp 1500 -------D 0 2.0 5.0 1 39 65 0 38
+ 0.734845 2 5 sctp 1500 -------D 0 2.0 5.0 1 40 66 0 39
- 0.734845 2 5 sctp 1500 -------D 0 2.0 5.0 1 39 65 0 38
- 0.736045 2 5 sctp 1500 -------D 0 2.0 5.0 1 40 66 0 39
r 0.737245 5 2 sctp 52 -------S 0 5.0 2.0 1 0 59 65535 65535
+ 0.737245 2 5 sctp 1500 -------D 0 2.0 5.0 1 41 67 0 40
+ 0.737245 2 5 sctp 1500 -------D 0 2.0 5.0 1 42 68 0 41
+ 0.737245 2 5 sctp 1500 -------D 0 2.0 5.0 1 43 69 0 42
- 0.737245 2 5 sctp 1500 -------D 0 2.0 5.0 1 41 67 0 40
- 0.738445 2 5 sctp 1500 -------D 0 2.0 5.0 1 42 68 0 41
r 0.739645 5 2 sctp 52 -------S 0 5.0 2.0 1 0 60 65535 65535
+ 0.739645 2 5 sctp 1500 -------D 0 2.0 5.0 1 44 70 0 43
- 0.739645 2 5 sctp 1500 -------D 0 2.0 5.0 1 43 69 0 42
- 0.740845 2 5 sctp 1500 -------D 0 2.0 5.0 1 44 70 0 43
r 0.776245 2 5 sctp 1500 -------D 0 2.0 5.0 1 35 61 0 34
+ 0.776245 5 2 sctp 52 -------S 0 5.0 2.0 1 0 71 65535 65535
- 0.776245 5 2 sctp 52 -------S 0 5.0 2.0 1 0 71 65535 65535
r 0.777445 2 5 sctp 1500 -------D 0 2.0 5.0 1 36 62 0 35
r 0.778645 2 5 sctp 1500 -------D 0 2.0 5.0 1 37 63 0 36
+ 0.778645 5 2 sctp 52 -------S 0 5.0 2.0 1 0 72 65535 65535
- 0.778645 5 2 sctp 52 -------S 0 5.0 2.0 1 0 72 65535 65535
r 0.779845 2 5 sctp 1500 -------D 0 2.0 5.0 1 38 64 0 37
r 0.781045 2 5 sctp 1500 -------D 0 2.0 5.0 1 39 65 0 38
+ 0.781045 5 2 sctp 52 -------S 0 5.0 2.0 1 0 73 65535 65535
- 0.781045 5 2 sctp 52 -------S 0 5.0 2.0 1 0 73 65535 65535
r 0.782245 2 5 sctp 1500 -------D 0 2.0 5.0 1 40 66 0 39
r 0.783445 2 5 sctp 1500 -------D 0 2.0 5.0 1 41 67 0 40
+ 0.783445 5 2 sctp 52 -------S 0 5.0 2.0 1 0 74 65535 65535
- 0.783445 5 2 sctp 52 -------S 0 5.0 2.0 1 0 74 65535 65535
r 0.784645 2 5 sctp 1500 -------D 0 2.0 5.0 1 42 68 0 41
r 0.785845 2 5 sctp 1500 -------D 0 2.0 5.0 1 43 69 0 42
+ 0.785845 5 2 sctp 52 -------S 0 5.0 2.0 1 0 75 65535 65535
- 0.785845 5 2 sctp 52 -------S 0 5.0 2.0 1 0 75 65535 65535
r 0.787045 2 5 sctp 1500 -------D 0 2.0 5.0 1 44 70 0 43
r 0.821286 5 2 sctp 52 -------S 0 5.0 2.0 1 0 71 65535 65535
r 0.823686 5 2 sctp 52 -------S 0 5.0 2.0 1 0 72 65535 65535
r 0.826086 5 2 sctp 52 -------S 0 5.0 2.0 1 0 73 65535 65535
r 0.828486 5 2 sctp 52 -------S 0 5.0 2.0 1 0 74 65535 65535
r 0.830886 5 2 sctp 52 -------S 0 5.0 2.0 1 0 75 65535 65535
+ 0.987045 5 2 sctp 52 -------S 0 5.0 2.0 1 0 76 65535 65535
- 0.987045 5 2 sctp 52 -------S 0 5.0 2.0 1 0 76 65535 65535
r 1.032086 5 2 sctp 52 -------S 0 5.0 2.0 1 0 76 65535 65535
+ 1.270237 2 5 sctp 1500 -------D 0 2.0 5.0 1 1 77 0 0
- 1.270237 2 5 sctp 1500 -------D 0 2.0 5.0 1 1 77 0 0
+ 1.270237 2 5 sctp 1500 -------D 0 2.0 5.0 1 2 78 0 1
+ 1.270237 2 5 sctp 1500 -------D 0 2.0 5.0 1 3 79 0 2
- 1.271437 2 5 sctp 1500 -------D 0 2.0 5.0 1 2 78 0 1
- 1.272637 2 5 sctp 1500 -------D 0 2.0 5.0 1 3 79 0 2
r 1.316437 2 5 sctp 1500 -------D 0 2.0 5.0 1 1 77 0 0
r 1.317637 2 5 sctp 1500 -------D 0 2.0 5.0 1 2 78 0 1
+ 1.317637 5 2 sctp 52 -------S 0 5.0 2.0 1 2 80 65535 65535
- 1.317637 5 2 sctp 52 -------S 0 5.0 2.0 1 2 80 65535 65535
r 1.318837 2 5 sctp 1500 -------D 0 2.0 5.0 1 3 79 0 2
r 1.362678 5 2 sctp 52 -------S 0 5.0 2.0 1 2 80 65535 65535
d 1.362678 1 4 sctp 1500 -------D 0 1.0 4.0 1 45 81 0 44
+ 1.362678 2 5 sctp 1500 -------D 0 2.0 5.0 1 46 82 0 45
- 1.362678 2 5 sctp 1500 -------D 0 2.0 5.0 1 46 82 0 45
r 1.408878 2 5 sctp 1500 -------D 0 2.0 5.0 1 46 82 0 45
+ 1.408878 5 2 sctp 52 -------S 0 5.0 2.0 1 44 83 65535 65535
- 1.408878 5 2 sctp 52 -------S 0 5.0 2.0 1 44 83 65535 65535
r 1.45392 5 2 sctp 52 -------S 0 5.0 2.0 1 44 83 65535 65535
+ 1.45392 2 5 sctp 1500 -------D 0 2.0 5.0 1 47 84 0 46
- 1.45392 2 5 sctp 1500 -------D 0 2.0 5.0 1 47 84 0 46
+ 1.45392 2 5 sctp 1500 -------D 0 2.0 5.0 1 48 85 0 47
+ 1.45392 2 5 sctp 1500 -------D 0 2.0 5.0 1 49 86 0 48
+ 1.45392 2 5 sctp 1500 -------D 0 2.0 5.0 1 50 87 0 49
- 1.45512 2 5 sctp 1500 -------D 0 2.0 5.0 1 48 85 0 47
- 1.45632 2 5 sctp 1500 -------D 0 2.0 5.0 1 49 86 0 48
- 1.45752 2 5 sctp 1500 -------D 0 2.0 5.0 1 50 87 0 49
r 1.50012 2 5 sctp 1500 -------D 0 2.0 5.0 1 47 84 0 46
r 1.50132 2 5 sctp 1500 -------D 0 2.0 5.0 1 48 85 0 47
+ 1.50132 5 2 sctp 52 -------S 0 5.0 2.0 1 44 88 65535 65535
- 1.50132 5 2 sctp 52 -------S 0 5.0 2.0 1 44 88 65535 65535
r 1.50252 2 5 sctp 1500 -------D 0 2.0 5.0 1 49 86 0 48
r 1.50372 2 5 sctp 1500 -------D 0 2.0 5.0 1 50 87 0 49
+ 1.50372 5 2 sctp 52 -------S 0 5.0 2.0 1 44 89 65535 65535
- 1.50372 5 2 sctp 52 -------S 0 5.0 2.0 1 44 89 65535 65535
r 1.546362 5 2 sctp 52 -------S 0 5.0 2.0 1 44 88 65535 65535
+ 1.546362 2 5 sctp 1500 -------D 0 2.0 5.0 1 51 90 0 50
- 1.546362 2 5 sctp 1500 -------D 0 2.0 5.0 1 51 90 0 50
+ 1.546362 2 5 sctp 1500 -------D 0 2.0 5.0 1 52 91 0 51
+ 1.546362 2 5 sctp 1500 -------D 0 2.0 5.0 1 53 92 0 52
+ 1.546362 2 5 sctp 1500 -------D 0 2.0 5.0 1 54 93 0 53
- 1.547562 2 5 sctp 1500 -------D 0 2.0 5.0 1 52 91 0 51
r 1.548762 5 2 sctp 52 -------S 0 5.0 2.0 1 44 89 65535 65535
+ 1.548762 2 5 sctp 1500 -------D 0 2.0 5.0 1 55 94 0 54
+ 1.548762 2 5 sctp 1500 -------D 0 2.0 5.0 1 56 95 0 55
+ 1.548762 2 5 sctp 1500 -------D 0 2.0 5.0 1 57 96 0 56
+ 1.548762 2 5 sctp 1500 -------D 0 2.0 5.0 1 58 97 0 57
- 1.548762 2 5 sctp 1500 -------D 0 2.0 5.0 1 53 92 0 52
- 1.549962 2 5 sctp 1500 -------D 0 2.0 5.0 1 54 93 0 53
- 1.551162 2 5 sctp 1500 -------D 0 2.0 5.0 1 55 94 0 54
- 1.552362 2 5 sctp 1500 -------D 0 2.0 5.0 1 56 95 0 55
- 1.553562 2 5 sctp 1500 -------D 0 2.0 5.0 1 57 96 0 56
- 1.554762 2 5 sctp 1500 -------D 0 2.0 5.0 1 58 97 0 57
r 1.592562 2 5 sctp 1500 -------D 0 2.0 5.0 1 51 90 0 50
r 1.593762 2 5 sctp 1500 -------D 0 2.0 5.0 1 52 91 0 51
+ 1.593762 5 2 sctp 52 -------S 0 5.0 2.0 1 44 98 65535 65535
- 1.593762 5 2 sctp 52 -------S 0 5.0 2.0 1 44 98 65535 65535
r 1.594962 2 5 sctp 1500 -------D 0 2.0 5.0 1 53 92 0 52
r 1.596162 2 5 sctp 1500 -------D 0 2.0 5.0 1 54 93 0 53
+ 1.596162 5 2 sctp 52 -------S 0 5.0 2.0 1 44 99 65535 65535
- 1.596162 5 2 sctp 52 -------S 0 5.0 2.0 1 44 99 65535 65535
r 1.597362 2 5 sctp 1500 -------D 0 2.0 5.0 1 55 94 0 54
r 1.598562 2 5 sctp 1500 -------D 0 2.0 5.0 1 56 95 0 55
+ 1.598562 5 2 sctp 52 -------S 0 5.0 2.0 1 44 100 65535 65535
- 1.598562 5 2 sctp 52 -------S 0 5.0 2.0 1 44 100 65535 65535
r 1.599762 2 5 sctp 1500 -------D 0 2.0 5.0 1 57 96 0 56
r 1.600962 2 5 sctp 1500 -------D 0 2.0 5.0 1 58 97 0 57
+ 1.600962 5 2 sctp 52 -------S 0 5.0 2.0 1 44 101 65535 65535
- 1.600962 5 2 sctp 52 -------S 0 5.0 2.0 1 44 101 65535 65535
r 1.638803 5 2 sctp 52 -------S 0 5.0 2.0 1 44 98 65535 65535
+ 1.638803 2 5 sctp 1500 -------D 0 2.0 5.0 1 59 102 0 58
- 1.638803 2 5 sctp 1500 -------D 0 2.0 5.0 1 59 102 0 58
+ 1.638803 2 5 sctp 1500 -------D 0 2.0 5.0 1 60 103 0 59
+ 1.638803 2 5 sctp 1500 -------D 0 2.0 5.0 1 61 104 0 60
+ 1.638803 2 5 sctp 1500 -------D 0 2.0 5.0 1 62 105 0 61
- 1.640003 2 5 sctp 1500 -------D 0 2.0 5.0 1 60 103 0 59
r 1.641203 5 2 sctp 52 -------S 0 5.0 2.0 1 44 99 65535 65535
+ 1.641203 2 5 sctp 1500 -------D 0 2.0 5.0 1 63 106 0 62
+ 1.641203 2 5 sctp 1500 -------D 0 2.0 5.0 1 64 107 0 63
+ 1.641203 2 5 sctp 1500 -------D 0 2.0 5.0 1 65 108 0 64
+ 1.641203 2 5 sctp 1500 -------D 0 2.0 5.0 1 66 109 0 65
- 1.641203 2 5 sctp 1500 -------D 0 2.0 5.0 1 61 104 0 60
- 1.642403 2 5 sctp 1500 -------D 0 2.0 5.0 1 62 105 0 61
r 1.643603 5 2 sctp 52 -------S 0 5.0 2.0 1 44 100 65535 65535
+ 1.643603 2 5 sctp 1500 -------D 0 2.0 5.0 1 67 110 0 66
+ 1.643603 2 5 sctp 1500 -------D 0 2.0 5.0 1 68 111 0 67
- 1.643603 2 5 sctp 1500 -------D 0 2.0 5.0 1 63 106 0 62
- 1.644803 2 5 sctp 1500 -------D 0 2.0 5.0 1 64 107 0 63
r 1.646003 5 2 sctp 52 -------S 0 5.0 2.0 1 44 101 65535 65535
+ 1.646003 2 5 sctp 1500 -------D 0 2.0 5.0 1 69 112 0 68
+ 1.646003 2 5 sctp 1500 -------D 0 2.0 5.0 1 70 113 0 69
+ 1.646003 2 5 sctp 1500 -------D 0 2.0 5.0 1 71 114 0 70
- 1.646003 2 5 sctp 1500 -------D 0 2.0 5.0 1 65 108 0 64
- 1.647203 2 5 sctp 1500 -------D 0 2.0 5.0 1 66 109 0 65
- 1.648403 2 5 sctp 1500 -------D 0 2.0 5.0 1 67 110 0 66
- 1.649603 2 5 sctp 1500 -------D 0 2.0 5.0 1 68 111 0 67
- 1.650803 2 5 sctp 1500 -------D 0 2.0 5.0 1 69 112 0 68
- 1.652003 2 5 sctp 1500 -------D 0 2.0 5.0 1 70 113 0 69
- 1.653203 2 5 sctp 1500 -------D 0 2.0 5.0 1 71 114 0 70
r 1.685003 2 5 sctp 1500 -------D 0 2.0 5.0 1 59 102 0 58
r 1.686203 2 5 sctp 1500 -------D 0 2.0 5.0 1 60 103 0 59
+ 1.686203 5 2 sctp 52 -------S 0 5.0 2.0 1 44 115 65535 65535
- 1.686203 5 2 sctp 52 -------S 0 5.0 2.0 1 44 115 65535 65535
r 1.687403 2 5 sctp 1500 -------D 0 2.0 5.0 1 61 104 0 60
r 1.688603 2 5 sctp 1500 -------D 0 2.0 5.0 1 62 105 0 61
+ 1.688603 5 2 sctp 52 -------S 0 5.0 2.0 1 44 116 65535 65535
- 1.688603 5 2 sctp 52 -------S 0 5.0 2.0 1 44 116 65535 65535
r 1.689803 2 5 sctp 1500 -------D 0 2.0 5.0 1 63 106 0 62
r 1.691003 2 5 sctp 1500 -------D 0 2.0 5.0 1 64 107 0 63
+ 1.691003 5 2 sctp 52 -------S 0 5.0 2.0 1 44 117 65535 65535
- 1.691003 5 2 sctp 52 -------S 0 5.0 2.0 1 44 117 65535 65535
r 1.692203 2 5 sctp 1500 -------D 0 2.0 5.0 1 65 108 0 64
r 1.693403 2 5 sctp 1500 -------D 0 2.0 5.0 1 66 109 0 65
+ 1.693403 5 2 sctp 52 -------S 0 5.0 2.0 1 44 118 65535 65535
- 1.693403 5 2 sctp 52 -------S 0 5.0 2.0 1 44 118 65535 65535
r 1.694603 2 5 sctp 1500 -------D 0 2.0 5.0 1 67 110 0 66
r 1.695803 2 5 sctp 1500 -------D 0 2.0 5.0 1 68 111 0 67
+ 1.695803 5 2 sctp 52 -------S 0 5.0 2.0 1 44 119 65535 65535
- 1.695803 5 2 sctp 52 -------S 0 5.0 2.0 1 44 119 65535 65535
r 1.697003 2 5 sctp 1500 -------D 0 2.0 5.0 1 69 112 0 68
r 1.698203 2 5 sctp 1500 -------D 0 2.0 5.0 1 70 113 0 69
+ 1.698203 5 2 sctp 52 -------S 0 5.0 2.0 1 44 120 65535 65535
- 1.698203 5 2 sctp 52 -------S 0 5.0 2.0 1 44 120 65535 65535
r 1.699403 2 5 sctp 1500 -------D 0 2.0 5.0 1 71 114 0 70
r 1.731245 5 2 sctp 52 -------S 0 5.0 2.0 1 44 115 65535 65535
+ 1.731245 2 5 sctp 1500 -------D 0 2.0 5.0 1 72 121 0 71
- 1.731245 2 5 sctp 1500 -------D 0 2.0 5.0 1 72 121 0 71
+ 1.731245 2 5 sctp 1500 -------D 0 2.0 5.0 1 73 122 0 72
- 1.732445 2 5 sctp 1500 -------D 0 2.0 5.0 1 73 122 0 72
r 1.733645 5 2 sctp 52 -------S 0 5.0 2.0 1 44 116 65535 65535
+ 1.733645 2 5 sctp 1500 -------D 0 2.0 5.0 1 74 123 0 73
+ 1.733645 2 5 sctp 1500 -------D 0 2.0 5.0 1 75 124 0 74
- 1.733645 2 5 sctp 1500 -------D 0 2.0 5.0 1 74 123 0 73
- 1.734845 2 5 sctp 1500 -------D 0 2.0 5.0 1 75 124 0 74
r 1.736045 5 2 sctp 52 -------S 0 5.0 2.0 1 44 117 65535 65535
+ 1.736045 2 5 sctp 1500 -------D 0 2.0 5.0 1 76 125 0 75
+ 1.736045 2 5 sctp 1500 -------D 0 2.0 5.0 1 77 126 0 76
- 1.736045 2 5 sctp 1500 -------D 0 2.0 5.0 1 76 125 0 75
- 1.737245 2 5 sctp 1500 -------D 0 2.0 5.0 1 77 126 0 76
r 1.738445 5 2 sctp 52 -------S 0 5.0 2.0 1 44 118 65535 65535
+ 1.738445 2 5 sctp 1500 -------D 0 2.0 5.0 1 78 127 0 77
+ 1.738445 2 5 sctp 1500 -------D 0 2.0 5.0 1 79 128 0 78
- 1.738445 2 5 sctp 1500 -------D 0 2.0 5.0 1 78 127 0 77
- 1.739645 2 5 sctp 1500 -------D 0 2.0 5.0 1 79 128 0 78
r 1.740845 5 2 sctp 52 -------S 0 5.0 2.0 1 44 119 65535 65535
+ 1.740845 2 5 sctp 1500 -------D 0 2.0 5.0 1 80 129 0 79
+ 1.740845 2 5 sctp 1500 -------D 0 2.0 5.0 1 81 130 0 80
- 1.740845 2 5 sctp 1500 -------D 0 2.0 5.0 1 80 129 0 79
- 1.742045 2 5 sctp 1500 -------D 0 2.0 5.0 1 81 130 0 80
r 1.743245 5 2 sctp 52 -------S 0 5.0 2.0 1 44 120 65535 65535
+ 1.743245 2 5 sctp 1500 -------D 0 2.0 5.0 1 82 131 0 81
+ 1.743245 2 5 sctp 1500 -------D 0 2.0 5.0 1 83 132 0 82
- 1.743245 2 5 sctp 1500 -------D 0 2.0 5.0 1 82 131 0 81
- 1.744445 2 5 sctp 1500 -------D 0 2.0 5.0 1 83 132 0 82
r 1.777445 2 5 sctp 1500 -------D 0 2.0 5.0 1 72 121 0 71
+ 1.777445 5 2 sctp 52 -------S 0 5.0 2.0 1 44 133 65535 65535
- 1.777445 5 2 sctp 52 -------S 0 5.0 2.0 1 44 133 65535 65535
r 1.778645 2 5 sctp 1500 -------D 0 2.0 5.0 1 73 122 0 72
r 1.779845 2 5 sctp 1500 -------D 0 2.0 5.0 1 74 123 0 73
+ 1.779845 5 2 sctp 52 -------S 0 5.0 2.0 1 44 134 65535 65535
- 1.779845 5 2 sctp 52 -------S 0 5.0 2.0 1 44 134 65535 65535
r 1.781045 2 5 sctp 1500 -------D 0 2.0 5.0 1 75 124 0 74
r 1.782245 2 5 sctp 1500 -------D 0 2.0 5.0 1 76 125 0 75
+ 1.782245 5 2 sctp 52 -------S 0 5.0 2.0 1 44 135 65535 65535
- 1.782245 5 2 sctp 52 -------S 0 5.0 2.0 1 44 135 65535 65535
r 1.783445 2 5 sctp 1500 -------D 0 2.0 5.0 1 77 126 0 76
r 1.784645 2 5 sctp 1500 -------D 0 2.0 5.0 1 78 127 0 77
+ 1.784645 5 2 sctp 52 -------S 0 5.0 2.0 1 44 136 65535 65535
- 1.784645 5 2 sctp 52 -------S 0 5.0 2.0 1 44 136 65535 65535
r 1.785845 2 5 sctp 1500 -------D 0 2.0 5.0 1 79 128 0 78
r 1.787045 2 5 sctp 1500 -------D 0 2.0 5.0 1 80 129 0 79
+ 1.787045 5 2 sctp 52 -------S 0 5.0 2.0 1 44 137 65535 65535
- 1.787045 5 2 sctp 52 -------S 0 5.0 2.0 1 44 137 65535 65535
r 1.788245 2 5 sctp 1500 -------D 0 2.0 5.0 1 81 130 0 80
r 1.789445 2 5 sctp 1500 -------D 0 2.0 5.0 1 82 131 0 81
+ 1.789445 5 2 sctp 52 -------S 0 5.0 2.0 1 44 138 65535 65535
- 1.789445 5 2 sctp 52 -------S 0 5.0 2.0 1 44 138 65535 65535
r 1.790645 2 5 sctp 1500 -------D 0 2.0 5.0 1 83 132 0 82
r 1.822486 5 2 sctp 52 -------S 0 5.0 2.0 1 44 133 65535 65535
+ 1.822486 2 5 sctp 1500 -------D 0 2.0 5.0 1 84 139 0 83
- 1.822486 2 5 sctp 1500 -------D 0 2.0 5.0 1 84 139 0 83
+ 1.822486 2 5 sctp 1500 -------D 0 2.0 5.0 1 85 140 0 84
+ 1.822486 2 5 sctp 1500 -------D 0 2.0 5.0 1 86 141 0 85
- 1.823686 2 5 sctp 1500 -------D 0 2.0 5.0 1 85 140 0 84
r 1.824886 5 2 sctp 52 -------S 0 5.0 2.0 1 44 134 65535 65535
+ 1.824886 2 5 sctp 1500 -------D 0 2.0 5.0 1 87 142 0 86
+ 1.824886 2 5 sctp 1500 -------D 0 2.0 5.0 1 88 143 0 87
- 1.824886 2 5 sctp 1500 -------D 0 2.0 5.0 1 86 141 0 85
- 1.826086 2 5 sctp 1500 -------D 0 2.0 5.0 1 87 142 0 86
r 1.827286 5 2 sctp 52 -------S 0 5.0 2.0 1 44 135 65535 65535
- 1.827286 2 5 sctp 1500 -------D 0 2.0 5.0 1 88 143 0 87
r 1.829686 5 2 sctp 52 -------S 0 5.0 2.0 1 44 136 65535 65535
r 1.832086 5 2 sctp 52 -------S 0 5.0 2.0 1 44 137 65535 65535
r 1.834486 5 2 sctp 52 -------S 0 5.0 2.0 1 44 138 65535 65535
r 1.868686 2 5 sctp 1500 -------D 0 2.0 5.0 1 84 139 0 83
+ 1.868686 5 2 sctp 52 -------S 0 5.0 2.0 1 44 144 65535 65535
- 1.868686 5 2 sctp 52 -------S 0 5.0 2.0 1 44 144 65535 65535
r 1.869886 2 5 sctp 1500 -------D 0 2.0 5.0 1 85 140 0 84
r 1.871086 2 5 sctp 1500 -------D 0 2.0 5.0 1 86 141 0 85
+ 1.871086 5 2 sctp 52 -------S 0 5.0 2.0 1 44 145 65535 65535
- 1.871086 5 2 sctp 52 -------S 0 5.0 2.0 1 44 145 65535 65535
r 1.872286 2 5 sctp 1500 -------D 0 2.0 5.0 1 87 142 0 86
r 1.873486 2 5 sctp 1500 -------D 0 2.0 5.0 1 88 143 0 87
+ 1.873486 5 2 sctp 52 -------S 0 5.0 2.0 1 44 146 65535 65535
- 1.873486 5 2 sctp 52 -------S 0 5.0 2.0 1 44 146 65535 65535
r 1.913728 5 2 sctp 52 -------S 0 5.0 2.0 1 44 144 65535 65535
r 1.916128 5 2 sctp 52 -------S 0 5.0 2.0 1 44 145 65535 65535
r 1.918528 5 2 sctp 52 -------S 0 5.0 2.0 1 44 146 65535 65535
+ 3.362678 2 5 sctp 1500 -------D 0 2.0 5.0 1 45 147 0 44
- 3.362678 2 5 sctp 1500 -------D 0 2.0 5.0 1 45 147 0 44
r 3.408878 2 5 sctp 1500 -------D 0 2.0 5.0 1 45 147 0 44
+ 3.608878 5 2 sctp 48 -------S 0 5.0 2.0 1 88 148 65535 65535
- 3.608878 5 2 sctp 48 -------S 0 5.0 2.0 1 88 148 65535 65535
r 3.653917 5 2 sctp 48 -------S 0 5.0 2.0 1 88 148 65535 65535
d 3.653917 1 4 sctp 1500 -------D 0 1.0 4.0 1 89 149 0 88
+ 3.653917 2 5 sctp 1500 -------D 0 2.0 5.0 1 90 150 0 89
- 3.653917 2 5 sctp 1500 -------D 0 2.0 5.0 1 90 150 0 89
+ 3.653917 2 5 sctp 1500 -------D 0 2.0 5.0 1 91 151 0 90
+ 3.653917 2 5 sctp 1500 -------D 0 2.0 5.0 1 92 152 0 91
+ 3.653917 2 5 sctp 1500 -------D 0 2.0 5.0 1 93 153 0 92
- 3.655117 2 5 sctp 1500 -------D 0 2.0 5.0 1 91 151 0 90
- 3.656317 2 5 sctp 1500 -------D 0 2.0 5.0 1 92 152 0 91
- 3.657517 2 5 sctp 1500 -------D 0 2.0 5.0 1 93 153 0 92
r 3.700117 2 5 sctp 1500 -------D 0 2.0 5.0 1 90 150 0 89
r 3.701317 2 5 sctp 1500 -------D 0 2.0 5.0 1 91 151 0 90
+ 3.701317 5 2 sctp 52 -------S 0 5.0 2.0 1 88 154 65535 65535
- 3.701317 5 2 sctp 52 -------S 0 5.0 2.0 1 88 154 65535 65535
r 3.702517 2 5 sctp 1500 -------D 0 2.0 5.0 1 92 152 0 91
r 3.703717 2 5 sctp 1500 -------D 0 2.0 5.0 1 93 153 0 92
+ 3.703717 5 2 sctp 52 -------S 0 5.0 2.0 1 88 155 65535 65535
- 3.703717 5 2 sctp 52 -------S 0 5.0 2.0 1 88 155 65535 65535
r 3.746358 5 2 sctp 52 -------S 0 5.0 2.0 1 88 154 65535 65535
+ 3.746358 2 5 sctp 1500 -------D 0 2.0 5.0 1 94 156 0 93
- 3.746358 2 5 sctp 1500 -------D 0 2.0 5.0 1 94 156 0 93
+ 3.746358 2 5 sctp 1500 -------D 0 2.0 5.0 1 95 157 0 94
+ 3.746358 2 5 sctp 1500 -------D 0 2.0 5.0 1 96 158 0 95
+ 3.746358 2 5 sctp 1500 -------D 0 2.0 5.0 1 97 159 0 96
- 3.747558 2 5 sctp 1500 -------D 0 2.0 5.0 1 95 157 0 94
r 3.748758 5 2 sctp 52 -------S 0 5.0 2.0 1 88 155 65535 65535
+ 3.748758 2 5 sctp 1500 -------D 0 2.0 5.0 1 98 160 0 97
+ 3.748758 2 5 sctp 1500 -------D 0 2.0 5.0 1 99 161 0 98
+ 3.748758 2 5 sctp 1500 -------D 0 2.0 5.0 1 100 162 0 99
- 3.748758 2 5 sctp 1500 -------D 0 2.0 5.0 1 96 158 0 95
- 3.749958 2 5 sctp 1500 -------D 0 2.0 5.0 1 97 159 0 96
- 3.751158 2 5 sctp 1500 -------D 0 2.0 5.0 1 98 160 0 97
- 3.752358 2 5 sctp 1500 -------D 0 2.0 5.0 1 99 161 0 98
- 3.753558 2 5 sctp 1500 -------D 0 2.0 5.0 1 100 162 0 99
r 3.792558 2 5 sctp 1500 -------D 0 2.0 5.0 1 94 156 0 93
r 3.793758 2 5 sctp 1500 -------D 0 2.0 5.0 1 95 157 0 94
+ 3.793758 5 2 sctp 52 -------S 0 5.0 2.0 1 88 163 65535 65535
- 3.793758 5 2 sctp 52 -------S 0 5.0 2.0 1 88 163 65535 65535
r 3.794958 2 5 sctp 1500 -------D 0 2.0 5.0 1 96 158 0 95
r 3.796158 2 5 sctp 1500 -------D 0 2.0 5.0 1 97 159 0 96
+ 3.796158 5 2 sctp 52 -------S 0 5.0 2.0 1 88 164 65535 65535
- 3.796158 5 2 sctp 52 -------S 0 5.0 2.0 1 88 164 65535 65535
r 3.797358 2 5 sctp 1500 -------D 0 2.0 5.0 1 98 160 0 97
r 3.798558 2 5 sctp 1500 -------D 0 2.0 5.0 1 99 161 0 98
+ 3.798558 5 2 sctp 52 -------S 0 5.0 2.0 1 88 165 65535 65535
- 3.798558 5 2 sctp 52 -------S 0 5.0 2.0 1 88 165 65535 65535
r 3.799758 2 5 sctp 1500 -------D 0 2.0 5.0 1 100 162 0 99
r 3.8388 5 2 sctp 52 -------S 0 5.0 2.0 1 88 163 65535 65535
+ 3.8388 2 5 sctp 1500 -------D 0 2.0 5.0 1 101 166 0 100
- 3.8388 2 5 sctp 1500 -------D 0 2.0 5.0 1 101 166 0 100
+ 3.8388 2 5 sctp 1500 -------D 0 2.0 5.0 1 102 167 0 101
+ 3.8388 2 5 sctp 1500 -------D 0 2.0 5.0 1 103 168 0 102
- 3.84 2 5 sctp 1500 -------D 0 2.0 5.0 1 102 167 0 101
r 3.8412 5 2 sctp 52 -------S 0 5.0 2.0 1 88 164 65535 65535
+ 3.8412 2 5 sctp 1500 -------D 0 2.0 5.0 1 104 169 0 103
+ 3.8412 2 5 sctp 1500 -------D 0 2.0 5.0 1 105 170 0 104
+ 3.8412 2 5 sctp 1500 -------D 0 2.0 5.0 1 106 171 0 105
- 3.8412 2 5 sctp 1500 -------D 0 2.0 5.0 1 103 168 0 102
- 3.8424 2 5 sctp 1500 -------D 0 2.0 5.0 1 104 169 0 103
r 3.8436 5 2 sctp 52 -------S 0 5.0 2.0 1 88 165 65535 65535
+ 3.8436 2 5 sctp 1500 -------D 0 2.0 5.0 1 107 172 0 106
+ 3.8436 2 5 sctp 1500 -------D 0 2.0 5.0 1 108 173 0 107
+ 3.8436 2 5 sctp 1500 -------D 0 2.0 5.0 1 109 174 0 108
- 3.8436 2 5 sctp 1500 -------D 0 2.0 5.0 1 105 170 0 104
- 3.8448 2 5 sctp 1500 -------D 0 2.0 5.0 1 106 171 0 105
- 3.846 2 5 sctp 1500 -------D 0 2.0 5.0 1 107 172 0 106
- 3.8472 2 5 sctp 1500 -------D 0 2.0 5.0 1 108 173 0 107
- 3.8484 2 5 sctp 1500 -------D 0 2.0 5.0 1 109 174 0 108
r 3.885 2 5 sctp 1500 -------D 0 2.0 5.0 1 101 166 0 100
+ 3.885 5 2 sctp 52 -------S 0 5.0 2.0 1 88 175 65535 65535
- 3.885 5 2 sctp 52 -------S 0 5.0 2.0 1 88 175 65535 65535
r 3.8862 2 5 sctp 1500 -------D 0 2.0 5.0 1 102 167 0 101
r 3.8874 2 5 sctp 1500 -------D 0 2.0 5.0 1 103 168 0 102
+ 3.8874 5 2 sctp 52 -------S 0 5.0 2.0 1 88 176 65535 65535
- 3.8874 5 2 sctp 52 -------S 0 5.0 2.0 1 88 176 65535 65535
r 3.8886 2 5 sctp 1500 -------D 0 2.0 5.0 1 104 169 0 103
r 3.8898 2 5 sctp 1500 -------D 0 2.0 5.0 1 105 170 0 104
+ 3.8898 5 2 sctp 52 -------S 0 5.0 2.0 1 88 177 65535 65535
- 3.8898 5 2 sctp 52 -------S 0 5.0 2.0 1 88 177 65535 65535
r 3.891 2 5 sctp 1500 -------D 0 2.0 5.0 1 106 171 0 105
r 3.8922 2 5 sctp 1500 -------D 0 2.0 5.0 1 107 172 0 106
+ 3.8922 5 2 sctp 52 -------S 0 5.0 2.0 1 88 178 65535 65535
- 3.8922 5 2 sctp 52 -------S 0 5.0 2.0 1 88 178 65535 65535
r 3.8934 2 5 sctp 1500 -------D 0 2.0 5.0 1 108 173 0 107