+ 0.5 1 4 sctp 56 -------I 0 1.0 4.0 1 -1 4 65535 65535
- 0.5 1 4 sctp 56 -------I 0 1.0 4.0 1 -1 4 65535 65535
r 0.700896 1 4 sctp 56 -------I 0 1.0 4.0 1 -1 4 65535 65535
+ 0.700896 4 1 sctp 56 -------I 0 4.0 1.0 1 -1 5 65535 65535
- 0.700896 4 1 sctp 56 -------I 0 4.0 1.0 1 -1 5 65535 65535
r 0.901792 4 1 sctp 56 -------I 0 4.0 1.0 1 -1 5 65535 65535
+ 0.901792 1 4 sctp 36 -------I 0 1.0 4.0 1 -1 6 65535 65535
- 0.901792 1 4 sctp 36 -------I 0 1.0 4.0 1 -1 6 65535 65535
r 1.102368 1 4 sctp 36 -------I 0 1.0 4.0 1 -1 6 65535 65535
+ 1.102368 4 1 sctp 36 -------I 0 4.0 1.0 1 -1 7 65535 65535
- 1.102368 4 1 sctp 36 -------I 0 4.0 1.0 1 -1 7 65535 65535
r 1.302944 4 1 sctp 36 -------I 0 4.0 1.0 1 -1 7 65535 65535
+ 1.302944 1 4 sctp 56 -------H 0 1.0 4.0 1 -1 8 65535 65535
- 1.302944 1 4 sctp 56 -------H 0 1.0 4.0 1 -1 8 65535 65535
+ 1.302944 2 5 sctp 56 -------H 0 2.0 5.0 1 -1 9 65535 65535
- 1.302944 2 5 sctp 56 -------H 0 2.0 5.0 1 -1 9 65535 65535
r 1.50384 1 4 sctp 56 -------H 0 1.0 4.0 1 -1 8 65535 65535
+ 1.50384 4 1 sctp 56 -------B 0 4.0 1.0 1 -1 10 65535 65535
- 1.50384 4 1 sctp 56 -------B 0 4.0 1.0 1 -1 10 65535 65535
r 1.50384 2 5 sctp 56 -------H 0 2.0 5.0 1 -1 9 65535 65535
+ 1.50384 5 2 sctp 56 -------B 0 5.0 2.0 1 -1 11 65535 65535
- 1.50384 5 2 sctp 56 -------B 0 5.0 2.0 1 -1 11 65535 65535
r 1.704736 4 1 sctp 56 -------B 0 4.0 1.0 1 -1 10 65535 65535
r 1.704736 5 2 sctp 56 -------B 0 5.0 2.0 1 -1 11 65535 65535
+ 1.704736 1 4 sctp 1500 -------D 0 1.0 4.0 1 1 12 0 0
- 1.704736 1 4 sctp 1500 -------D 0 1.0 4.0 1 1 12 0 0
+ 1.704736 1 4 sctp 1500 -------D 0 1.0 4.0 1 2 13 0 1
+ 1.704736 1 4 sctp 1500 -------D 0 1.0 4.0 1 3 14 0 2
- 1.728736 1 4 sctp 1500 -------D 0 1.0 4.0 1 2 13 0 1
- 1.752736 1 4 sctp 1500 -------D 0 1.0 4.0 1 3 14 0 2
r 1.928736 1 4 sctp 1500 -------D 0 1.0 4.0 1 1 12 0 0
+ 1.928736 4 1 sctp 48 -------S 0 4.0 1.0 1 1 15 65535 65535
- 1.928736 4 1 sctp 48 -------S 0 4.0 1.0 1 1 15 65535 65535
r 1.952736 1 4 sctp 1500 -------D 0 1.0 4.0 1 2 13 0 1
r 1.976736 1 4 sctp 1500 -------D 0 1.0 4.0 1 3 14 0 2
+ 1.976736 4 1 sctp 48 -------S 0 4.0 1.0 1 3 16 65535 65535
- 1.976736 4 1 sctp 48 -------S 0 4.0 1.0 1 3 16 65535 65535
r 2.129504 4 1 sctp 48 -------S 0 4.0 1.0 1 1 15 65535 65535
+ 2.129504 1 4 sctp 1500 -------D 0 1.0 4.0 1 4 17 0 3
- 2.129504 1 4 sctp 1500 -------D 0 1.0 4.0 1 4 17 0 3
+ 2.129504 1 4 sctp 1500 -------D 0 1.0 4.0 1 5 18 0 4
- 2.153504 1 4 sctp 1500 -------D 0 1.0 4.0 1 5 18 0 4
r 2.177504 4 1 sctp 48 -------S 0 4.0 1.0 1 3 16 65535 65535
+ 2.177504 1 4 sctp 1500 -------D 0 1.0 4.0 1 6 19 0 5
+ 2.177504 1 4 sctp 1500 -------D 0 1.0 4.0 1 7 20 0 6
+ 2.177504 1 4 sctp 1500 -------D 0 1.0 4.0 1 8 21 0 7
- 2.177504 1 4 sctp 1500 -------D 0 1.0 4.0 1 6 19 0 5
- 2.201504 1 4 sctp 1500 -------D 0 1.0 4.0 1 7 20 0 6
- 2.225504 1 4 sctp 1500 -------D 0 1.0 4.0 1 8 21 0 7
r 2.353504 1 4 sctp 1500 -------D 0 1.0 4.0 1 4 17 0 3
r 2.377504 1 4 sctp 1500 -------D 0 1.0 4.0 1 5 18 0 4
+ 2.377504 4 1 sctp 48 -------S 0 4.0 1.0 1 5 22 65535 65535
- 2.377504 4 1 sctp 48 -------S 0 4.0 1.0 1 5 22 65535 65535
r 2.401504 1 4 sctp 1500 -------D 0 1.0 4.0 1 6 19 0 5
r 2.425504 1 4 sctp 1500 -------D 0 1.0 4.0 1 7 20 0 6
+ 2.425504 4 1 sctp 48 -------S 0 4.0 1.0 1 7 23 65535 65535
- 2.425504 4 1 sctp 48 -------S 0 4.0 1.0 1 7 23 65535 65535
r 2.449504 1 4 sctp 1500 -------D 0 1.0 4.0 1 8 21 0 7
r 2.578272 4 1 sctp 48 -------S 0 4.0 1.0 1 5 22 65535 65535
+ 2.578272 1 4 sctp 1500 -------D 0 1.0 4.0 1 9 24 0 8
- 2.578272 1 4 sctp 1500 -------D 0 1.0 4.0 1 9 24 0 8
+ 2.578272 1 4 sctp 1500 -------D 0 1.0 4.0 1 10 25 0 9
+ 2.578272 1 4 sctp 1500 -------D 0 1.0 4.0 1 11 26 0 10
- 2.602272 1 4 sctp 1500 -------D 0 1.0 4.0 1 10 25 0 9
r 2.626272 4 1 sctp 48 -------S 0 4.0 1.0 1 7 23 65535 65535
+ 2.626272 1 4 sctp 1500 -------D 0 1.0 4.0 1 12 27 0 11
+ 2.626272 1 4 sctp 1500 -------D 0 1.0 4.0 1 13 28 0 12
d 2.626272 1 4 sctp 1500 -------D 0 1.0 4.0 1 14 29 0 13
- 2.626272 1 4 sctp 1500 -------D 0 1.0 4.0 1 11 26 0 10
+ 2.649504 4 1 sctp 48 -------S 0 4.0 1.0 1 8 30 65535 65535
- 2.649504 4 1 sctp 48 -------S 0 4.0 1.0 1 8 30 65535 65535
- 2.650272 1 4 sctp 1500 -------D 0 1.0 4.0 1 12 27 0 11
- 2.674272 1 4 sctp 1500 -------D 0 1.0 4.0 1 13 28 0 12
r 2.802272 1 4 sctp 1500 -------D 0 1.0 4.0 1 9 24 0 8
r 2.826272 1 4 sctp 1500 -------D 0 1.0 4.0 1 10 25 0 9
+ 2.826272 4 1 sctp 48 -------S 0 4.0 1.0 1 10 31 65535 65535
- 2.826272 4 1 sctp 48 -------S 0 4.0 1.0 1 10 31 65535 65535
r 2.850272 1 4 sctp 1500 -------D 0 1.0 4.0 1 11 26 0 10
r 2.850272 4 1 sctp 48 -------S 0 4.0 1.0 1 8 30 65535 65535
+ 2.850272 1 4 sctp 1500 -------D 0 1.0 4.0 1 15 32 0 14
- 2.850272 1 4 sctp 1500 -------D 0 1.0 4.0 1 15 32 0 14
+ 2.850272 1 4 sctp 1500 -------D 0 1.0 4.0 1 16 33 0 15
r 2.874272 1 4 sctp 1500 -------D 0 1.0 4.0 1 12 27 0 11
+ 2.874272 4 1 sctp 48 -------S 0 4.0 1.0 1 12 34 65535 65535
- 2.874272 4 1 sctp 48 -------S 0 4.0 1.0 1 12 34 65535 65535
- 2.874272 1 4 sctp 1500 -------D 0 1.0 4.0 1 16 33 0 15
r 2.898272 1 4 sctp 1500 -------D 0 1.0 4.0 1 13 28 0 12
r 3.02704 4 1 sctp 48 -------S 0 4.0 1.0 1 10 31 65535 65535
+ 3.02704 1 4 sctp 1500 -------D 0 1.0 4.0 1 17 35 0 16
- 3.02704 1 4 sctp 1500 -------D 0 1.0 4.0 1 17 35 0 16
+ 3.02704 1 4 sctp 1500 -------D 0 1.0 4.0 1 18 36 0 17
+ 3.02704 1 4 sctp 1500 -------D 0 1.0 4.0 1 19 37 0 18
- 3.05104 1 4 sctp 1500 -------D 0 1.0 4.0 1 18 36 0 17
r 3.074272 1 4 sctp 1500 -------D 0 1.0 4.0 1 15 32 0 14
+ 3.074272 4 1 sctp 52 -------S 0 4.0 1.0 1 13 38 65535 65535
- 3.074272 4 1 sctp 52 -------S 0 4.0 1.0 1 13 38 65535 65535
r 3.07504 4 1 sctp 48 -------S 0 4.0 1.0 1 12 34 65535 65535
+ 3.07504 1 4 sctp 1500 -------D 0 1.0 4.0 1 20 39 0 19
+ 3.07504 1 4 sctp 1500 -------D 0 1.0 4.0 1 21 40 0 20
+ 3.07504 1 4 sctp 1500 -------D 0 1.0 4.0 1 22 41 0 21
- 3.07504 1 4 sctp 1500 -------D 0 1.0 4.0 1 19 37 0 18
r 3.098272 1 4 sctp 1500 -------D 0 1.0 4.0 1 16 33 0 15
+ 3.098272 4 1 sctp 52 -------S 0 4.0 1.0 1 13 42 65535 65535
- 3.098272 4 1 sctp 52 -------S 0 4.0 1.0 1 13 42 65535 65535
- 3.09904 1 4 sctp 1500 -------D 0 1.0 4.0 1 20 39 0 19
- 3.12304 1 4 sctp 1500 -------D 0 1.0 4.0 1 21 40 0 20
- 3.14704 1 4 sctp 1500 -------D 0 1.0 4.0 1 22 41 0 21
r 3.25104 1 4 sctp 1500 -------D 0 1.0 4.0 1 17 35 0 16
+ 3.25104 4 1 sctp 52 -------S 0 4.0 1.0 1 13 43 65535 65535
- 3.25104 4 1 sctp 52 -------S 0 4.0 1.0 1 13 43 65535 65535
r 3.27504 1 4 sctp 1500 -------D 0 1.0 4.0 1 18 36 0 17
+ 3.27504 4 1 sctp 52 -------S 0 4.0 1.0 1 13 44 65535 65535
- 3.27504 4 1 sctp 52 -------S 0 4.0 1.0 1 13 44 65535 65535
r 3.275104 4 1 sctp 52 -------S 0 4.0 1.0 1 13 38 65535 65535
+ 3.275104 1 4 sctp 1500 -------D 0 1.0 4.0 1 23 45 0 22
- 3.275104 1 4 sctp 1500 -------D 0 1.0 4.0 1 23 45 0 22
+ 3.275104 1 4 sctp 1500 -------D 0 1.0 4.0 1 24 46 0 23
+ 3.275104 1 4 sctp 1500 -------D 0 1.0 4.0 1 25 47 0 24
r 3.29904 1 4 sctp 1500 -------D 0 1.0 4.0 1 19 37 0 18
+ 3.29904 4 1 sctp 52 -------S 0 4.0 1.0 1 13 48 65535 65535
- 3.29904 4 1 sctp 52 -------S 0 4.0 1.0 1 13 48 65535 65535
r 3.299104 4 1 sctp 52 -------S 0 4.0 1.0 1 13 42 65535 65535
+ 3.299104 1 4 sctp 1500 -------D 0 1.0 4.0 1 26 49 0 25
- 3.299104 1 4 sctp 1500 -------D 0 1.0 4.0 1 24 46 0 23
r 3.32304 1 4 sctp 1500 -------D 0 1.0 4.0 1 20 39 0 19
+ 3.32304 4 1 sctp 52 -------S 0 4.0 1.0 1 13 50 65535 65535
- 3.32304 4 1 sctp 52 -------S 0 4.0 1.0 1 13 50 65535 65535
- 3.323104 1 4 sctp 1500 -------D 0 1.0 4.0 1 25 47 0 24
r 3.34704 1 4 sctp 1500 -------D 0 1.0 4.0 1 21 40 0 20
+ 3.34704 4 1 sctp 52 -------S 0 4.0 1.0 1 13 51 65535 65535
- 3.34704 4 1 sctp 52 -------S 0 4.0 1.0 1 13 51 65535 65535
- 3.347104 1 4 sctp 1500 -------D 0 1.0 4.0 1 26 49 0 25
r 3.37104 1 4 sctp 1500 -------D 0 1.0 4.0 1 22 41 0 21
+ 3.37104 4 1 sctp 52 -------S 0 4.0 1.0 1 13 52 65535 65535
- 3.37104 4 1 sctp 52 -------S 0 4.0 1.0 1 13 52 65535 65535
r 3.451872 4 1 sctp 52 -------S 0 4.0 1.0 1 13 43 65535 65535
d 3.451872 2 5 sctp 1500 -------D 0 2.0 5.0 1 14 53 0 13
r 3.475872 4 1 sctp 52 -------S 0 4.0 1.0 1 13 44 65535 65535
r 3.499104 1 4 sctp 1500 -------D 0 1.0 4.0 1 23 45 0 22
+ 3.499104 4 1 sctp 52 -------S 0 4.0 1.0 1 13 54 65535 65535
- 3.499104 4 1 sctp 52 -------S 0 4.0 1.0 1 13 54 65535 65535
r 3.499872 4 1 sctp 52 -------S 0 4.0 1.0 1 13 48 65535 65535
r 3.523104 1 4 sctp 1500 -------D 0 1.0 4.0 1 24 46 0 23
+ 3.523104 4 1 sctp 52 -------S 0 4.0 1.0 1 13 55 65535 65535
- 3.523104 4 1 sctp 52 -------S 0 4.0 1.0 1 13 55 65535 65535
r 3.523872 4 1 sctp 52 -------S 0 4.0 1.0 1 13 50 65535 65535
r 3.547104 1 4 sctp 1500 -------D 0 1.0 4.0 1 25 47 0 24
+ 3.547104 4 1 sctp 52 -------S 0 4.0 1.0 1 13 56 65535 65535
- 3.547104 4 1 sctp 52 -------S 0 4.0 1.0 1 13 56 65535 65535
r 3.547872 4 1 sctp 52 -------S 0 4.0 1.0 1 13 51 65535 65535
+ 3.547872 1 4 sctp 1500 -------D 0 1.0 4.0 1 27 57 0 26
- 3.547872 1 4 sctp 1500 -------D 0 1.0 4.0 1 27 57 0 26
r 3.571104 1 4 sctp 1500 -------D 0 1.0 4.0 1 26 49 0 25
+ 3.571104 4 1 sctp 52 -------S 0 4.0 1.0 1 13 58 65535 65535
- 3.571104 4 1 sctp 52 -------S 0 4.0 1.0 1 13 58 65535 65535
r 3.571872 4 1 sctp 52 -------S 0 4.0 1.0 1 13 52 65535 65535
+ 3.571872 1 4 sctp 1500 -------D 0 1.0 4.0 1 28 59 0 27
- 3.571872 1 4 sctp 1500 -------D 0 1.0 4.0 1 28 59 0 27
r 3.699936 4 1 sctp 52 -------S 0 4.0 1.0 1 13 54 65535 65535
+ 3.699936 1 4 sctp 1500 -------D 0 1.0 4.0 1 29 60 0 28
- 3.699936 1 4 sctp 1500 -------D 0 1.0 4.0 1 29 60 0 28
r 3.723936 4 1 sctp 52 -------S 0 4.0 1.0 1 13 55 65535 65535
+ 3.723936 1 4 sctp 1500 -------D 0 1.0 4.0 1 30 61 0 29
- 3.723936 1 4 sctp 1500 -------D 0 1.0 4.0 1 30 61 0 29
r 3.747936 4 1 sctp 52 -------S 0 4.0 1.0 1 13 56 65535 65535
+ 3.747936 1 4 sctp 1500 -------D 0 1.0 4.0 1 31 62 0 30
- 3.747936 1 4 sctp 1500 -------D 0 1.0 4.0 1 31 62 0 30
r 3.771872 1 4 sctp 1500 -------D 0 1.0 4.0 1 27 57 0 26
+ 3.771872 4 1 sctp 52 -------S 0 4.0 1.0 1 13 63 65535 65535
- 3.771872 4 1 sctp 52 -------S 0 4.0 1.0 1 13 63 65535 65535
r 3.771936 4 1 sctp 52 -------S 0 4.0 1.0 1 13 58 65535 65535
+ 3.771936 1 4 sctp 1500 -------D 0 1.0 4.0 1 32 64 0 31
- 3.771936 1 4 sctp 1500 -------D 0 1.0 4.0 1 32 64 0 31
r 3.795872 1 4 sctp 1500 -------D 0 1.0 4.0 1 28 59 0 27
+ 3.795872 4 1 sctp 52 -------S 0 4.0 1.0 1 13 65 65535 65535
- 3.795872 4 1 sctp 52 -------S 0 4.0 1.0 1 13 65 65535 65535
r 3.923936 1 4 sctp 1500 -------D 0 1.0 4.0 1 29 60 0 28
+ 3.923936 4 1 sctp 52 -------S 0 4.0 1.0 1 13 66 65535 65535
- 3.923936 4 1 sctp 52 -------S 0 4.0 1.0 1 13 66 65535 65535
r 3.947936 1 4 sctp 1500 -------D 0 1.0 4.0 1 30 61 0 29
+ 3.947936 4 1 sctp 52 -------S 0 4.0 1.0 1 13 67 65535 65535
- 3.947936 4 1 sctp 52 -------S 0 4.0 1.0 1 13 67 65535 65535
r 3.971936 1 4 sctp 1500 -------D 0 1.0 4.0 1 31 62 0 30
+ 3.971936 4 1 sctp 52 -------S 0 4.0 1.0 1 13 68 65535 65535
- 3.971936 4 1 sctp 52 -------S 0 4.0 1.0 1 13 68 65535 65535
r 3.972704 4 1 sctp 52 -------S 0 4.0 1.0 1 13 63 65535 65535
+ 3.972704 1 4 sctp 1500 -------D 0 1.0 4.0 1 33 69 0 32
- 3.972704 1 4 sctp 1500 -------D 0 1.0 4.0 1 33 69 0 32
r 3.995936 1 4 sctp 1500 -------D 0 1.0 4.0 1 32 64 0 31
+ 3.995936 4 1 sctp 52 -------S 0 4.0 1.0 1 13 70 65535 65535
- 3.995936 4 1 sctp 52 -------S 0 4.0 1.0 1 13 70 65535 65535
r 3.996704 4 1 sctp 52 -------S 0 4.0 1.0 1 13 65 65535 65535
+ 3.996704 1 4 sctp 1500 -------D 0 1.0 4.0 1 34 71 0 33
- 3.996704 1 4 sctp 1500 -------D 0 1.0 4.0 1 34 71 0 33
r 4.124768 4 1 sctp 52 -------S 0 4.0 1.0 1 13 66 65535 65535
+ 4.124768 1 4 sctp 1500 -------D 0 1.0 4.0 1 35 72 0 34
- 4.124768 1 4 sctp 1500 -------D 0 1.0 4.0 1 35 72 0 34
r 4.148768 4 1 sctp 52 -------S 0 4.0 1.0 1 13 67 65535 65535
+ 4.148768 1 4 sctp 1500 -------D 0 1.0 4.0 1 36 73 0 35
- 4.148768 1 4 sctp 1500 -------D 0 1.0 4.0 1 36 73 0 35
r 4.172768 4 1 sctp 52 -------S 0 4.0 1.0 1 13 68 65535 65535
+ 4.172768 1 4 sctp 1500 -------D 0 1.0 4.0 1 37 74 0 36
- 4.172768 1 4 sctp 1500 -------D 0 1.0 4.0 1 37 74 0 36
r 4.196704 1 4 sctp 1500 -------D 0 1.0 4.0 1 33 69 0 32
+ 4.196704 4 1 sctp 52 -------S 0 4.0 1.0 1 13 75 65535 65535
- 4.196704 4 1 sctp 52 -------S 0 4.0 1.0 1 13 75 65535 65535
r 4.196768 4 1 sctp 52 -------S 0 4.0 1.0 1 13 70 65535 65535
+ 4.196768 1 4 sctp 1500 -------D 0 1.0 4.0 1 38 76 0 37
- 4.196768 1 4 sctp 1500 -------D 0 1.0 4.0 1 38 76 0 37
r 4.220704 1 4 sctp 1500 -------D 0 1.0 4.0 1 34 71 0 33
+ 4.220704 4 1 sctp 52 -------S 0 4.0 1.0 1 13 77 65535 65535
- 4.220704 4 1 sctp 52 -------S 0 4.0 1.0 1 13 77 65535 65535
r 4.348768 1 4 sctp 1500 -------D 0 1.0 4.0 1 35 72 0 34
+ 4.348768 4 1 sctp 52 -------S 0 4.0 1.0 1 13 78 65535 65535
- 4.348768 4 1 sctp 52 -------S 0 4.0 1.0 1 13 78 65535 65535
r 4.372768 1 4 sctp 1500 -------D 0 1.0 4.0 1 36 73 0 35
+ 4.372768 4 1 sctp 52 -------S 0 4.0 1.0 1 13 79 65535 65535
- 4.372768 4 1 sctp 52 -------S 0 4.0 1.0 1 13 79 65535 65535
r 4.396768 1 4 sctp 1500 -------D 0 1.0 4.0 1 37 74 0 36
+ 4.396768 4 1 sctp 52 -------S 0 4.0 1.0 1 13 80 65535 65535
- 4.396768 4 1 sctp 52 -------S 0 4.0 1.0 1 13 80 65535 65535
r 4.397536 4 1 sctp 52 -------S 0 4.0 1.0 1 13 75 65535 65535
+ 4.397536 1 4 sctp 1500 -------D 0 1.0 4.0 1 39 81 0 38
- 4.397536 1 4 sctp 1500 -------D 0 1.0 4.0 1 39 81 0 38
r 4.420768 1 4 sctp 1500 -------D 0 1.0 4.0 1 38 76 0 37
+ 4.420768 4 1 sctp 52 -------S 0 4.0 1.0 1 13 82 65535 65535
- 4.420768 4 1 sctp 52 -------S 0 4.0 1.0 1 13 82 65535 65535
r 4.421536 4 1 sctp 52 -------S 0 4.0 1.0 1 13 77 65535 65535
+ 4.421536 1 4 sctp 1500 -------D 0 1.0 4.0 1 40 83 0 39
- 4.421536 1 4 sctp 1500 -------D 0 1.0 4.0 1 40 83 0 39
r 4.5496 4 1 sctp 52 -------S 0 4.0 1.0 1 13 78 65535 65535
+ 4.5496 1 4 sctp 1500 -------D 0 1.0 4.0 1 41 84 0 40
- 4.5496 1 4 sctp 1500 -------D 0 1.0 4.0 1 41 84 0 40
r 4.5736 4 1 sctp 52 -------S 0 4.0 1.0 1 13 79 65535 65535
+ 4.5736 1 4 sctp 1500 -------D 0 1.0 4.0 1 42 85 0 41
- 4.5736 1 4 sctp 1500 -------D 0 1.0 4.0 1 42 85 0 41
r 4.5976 4 1 sctp 52 -------S 0 4.0 1.0 1 13 80 65535 65535
+ 4.5976 1 4 sctp 1500 -------D 0 1.0 4.0 1 43 86 0 42
- 4.5976 1 4 sctp 1500 -------D 0 1.0 4.0 1 43 86 0 42
r 4.621536 1 4 sctp 1500 -------D 0 1.0 4.0 1 39 81 0 38
+ 4.621536 4 1 sctp 52 -------S 0 4.0 1.0 1 13 87 65535 65535
- 4.621536 4 1 sctp 52 -------S 0 4.0 1.0 1 13 87 65535 65535
r 4.6216 4 1 sctp 52 -------S 0 4.0 1.0 1 13 82 65535 65535
+ 4.6216 1 4 sctp 1500 -------D 0 1.0 4.0 1 44 88 0 43
- 4.6216 1 4 sctp 1500 -------D 0 1.0 4.0 1 44 88 0 43
r 4.645536 1 4 sctp 1500 -------D 0 1.0 4.0 1 40 83 0 39
+ 4.645536 4 1 sctp 52 -------S 0 4.0 1.0 1 13 89 65535 65535
- 4.645536 4 1 sctp 52 -------S 0 4.0 1.0 1 13 89 65535 65535
+ 4.657248 1 4 sctp 1500 -------D 0 1.0 4.0 1 14 90 0 13
- 4.657248 1 4 sctp 1500 -------D 0 1.0 4.0 1 14 90 0 13
r 4.7736 1 4 sctp 1500 -------D 0 1.0 4.0 1 41 84 0 40
+ 4.7736 4 1 sctp 52 -------S 0 4.0 1.0 1 13 91 65535 65535
- 4.7736 4 1 sctp 52 -------S 0 4.0 1.0 1 13 91 65535 65535
r 4.7976 1 4 sctp 1500 -------D 0 1.0 4.0 1 42 85 0 41
+ 4.7976 4 1 sctp 52 -------S 0 4.0 1.0 1 13 92 65535 65535
- 4.7976 4 1 sctp 52 -------S 0 4.0 1.0 1 13 92 65535 65535
r 4.8216 1 4 sctp 1500 -------D 0 1.0 4.0 1 43 86 0 42
+ 4.8216 4 1 sctp 52 -------S 0 4.0 1.0 1 13 93 65535 65535
- 4.8216 4 1 sctp 52 -------S 0 4.0 1.0 1 13 93 65535 65535
r 4.822368 4 1 sctp 52 -------S 0 4.0 1.0 1 13 87 65535 65535
r 4.8456 1 4 sctp 1500 -------D 0 1.0 4.0 1 44 88 0 43
+ 4.8456 4 1 sctp 52 -------S 0 4.0 1.0 1 13 94 65535 65535
- 4.8456 4 1 sctp 52 -------S 0 4.0 1.0 1 13 94 65535 65535
r 4.846368 4 1 sctp 52 -------S 0 4.0 1.0 1 13 89 65535 65535
+ 4.846368 1 4 sctp 1500 -------D 0 1.0 4.0 1 45 95 0 44
- 4.846368 1 4 sctp 1500 -------D 0 1.0 4.0 1 45 95 0 44
r 4.881248 1 4 sctp 1500 -------D 0 1.0 4.0 1 14 90 0 13
r 4.974432 4 1 sctp 52 -------S 0 4.0 1.0 1 13 91 65535 65535
+ 4.974432 1 4 sctp 1500 -------D 0 1.0 4.0 1 46 96 0 45
- 4.974432 1 4 sctp 1500 -------D 0 1.0 4.0 1 46 96 0 45
r 4.998432 4 1 sctp 52 -------S 0 4.0 1.0 1 13 92 65535 65535
+ 4.998432 1 4 sctp 1500 -------D 0 1.0 4.0 1 47 97 0 46
- 4.998432 1 4 sctp 1500 -------D 0 1.0 4.0 1 47 97 0 46
r 5.022432 4 1 sctp 52 -------S 0 4.0 1.0 1 13 93 65535 65535
+ 5.022432 1 4 sctp 1500 -------D 0 1.0 4.0 1 48 98 0 47
- 5.022432 1 4 sctp 1500 -------D 0 1.0 4.0 1 48 98 0 47
r 5.046432 4 1 sctp 52 -------S 0 4.0 1.0 1 13 94 65535 65535
+ 5.046432 1 4 sctp 1500 -------D 0 1.0 4.0 1 49 99 0 48
- 5.046432 1 4 sctp 1500 -------D 0 1.0 4.0 1 49 99 0 48
r 5.070368 1 4 sctp 1500 -------D 0 1.0 4.0 1 45 95 0 44
+ 5.070368 4 1 sctp 48 -------S 0 4.0 1.0 1 45 100 65535 65535
- 5.070368 4 1 sctp 48 -------S 0 4.0 1.0 1 45 100 65535 65535
r 5.198432 1 4 sctp 1500 -------D 0 1.0 4.0 1 46 96 0 45
r 5.222432 1 4 sctp 1500 -------D 0 1.0 4.0 1 47 97 0 46
+ 5.222432 4 1 sctp 48 -------S 0 4.0 1.0 1 47 101 65535 65535
- 5.222432 4 1 sctp 48 -------S 0 4.0 1.0 1 47 101 65535 65535
r 5.246432 1 4 sctp 1500 -------D 0 1.0 4.0 1 48 98 0 47
r 5.270432 1 4 sctp 1500 -------D 0 1.0 4.0 1 49 99 0 48
+ 5.270432 4 1 sctp 48 -------S 0 4.0 1.0 1 49 102 65535 65535
- 5.270432 4 1 sctp 48 -------S 0 4.0 1.0 1 49 102 65535 65535
r 5.271136 4 1 sctp 48 -------S 0 4.0 1.0 1 45 100 65535 65535
+ 5.271136 1 4 sctp 1500 -------D 0 1.0 4.0 1 50 103 0 49
- 5.271136 1 4 sctp 1500 -------D 0 1.0 4.0 1 50 103 0 49
+ 5.271136 1 4 sctp 1500 -------D 0 1.0 4.0 1 51 104 0 50
+ 5.271136 1 4 sctp 1500 -------D 0 1.0 4.0 1 52 105 0 51
- 5.295136 1 4 sctp 1500 -------D 0 1.0 4.0 1 51 104 0 50
- 5.319136 1 4 sctp 1500 -------D 0 1.0 4.0 1 52 105 0 51
r 5.4232 4 1 sctp 48 -------S 0 4.0 1.0 1 47 101 65535 65535
+ 5.4232 1 4 sctp 1500 -------D 0 1.0 4.0 1 53 106 0 52
- 5.4232 1 4 sctp 1500 -------D 0 1.0 4.0 1 53 106 0 52
+ 5.4232 1 4 sctp 1500 -------D 0 1.0 4.0 1 54 107 0 53
- 5.4472 1 4 sctp 1500 -------D 0 1.0 4.0 1 54 107 0 53
r 5.4712 4 1 sctp 48 -------S 0 4.0 1.0 1 49 102 65535 65535
+ 5.4712 1 4 sctp 1500 -------D 0 1.0 4.0 1 55 108 0 54
+ 5.4712 1 4 sctp 1500 -------D 0 1.0 4.0 1 56 109 0 55
- 5.4712 1 4 sctp 1500 -------D 0 1.0 4.0 1 55 108 0 54
r 5.495136 1 4 sctp 1500 -------D 0 1.0 4.0 1 50 103 0 49
- 5.4952 1 4 sctp 1500 -------D 0 1.0 4.0 1 56 109 0 55
r 5.519136 1 4 sctp 1500 -------D 0 1.0 4.0 1 51 104 0 50
+ 5.519136 4 1 sctp 48 -------S 0 4.0 1.0 1 51 110 65535 65535
- 5.519136 4 1 sctp 48 -------S 0 4.0 1.0 1 51 110 65535 65535
r 5.543136 1 4 sctp 1500 -------D 0 1.0 4.0 1 52 105 0 51
r 5.6472 1 4 sctp 1500 -------D 0 1.0 4.0 1 53 106 0 52
+ 5.6472 4 1 sctp 48 -------S 0 4.0 1.0 1 53 111 65535 65535
- 5.6472 4 1 sctp 48 -------S 0 4.0 1.0 1 53 111 65535 65535
r 5.6712 1 4 sctp 1500 -------D 0 1.0 4.0 1 54 107 0 53
r 5.6952 1 4 sctp 1500 -------D 0 1.0 4.0 1 55 108 0 54
+ 5.6952 4 1 sctp 48 -------S 0 4.0 1.0 1 55 112 65535 65535
- 5.6952 4 1 sctp 48 -------S 0 4.0 1.0 1 55 112 65535 65535
r 5.7192 1 4 sctp 1500 -------D 0 1.0 4.0 1 56 109 0 55
r 5.719904 4 1 sctp 48 -------S 0 4.0 1.0 1 51 110 65535 65535
+ 5.719904 1 4 sctp 1500 -------D 0 1.0 4.0 1 57 113 0 56
- 5.719904 1 4 sctp 1500 -------D 0 1.0 4.0 1 57 113 0 56
+ 5.719904 1 4 sctp 1500 -------D 0 1.0 4.0 1 58 114 0 57
- 5.743904 1 4 sctp 1500 -------D 0 1.0 4.0 1 58 114 0 57
r 5.847968 4 1 sctp 48 -------S 0 4.0 1.0 1 53 111 65535 65535
+ 5.847968 1 4 sctp 1500 -------D 0 1.0 4.0 1 59 115 0 58
- 5.847968 1 4 sctp 1500 -------D 0 1.0 4.0 1 59 115 0 58
+ 5.847968 1 4 sctp 1500 -------D 0 1.0 4.0 1 60 116 0 59
+ 5.847968 1 4 sctp 1500 -------D 0 1.0 4.0 1 61 117 0 60
- 5.871968 1 4 sctp 1500 -------D 0 1.0 4.0 1 60 116 0 59
r 5.895968 4 1 sctp 48 -------S 0 4.0 1.0 1 55 112 65535 65535
+ 5.895968 1 4 sctp 1500 -------D 0 1.0 4.0 1 62 118 0 61
+ 5.895968 1 4 sctp 1500 -------D 0 1.0 4.0 1 63 119 0 62
- 5.895968 1 4 sctp 1500 -------D 0 1.0 4.0 1 61 117 0 60
+ 5.9192 4 1 sctp 48 -------S 0 4.0 1.0 1 56 120 65535 65535
- 5.9192 4 1 sctp 48 -------S 0 4.0 1.0 1 56 120 65535 65535
- 5.919968 1 4 sctp 1500 -------D 0 1.0 4.0 1 62 118 0 61
r 5.943904 1 4 sctp 1500 -------D 0 1.0 4.0 1 57 113 0 56
- 5.943968 1 4 sctp 1500 -------D 0 1.0 4.0 1 63 119 0 62
r 5.967904 1 4 sctp 1500 -------D 0 1.0 4.0 1 58 114 0 57
+ 5.967904 4 1 sctp 48 -------S 0 4.0 1.0 1 58 121 65535 65535
- 5.967904 4 1 sctp 48 -------S 0 4.0 1.0 1 58 121 65535 65535
r 6.071968 1 4 sctp 1500 -------D 0 1.0 4.0 1 59 115 0 58
r 6.095968 1 4 sctp 1500 -------D 0 1.0 4.0 1 60 116 0 59
+ 6.095968 4 1 sctp 48 -------S 0 4.0 1.0 1 60 122 65535 65535
- 6.095968 4 1 sctp 48 -------S 0 4.0 1.0 1 60 122 65535 65535
r 6.119968 1 4 sctp 1500 -------D 0 1.0 4.0 1 61 117 0 60
r 6.119968 4 1 sctp 48 -------S 0 4.0 1.0 1 56 120 65535 65535
+ 6.119968 1 4 sctp 1500 -------D 0 1.0 4.0 1 64 123 0 63
- 6.119968 1 4 sctp 1500 -------D 0 1.0 4.0 1 64 123 0 63
r 6.143968 1 4 sctp 1500 -------D 0 1.0 4.0 1 62 118 0 61
+ 6.143968 4 1 sctp 48 -------S 0 4.0 1.0 1 62 124 65535 65535
- 6.143968 4 1 sctp 48 -------S 0 4.0 1.0 1 62 124 65535 65535
r 6.167968 1 4 sctp 1500 -------D 0 1.0 4.0 1 63 119 0 62
r 6.168672 4 1 sctp 48 -------S 0 4.0 1.0 1 58 121 65535 65535
+ 6.168672 1 4 sctp 1500 -------D 0 1.0 4.0 1 65 125 0 64
- 6.168672 1 4 sctp 1500 -------D 0 1.0 4.0 1 65 125 0 64
+ 6.168672 1 4 sctp 1500 -------D 0 1.0 4.0 1 66 126 0 65
- 6.192672 1 4 sctp 1500 -------D 0 1.0 4.0 1 66 126 0 65
r 6.296736 4 1 sctp 48 -------S 0 4.0 1.0 1 60 122 65535 65535
+ 6.296736 1 4 sctp 1500 -------D 0 1.0 4.0 1 67 127 0 66
- 6.296736 1 4 sctp 1500 -------D 0 1.0 4.0 1 67 127 0 66
+ 6.296736 1 4 sctp 1500 -------D 0 1.0 4.0 1 68 128 0 67
+ 6.296736 1 4 sctp 1500 -------D 0 1.0 4.0 1 69 129 0 68
- 6.320736 1 4 sctp 1500 -------D 0 1.0 4.0 1 68 128 0 67
r 6.343968 1 4 sctp 1500 -------D 0 1.0 4.0 1 64 123 0 63
+ 6.343968 4 1 sctp 48 -------S 0 4.0 1.0 1 64 130 65535 65535
- 6.343968 4 1 sctp 48 -------S 0 4.0 1.0 1 64 130 65535 65535
r 6.344736 4 1 sctp 48 -------S 0 4.0 1.0 1 62 124 65535 65535
+ 6.344736 1 4 sctp 1500 -------D 0 1.0 4.0 1 70 131 0 69
+ 6.344736 1 4 sctp 1500 -------D 0 1.0 4.0 1 71 132 0 70
- 6.344736 1 4 sctp 1500 -------D 0 1.0 4.0 1 69 129 0 68
- 6.368736 1 4 sctp 1500 -------D 0 1.0 4.0 1 70 131 0 69
r 6.392672 1 4 sctp 1500 -------D 0 1.0 4.0 1 65 125 0 64
- 6.392736 1 4 sctp 1500 -------D 0 1.0 4.0 1 71 132 0 70
r 6.416672 1 4 sctp 1500 -------D 0 1.0 4.0 1 66 126 0 65
+ 6.416672 4 1 sctp 48 -------S 0 4.0 1.0 1 66 133 65535 65535
- 6.416672 4 1 sctp 48 -------S 0 4.0 1.0 1 66 133 65535 65535
r 6.520736 1 4 sctp 1500 -------D 0 1.0 4.0 1 67 127 0 66
r 6.544736 1 4 sctp 1500 -------D 0 1.0 4.0 1 68 128 0 67
+ 6.544736 4 1 sctp 48 -------S 0 4.0 1.0 1 68 134 65535 65535
- 6.544736 4 1 sctp 48 -------S 0 4.0 1.0 1 68 134 65535 65535
r 6.544736 4 1 sctp 48 -------S 0 4.0 1.0 1 64 130 65535 65535
+ 6.544736 1 4 sctp 1500 -------D 0 1.0 4.0 1 72 135 0 71
- 6.544736 1 4 sctp 1500 -------D 0 1.0 4.0 1 72 135 0 71
+ 6.544736 1 4 sctp 1500 -------D 0 1.0 4.0 1 73 136 0 72
r 6.568736 1 4 sctp 1500 -------D 0 1.0 4.0 1 69 129 0 68
- 6.568736 1 4 sctp 1500 -------D 0 1.0 4.0 1 73 136 0 72
r 6.592736 1 4 sctp 1500 -------D 0 1.0 4.0 1 70 131 0 69
+ 6.592736 4 1 sctp 48 -------S 0 4.0 1.0 1 70 137 65535 65535
- 6.592736 4 1 sctp 48 -------S 0 4.0 1.0 1 70 137 65535 65535
r 6.616736 1 4 sctp 1500 -------D 0 1.0 4.0 1 71 132 0 70
r 6.61744 4 1 sctp 48 -------S 0 4.0 1.0 1 66 133 65535 65535
+ 6.61744 1 4 sctp 1500 -------D 0 1.0 4.0 1 74 138 0 73
- 6.61744 1 4 sctp 1500 -------D 0 1.0 4.0 1 74 138 0 73
+ 6.61744 1 4 sctp 1500 -------D 0 1.0 4.0 1 75 139 0 74
- 6.64144 1 4 sctp 1500 -------D 0 1.0 4.0 1 75 139 0 74
r 6.745504 4 1 sctp 48 -------S 0 4.0 1.0 1 68 134 65535 65535
+ 6.745504 1 4 sctp 1500 -------D 0 1.0 4.0 1 76 140 0 75
- 6.745504 1 4 sctp 1500 -------D 0 1.0 4.0 1 76 140 0 75
+ 6.745504 1 4 sctp 1500 -------D 0 1.0 4.0 1 77 141 0 76
+ 6.745504 1 4 sctp 1500 -------D 0 1.0 4.0 1 78 142 0 77
r 6.768736 1 4 sctp 1500 -------D 0 1.0 4.0 1 72 135 0 71
+ 6.768736 4 1 sctp 48 -------S 0 4.0 1.0 1 72 143 65535 65535
- 6.768736 4 1 sctp 48 -------S 0 4.0 1.0 1 72 143 65535 65535
- 6.769504 1 4 sctp 1500 -------D 0 1.0 4.0 1 77 141 0 76
r 6.792736 1 4 sctp 1500 -------D 0 1.0 4.0 1 73 136 0 72
r 6.793504 4 1 sctp 48 -------S 0 4.0 1.0 1 70 137 65535 65535
+ 6.793504 1 4 sctp 1500 -------D 0 1.0 4.0 1 79 144 0 78
+ 6.793504 1 4 sctp 1500 -------D 0 1.0 4.0 1 80 145 0 79
- 6.793504 1 4 sctp 1500 -------D 0 1.0 4.0 1 78 142 0 77
- 6.817504 1 4 sctp 1500 -------D 0 1.0 4.0 1 79 144 0 78
r 6.84144 1 4 sctp 1500 -------D 0 1.0 4.0 1 74 138 0 73
+ 6.84144 4 1 sctp 48 -------S 0 4.0 1.0 1 74 146 65535 65535
- 6.84144 4 1 sctp 48 -------S 0 4.0 1.0 1 74 146 65535 65535
- 6.841504 1 4 sctp 1500 -------D 0 1.0 4.0 1 80 145 0 79
r 6.86544 1 4 sctp 1500 -------D 0 1.0 4.0 1 75 139 0 74
r 6.969504 1 4 sctp 1500 -------D 0 1.0 4.0 1 76 140 0 75
+ 6.969504 4 1 sctp 48 -------S 0 4.0 1.0 1 76 147 65535 65535
- 6.969504 4 1 sctp 48 -------S 0 4.0 1.0 1 76 147 65535 65535
r 6.969504 4 1 sctp 48 -------S 0 4.0 1.0 1 72 143 65535 65535
+ 6.969504 1 4 sctp 1500 -------D 0 1.0 4.0 1 81 148 0 80
- 6.969504 1 4 sctp 1500 -------D 0 1.0 4.0 1 81 148 0 80
+ 6.969504 1 4 sctp 1500 -------D 0 1.0 4.0 1 82 149 0 81
r 6.993504 1 4 sctp 1500 -------D 0 1.0 4.0 1 77 141 0 76
- 6.993504 1 4 sctp 1500 -------D 0 1.0 4.0 1 82 149 0 81
r 7.017504 1 4 sctp 1500 -------D 0 1.0 4.0 1 78 142 0 77
+ 7.017504 4 1 sctp 48 -------S 0 4.0 1.0 1 78 150 65535 65535
- 7.017504 4 1 sctp 48 -------S 0 4.0 1.0 1 78 150 65535 65535
r 7.041504 1 4 sctp 1500 -------D 0 1.0 4.0 1 79 144 0 78
r 7.042208 4 1 sctp 48 -------S 0 4.0 1.0 1 74 146 65535 65535
+ 7.042208 1 4 sctp 1500 -------D 0 1.0 4.0 1 83 151 0 82
- 7.042208 1 4 sctp 1500 -------D 0 1.0 4.0 1 83 151 0 82
+ 7.042208 1 4 sctp 1500 -------D 0 1.0 4.0 1 84 152 0 83
r 7.065504 1 4 sctp 1500 -------D 0 1.0 4.0 1 80 145 0 79
+ 7.065504 4 1 sctp 48 -------S 0 4.0 1.0 1 80 153 65535 65535
- 7.065504 4 1 sctp 48 -------S 0 4.0 1.0 1 80 153 65535 65535
- 7.066208 1 4 sctp 1500 -------D 0 1.0 4.0 1 84 152 0 83
r 7.170272 4 1 sctp 48 -------S 0 4.0 1.0 1 76 147 65535 65535
+ 7.170272 1 4 sctp 1500 -------D 0 1.0 4.0 1 85 154 0 84
- 7.170272 1 4 sctp 1500 -------D 0 1.0 4.0 1 85 154 0 84
+ 7.170272 1 4 sctp 1500 -------D 0 1.0 4.0 1 86 155 0 85
r 7.193504 1 4 sctp 1500 -------D 0 1.0 4.0 1 81 148 0 80
- 7.194272 1 4 sctp 1500 -------D 0 1.0 4.0 1 86 155 0 85
r 7.217504 1 4 sctp 1500 -------D 0 1.0 4.0 1 82 149 0 81
+ 7.217504 4 1 sctp 48 -------S 0 4.0 1.0 1 82 156 65535 65535
- 7.217504 4 1 sctp 48 -------S 0 4.0 1.0 1 82 156 65535 65535
r 7.218272 4 1 sctp 48 -------S 0 4.0 1.0 1 78 150 65535 65535
+ 7.218272 1 4 sctp 1500 -------D 0 1.0 4.0 1 87 157 0 86
+ 7.218272 1 4 sctp 1500 -------D 0 1.0 4.0 1 88 158 0 87
+ 7.218272 1 4 sctp 1500 -------D 0 1.0 4.0 1 89 159 0 88
- 7.218272 1 4 sctp 1500 -------D 0 1.0 4.0 1 87 157 0 86
- 7.242272 1 4 sctp 1500 -------D 0 1.0 4.0 1 88 158 0 87
r 7.266208 1 4 sctp 1500 -------D 0 1.0 4.0 1 83 151 0 82
r 7.266272 4 1 sctp 48 -------S 0 4.0 1.0 1 80 153 65535 65535
+ 7.266272 1 4 sctp 1500 -------D 0 1.0 4.0 1 90 160 0 89
+ 7.266272 1 4 sctp 1500 -------D 0 1.0 4.0 1 91 161 0 90
- 7.266272 1 4 sctp 1500 -------D 0 1.0 4.0 1 89 159 0 88
r 7.290208 1 4 sctp 1500 -------D 0 1.0 4.0 1 84 152 0 83
+ 7.290208 4 1 sctp 48 -------S 0 4.0 1.0 1 84 162 65535 65535
- 7.290208 4 1 sctp 48 -------S 0 4.0 1.0 1 84 162 65535 65535
- 7.290272 1 4 sctp 1500 -------D 0 1.0 4.0 1 90 160 0 89
- 7.314272 1 4 sctp 1500 -------D 0 1.0 4.0 1 91 161 0 90
r 7.394272 1 4 sctp 1500 -------D 0 1.0 4.0 1 85 154 0 84
r 7.418272 1 4 sctp 1500 -------D 0 1.0 4.0 1 86 155 0 85
+ 7.418272 4 1 sctp 48 -------S 0 4.0 1.0 1 86 163 65535 65535
- 7.418272 4 1 sctp 48 -------S 0 4.0 1.0 1 86 163 65535 65535
r 7.418272 4 1 sctp 48 -------S 0 4.0 1.0 1 82 156 65535 65535
+ 7.418272 1 4 sctp 1500 -------D 0 1.0 4.0 1 92 164 0 91
- 7.418272 1 4 sctp 1500 -------D 0 1.0 4.0 1 92 164 0 91
+ 7.418272 1 4 sctp 1500 -------D 0 1.0 4.0 1 93 165 0 92
r 7.442272 1 4 sctp 1500 -------D 0 1.0 4.0 1 87 157 0 86
- 7.442272 1 4 sctp 1500 -------D 0 1.0 4.0 1 93 165 0 92
r 7.466272 1 4 sctp 1500 -------D 0 1.0 4.0 1 88 158 0 87
+ 7.466272 4 1 sctp 48 -------S 0 4.0 1.0 1 88 166 65535 65535
- 7.466272 4 1 sctp 48 -------S 0 4.0 1.0 1 88 166 65535 65535
r 7.490272 1 4 sctp 1500 -------D 0 1.0 4.0 1 89 159 0 88
r 7.490976 4 1 sctp 48 -------S 0 4.0 1.0 1 84 162 65535 65535
+ 7.490976 1 4 sctp 1500 -------D 0 1.0 4.0 1 94 167 0 93
- 7.490976 1 4 sctp 1500 -------D 0 1.0 4.0 1 94 167 0 93
+ 7.490976 1 4 sctp 1500 -------D 0 1.0 4.0 1 95 168 0 94
r 7.514272 1 4 sctp 1500 -------D 0 1.0 4.0 1 90 160 0 89
+ 7.514272 4 1 sctp 48 -------S 0 4.0 1.0 1 90 169 65535 65535
- 7.514272 4 1 sctp 48 -------S 0 4.0 1.0 1 90 169 65535 65535
- 7.514976 1 4 sctp 1500 -------D 0 1.0 4.0 1 95 168 0 94
r 7.538272 1 4 sctp 1500 -------D 0 1.0 4.0 1 91 161 0 90
r 7.61904 4 1 sctp 48 -------S 0 4.0 1.0 1 86 163 65535 65535
+ 7.61904 1 4 sctp 1500 -------D 0 1.0 4.0 1 96 170 0 95
- 7.61904 1 4 sctp 1500 -------D 0 1.0 4.0 1 96 170 0 95
+ 7.61904 1 4 sctp 1500 -------D 0 1.0 4.0 1 97 171 0 96
r 7.642272 1 4 sctp 1500 -------D 0 1.0 4.0 1 92 164 0 91
+ 7.642272 4 1 sctp 48 -------S 0 4.0 1.0 1 92 172 65535 65535
- 7.642272 4 1 sctp 48 -------S 0 4.0 1.0 1 92 172 65535 65535
- 7.64304 1 4 sctp 1500 -------D 0 1.0 4.0 1 97 171 0 96
r 7.666272 1 4 sctp 1500 -------D 0 1.0 4.0 1 93 165 0 92
r 7.66704 4 1 sctp 48 -------S 0 4.0 1.0 1 88 166 65535 65535
+ 7.66704 1 4 sctp 1500 -------D 0 1.0 4.0 1 98 173 0 97
+ 7.66704 1 4 sctp 1500 -------D 0 1.0 4.0 1 99 174 0 98
+ 7.66704 1 4 sctp 1500 -------D 0 1.0 4.0 1 100 175 0 99
- 7.66704 1 4 sctp 1500 -------D 0 1.0 4.0 1 98 173 0 97
- 7.69104 1 4 sctp 1500 -------D 0 1.0 4.0 1 99 174 0 98
r 7.714976 1 4 sctp 1500 -------D 0 1.0 4.0 1 94 167 0 93
+ 7.714976 4 1 sctp 48 -------S 0 4.0 1.0 1 94 176 65535 65535
- 7.714976 4 1 sctp 48 -------S 0 4.0 1.0 1 94 176 65535 65535
r 7.71504 4 1 sctp 48 -------S 0 4.0 1.0 1 90 169 65535 65535
+ 7.71504 1 4 sctp 1500 -------D 0 1.0 4.0 1 101 177 0 100
+ 7.71504 1 4 sctp 1500 -------D 0 1.0 4.0 1 102 178 0 101