+ 0.5 0 1 sctp 56 -------I 0 0.0 1.0 1 -1 2 65535 65535
- 0.5 0 1 sctp 56 -------I 0 0.0 1.0 1 -1 2 65535 65535
r 0.800896 0 1 sctp 56 -------I 0 0.0 1.0 1 -1 2 65535 65535
+ 0.800896 1 0 sctp 56 -------I 0 1.0 0.0 1 -1 3 65535 65535
- 0.800896 1 0 sctp 56 -------I 0 1.0 0.0 1 -1 3 65535 65535
r 1.101792 1 0 sctp 56 -------I 0 1.0 0.0 1 -1 3 65535 65535
+ 1.101792 0 1 sctp 36 -------I 0 0.0 1.0 1 -1 4 65535 65535
- 1.101792 0 1 sctp 36 -------I 0 0.0 1.0 1 -1 4 65535 65535
r 1.402368 0 1 sctp 36 -------I 0 0.0 1.0 1 -1 4 65535 65535
+ 1.402368 1 0 sctp 36 -------I 0 1.0 0.0 1 -1 5 65535 65535
- 1.402368 1 0 sctp 36 -------I 0 1.0 0.0 1 -1 5 65535 65535
r 1.702944 1 0 sctp 36 -------I 0 1.0 0.0 1 -1 5 65535 65535
+ 1.702944 0 1 sctp 56 -------H 0 0.0 1.0 1 -1 6 65535 65535
- 1.702944 0 1 sctp 56 -------H 0 0.0 1.0 1 -1 6 65535 65535
r 2.00384 0 1 sctp 56 -------H 0 0.0 1.0 1 -1 6 65535 65535
+ 2.00384 1 0 sctp 56 -------B 0 1.0 0.0 1 -1 7 65535 65535
- 2.00384 1 0 sctp 56 -------B 0 1.0 0.0 1 -1 7 65535 65535
r 2.304736 1 0 sctp 56 -------B 0 1.0 0.0 1 -1 7 65535 65535
+ 2.304736 0 1 sctp 1500 -------D 0 0.0 1.0 1 1 8 0 0
- 2.304736 0 1 sctp 1500 -------D 0 0.0 1.0 1 1 8 0 0
+ 2.304736 0 1 sctp 1500 -------D 0 0.0 1.0 1 2 9 0 0
+ 2.304736 0 1 sctp 1500 -------D 0 0.0 1.0 1 3 10 0 0
- 2.328736 0 1 sctp 1500 -------D 0 0.0 1.0 1 2 9 0 0
- 2.352736 0 1 sctp 1500 -------D 0 0.0 1.0 1 3 10 0 0
r 2.628736 0 1 sctp 1500 -------D 0 0.0 1.0 1 1 8 0 0
+ 2.628736 1 0 sctp 52 -------N 0 1.0 0.0 1 1 11 65535 65535
- 2.628736 1 0 sctp 52 -------N 0 1.0 0.0 1 1 11 65535 65535
r 2.652736 0 1 sctp 1500 -------D 0 0.0 1.0 1 2 9 0 0
+ 2.652736 1 0 sctp 52 -------N 0 1.0 0.0 1 2 12 65535 65535
- 2.652736 1 0 sctp 52 -------N 0 1.0 0.0 1 2 12 65535 65535
r 2.676736 0 1 sctp 1500 -------D 0 0.0 1.0 1 3 10 0 0
+ 2.676736 1 0 sctp 52 -------N 0 1.0 0.0 1 3 13 65535 65535
- 2.676736 1 0 sctp 52 -------N 0 1.0 0.0 1 3 13 65535 65535
r 2.929568 1 0 sctp 52 -------N 0 1.0 0.0 1 1 11 65535 65535
+ 2.929568 0 1 sctp 1500 -------D 0 0.0 1.0 1 4 14 0 0
- 2.929568 0 1 sctp 1500 -------D 0 0.0 1.0 1 4 14 0 0
+ 2.929568 0 1 sctp 1500 -------D 0 0.0 1.0 1 5 15 0 0
r 2.953568 1 0 sctp 52 -------N 0 1.0 0.0 1 2 12 65535 65535
+ 2.953568 0 1 sctp 1500 -------D 0 0.0 1.0 1 6 16 0 0
+ 2.953568 0 1 sctp 1500 -------D 0 0.0 1.0 1 7 17 0 0
- 2.953568 0 1 sctp 1500 -------D 0 0.0 1.0 1 5 15 0 0
r 2.977568 1 0 sctp 52 -------N 0 1.0 0.0 1 3 13 65535 65535
+ 2.977568 0 1 sctp 1500 -------D 0 0.0 1.0 1 8 18 0 0
+ 2.977568 0 1 sctp 1500 -------D 0 0.0 1.0 1 9 19 0 0
- 2.977568 0 1 sctp 1500 -------D 0 0.0 1.0 1 6 16 0 0
- 3.001568 0 1 sctp 1500 -------D 0 0.0 1.0 1 7 17 0 0
- 3.025568 0 1 sctp 1500 -------D 0 0.0 1.0 1 8 18 0 0
- 3.049568 0 1 sctp 1500 -------D 0 0.0 1.0 1 9 19 0 0
r 3.253568 0 1 sctp 1500 -------D 0 0.0 1.0 1 4 14 0 0
+ 3.253568 1 0 sctp 52 -------N 0 1.0 0.0 1 4 20 65535 65535
- 3.253568 1 0 sctp 52 -------N 0 1.0 0.0 1 4 20 65535 65535
r 3.277568 0 1 sctp 1500 -------D 0 0.0 1.0 1 5 15 0 0
+ 3.277568 1 0 sctp 52 -------N 0 1.0 0.0 1 5 21 65535 65535
- 3.277568 1 0 sctp 52 -------N 0 1.0 0.0 1 5 21 65535 65535
r 3.301568 0 1 sctp 1500 -------D 0 0.0 1.0 1 6 16 0 0
+ 3.301568 1 0 sctp 52 -------N 0 1.0 0.0 1 6 22 65535 65535
- 3.301568 1 0 sctp 52 -------N 0 1.0 0.0 1 6 22 65535 65535
r 3.325568 0 1 sctp 1500 -------D 0 0.0 1.0 1 7 17 0 0
+ 3.325568 1 0 sctp 52 -------N 0 1.0 0.0 1 7 23 65535 65535
- 3.325568 1 0 sctp 52 -------N 0 1.0 0.0 1 7 23 65535 65535
r 3.349568 0 1 sctp 1500 -------D 0 0.0 1.0 1 8 18 0 0
+ 3.349568 1 0 sctp 52 -------N 0 1.0 0.0 1 8 24 65535 65535
- 3.349568 1 0 sctp 52 -------N 0 1.0 0.0 1 8 24 65535 65535
r 3.373568 0 1 sctp 1500 -------D 0 0.0 1.0 1 9 19 0 0
+ 3.373568 1 0 sctp 52 -------N 0 1.0 0.0 1 9 25 65535 65535
- 3.373568 1 0 sctp 52 -------N 0 1.0 0.0 1 9 25 65535 65535
r 3.5544 1 0 sctp 52 -------N 0 1.0 0.0 1 4 20 65535 65535
+ 3.5544 0 1 sctp 1500 -------D 0 0.0 1.0 1 10 26 0 0
- 3.5544 0 1 sctp 1500 -------D 0 0.0 1.0 1 10 26 0 0
+ 3.5544 0 1 sctp 1500 -------D 0 0.0 1.0 1 11 27 0 0
r 3.5784 1 0 sctp 52 -------N 0 1.0 0.0 1 5 21 65535 65535
+ 3.5784 0 1 sctp 1500 -------D 0 0.0 1.0 1 12 28 0 0
+ 3.5784 0 1 sctp 1500 -------D 0 0.0 1.0 1 13 29 0 0
- 3.5784 0 1 sctp 1500 -------D 0 0.0 1.0 1 11 27 0 0
r 3.6024 1 0 sctp 52 -------N 0 1.0 0.0 1 6 22 65535 65535
+ 3.6024 0 1 sctp 1500 -------D 0 0.0 1.0 1 14 30 0 0
+ 3.6024 0 1 sctp 1500 -------D 0 0.0 1.0 1 15 31 0 0
- 3.6024 0 1 sctp 1500 -------D 0 0.0 1.0 1 12 28 0 0
r 3.6264 1 0 sctp 52 -------N 0 1.0 0.0 1 7 23 65535 65535
+ 3.6264 0 1 sctp 1500 -------D 0 0.0 1.0 1 16 32 0 0
+ 3.6264 0 1 sctp 1500 -------D 0 0.0 1.0 1 17 33 0 0
- 3.6264 0 1 sctp 1500 -------D 0 0.0 1.0 1 13 29 0 0
r 3.6504 1 0 sctp 52 -------N 0 1.0 0.0 1 8 24 65535 65535
+ 3.6504 0 1 sctp 1500 -------D 0 0.0 1.0 1 18 34 0 0
+ 3.6504 0 1 sctp 1500 -------D 0 0.0 1.0 1 19 35 0 0
- 3.6504 0 1 sctp 1500 -------D 0 0.0 1.0 1 14 30 0 0
r 3.6744 1 0 sctp 52 -------N 0 1.0 0.0 1 9 25 65535 65535
+ 3.6744 0 1 sctp 1500 -------D 0 0.0 1.0 1 20 36 0 0
- 3.6744 0 1 sctp 1500 -------D 0 0.0 1.0 1 15 31 0 0
- 3.6984 0 1 sctp 1500 -------D 0 0.0 1.0 1 16 32 0 0
- 3.7224 0 1 sctp 1500 -------D 0 0.0 1.0 1 17 33 0 0
- 3.7464 0 1 sctp 1500 -------D 0 0.0 1.0 1 18 34 0 0
- 3.7704 0 1 sctp 1500 -------D 0 0.0 1.0 1 19 35 0 0
- 3.7944 0 1 sctp 1500 -------D 0 0.0 1.0 1 20 36 0 0
r 3.8784 0 1 sctp 1500 -------D 0 0.0 1.0 1 10 26 0 0
+ 3.8784 1 0 sctp 52 -------N 0 1.0 0.0 1 10 37 65535 65535
- 3.8784 1 0 sctp 52 -------N 0 1.0 0.0 1 10 37 65535 65535
r 3.9024 0 1 sctp 1500 -------D 0 0.0 1.0 1 11 27 0 0
+ 3.9024 1 0 sctp 52 -------N 0 1.0 0.0 1 11 38 65535 65535
- 3.9024 1 0 sctp 52 -------N 0 1.0 0.0 1 11 38 65535 65535
r 3.9264 0 1 sctp 1500 -------D 0 0.0 1.0 1 12 28 0 0
+ 3.9264 1 0 sctp 52 -------N 0 1.0 0.0 1 12 39 65535 65535
- 3.9264 1 0 sctp 52 -------N 0 1.0 0.0 1 12 39 65535 65535
r 3.9504 0 1 sctp 1500 -------D 0 0.0 1.0 1 13 29 0 0
+ 3.9504 1 0 sctp 52 -------N 0 1.0 0.0 1 13 40 65535 65535
- 3.9504 1 0 sctp 52 -------N 0 1.0 0.0 1 13 40 65535 65535
r 3.9744 0 1 sctp 1500 -------D 0 0.0 1.0 1 14 30 0 0
+ 3.9744 1 0 sctp 52 -------N 0 1.0 0.0 1 14 41 65535 65535
- 3.9744 1 0 sctp 52 -------N 0 1.0 0.0 1 14 41 65535 65535
r 3.9984 0 1 sctp 1500 -------D 0 0.0 1.0 1 15 31 0 0
+ 3.9984 1 0 sctp 52 -------N 0 1.0 0.0 1 15 42 65535 65535
- 3.9984 1 0 sctp 52 -------N 0 1.0 0.0 1 15 42 65535 65535
r 4.0224 0 1 sctp 1500 -------D 0 0.0 1.0 1 16 32 0 0
+ 4.0224 1 0 sctp 52 -------N 0 1.0 0.0 1 16 43 65535 65535
- 4.0224 1 0 sctp 52 -------N 0 1.0 0.0 1 16 43 65535 65535
r 4.0464 0 1 sctp 1500 -------D 0 0.0 1.0 1 17 33 0 0
+ 4.0464 1 0 sctp 52 -------N 0 1.0 0.0 1 17 44 65535 65535
- 4.0464 1 0 sctp 52 -------N 0 1.0 0.0 1 17 44 65535 65535
r 4.0704 0 1 sctp 1500 -------D 0 0.0 1.0 1 18 34 0 0
+ 4.0704 1 0 sctp 52 -------N 0 1.0 0.0 1 18 45 65535 65535
- 4.0704 1 0 sctp 52 -------N 0 1.0 0.0 1 18 45 65535 65535
r 4.0944 0 1 sctp 1500 -------D 0 0.0 1.0 1 19 35 0 0
+ 4.0944 1 0 sctp 52 -------N 0 1.0 0.0 1 19 46 65535 65535
- 4.0944 1 0 sctp 52 -------N 0 1.0 0.0 1 19 46 65535 65535
r 4.1184 0 1 sctp 1500 -------D 0 0.0 1.0 1 20 36 0 0
+ 4.1184 1 0 sctp 52 -------N 0 1.0 0.0 1 20 47 65535 65535
- 4.1184 1 0 sctp 52 -------N 0 1.0 0.0 1 20 47 65535 65535
r 4.179232 1 0 sctp 52 -------N 0 1.0 0.0 1 10 37 65535 65535
+ 4.179232 0 1 sctp 1500 -------D 0 0.0 1.0 1 21 48 0 0
- 4.179232 0 1 sctp 1500 -------D 0 0.0 1.0 1 21 48 0 0
r 4.203232 1 0 sctp 52 -------N 0 1.0 0.0 1 11 38 65535 65535
+ 4.203232 0 1 sctp 1500 -------D 0 0.0 1.0 1 22 49 0 0
- 4.203232 0 1 sctp 1500 -------D 0 0.0 1.0 1 22 49 0 0
r 4.227232 1 0 sctp 52 -------N 0 1.0 0.0 1 12 39 65535 65535
+ 4.227232 0 1 sctp 1500 -------D 0 0.0 1.0 1 23 50 0 0
- 4.227232 0 1 sctp 1500 -------D 0 0.0 1.0 1 23 50 0 0
r 4.251232 1 0 sctp 52 -------N 0 1.0 0.0 1 13 40 65535 65535
+ 4.251232 0 1 sctp 1500 -------D 0 0.0 1.0 1 24 51 0 0
- 4.251232 0 1 sctp 1500 -------D 0 0.0 1.0 1 24 51 0 0
r 4.275232 1 0 sctp 52 -------N 0 1.0 0.0 1 14 41 65535 65535
+ 4.275232 0 1 sctp 1500 -------D 0 0.0 1.0 1 25 52 0 0
- 4.275232 0 1 sctp 1500 -------D 0 0.0 1.0 1 25 52 0 0
r 4.299232 1 0 sctp 52 -------N 0 1.0 0.0 1 15 42 65535 65535
+ 4.299232 0 1 sctp 1500 -------D 0 0.0 1.0 1 26 53 0 0
- 4.299232 0 1 sctp 1500 -------D 0 0.0 1.0 1 26 53 0 0
r 4.323232 1 0 sctp 52 -------N 0 1.0 0.0 1 16 43 65535 65535
+ 4.323232 0 1 sctp 1500 -------D 0 0.0 1.0 1 27 54 0 0
- 4.323232 0 1 sctp 1500 -------D 0 0.0 1.0 1 27 54 0 0
r 4.347232 1 0 sctp 52 -------N 0 1.0 0.0 1 17 44 65535 65535
+ 4.347232 0 1 sctp 1500 -------D 0 0.0 1.0 1 28 55 0 0
- 4.347232 0 1 sctp 1500 -------D 0 0.0 1.0 1 28 55 0 0
r 4.371232 1 0 sctp 52 -------N 0 1.0 0.0 1 18 45 65535 65535
+ 4.371232 0 1 sctp 1500 -------D 0 0.0 1.0 1 29 56 0 0
- 4.371232 0 1 sctp 1500 -------D 0 0.0 1.0 1 29 56 0 0
r 4.395232 1 0 sctp 52 -------N 0 1.0 0.0 1 19 46 65535 65535
+ 4.395232 0 1 sctp 1500 -------D 0 0.0 1.0 1 30 57 0 0
- 4.395232 0 1 sctp 1500 -------D 0 0.0 1.0 1 30 57 0 0
r 4.419232 1 0 sctp 52 -------N 0 1.0 0.0 1 20 47 65535 65535
+ 4.419232 0 1 sctp 1500 -------D 0 0.0 1.0 1 31 58 0 0
- 4.419232 0 1 sctp 1500 -------D 0 0.0 1.0 1 31 58 0 0
r 4.503232 0 1 sctp 1500 -------D 0 0.0 1.0 1 21 48 0 0
+ 4.503232 1 0 sctp 52 -------N 0 1.0 0.0 1 21 59 65535 65535
- 4.503232 1 0 sctp 52 -------N 0 1.0 0.0 1 21 59 65535 65535
r 4.527232 0 1 sctp 1500 -------D 0 0.0 1.0 1 22 49 0 0
+ 4.527232 1 0 sctp 52 -------N 0 1.0 0.0 1 22 60 65535 65535
- 4.527232 1 0 sctp 52 -------N 0 1.0 0.0 1 22 60 65535 65535
r 4.551232 0 1 sctp 1500 -------D 0 0.0 1.0 1 23 50 0 0
+ 4.551232 1 0 sctp 52 -------N 0 1.0 0.0 1 23 61 65535 65535
- 4.551232 1 0 sctp 52 -------N 0 1.0 0.0 1 23 61 65535 65535
r 4.575232 0 1 sctp 1500 -------D 0 0.0 1.0 1 24 51 0 0
+ 4.575232 1 0 sctp 52 -------N 0 1.0 0.0 1 24 62 65535 65535
- 4.575232 1 0 sctp 52 -------N 0 1.0 0.0 1 24 62 65535 65535
r 4.599232 0 1 sctp 1500 -------D 0 0.0 1.0 1 25 52 0 0
+ 4.599232 1 0 sctp 52 -------N 0 1.0 0.0 1 25 63 65535 65535
- 4.599232 1 0 sctp 52 -------N 0 1.0 0.0 1 25 63 65535 65535
r 4.623232 0 1 sctp 1500 -------D 0 0.0 1.0 1 26 53 0 0
+ 4.623232 1 0 sctp 52 -------N 0 1.0 0.0 1 26 64 65535 65535
- 4.623232 1 0 sctp 52 -------N 0 1.0 0.0 1 26 64 65535 65535
r 4.647232 0 1 sctp 1500 -------D 0 0.0 1.0 1 27 54 0 0
+ 4.647232 1 0 sctp 52 -------N 0 1.0 0.0 1 27 65 65535 65535
- 4.647232 1 0 sctp 52 -------N 0 1.0 0.0 1 27 65 65535 65535
r 4.671232 0 1 sctp 1500 -------D 0 0.0 1.0 1 28 55 0 0
+ 4.671232 1 0 sctp 52 -------N 0 1.0 0.0 1 28 66 65535 65535
- 4.671232 1 0 sctp 52 -------N 0 1.0 0.0 1 28 66 65535 65535
r 4.695232 0 1 sctp 1500 -------D 0 0.0 1.0 1 29 56 0 0
+ 4.695232 1 0 sctp 52 -------N 0 1.0 0.0 1 29 67 65535 65535
- 4.695232 1 0 sctp 52 -------N 0 1.0 0.0 1 29 67 65535 65535
r 4.719232 0 1 sctp 1500 -------D 0 0.0 1.0 1 30 57 0 0
+ 4.719232 1 0 sctp 52 -------N 0 1.0 0.0 1 30 68 65535 65535
- 4.719232 1 0 sctp 52 -------N 0 1.0 0.0 1 30 68 65535 65535
r 4.743232 0 1 sctp 1500 -------D 0 0.0 1.0 1 31 58 0 0
+ 4.743232 1 0 sctp 52 -------N 0 1.0 0.0 1 31 69 65535 65535
- 4.743232 1 0 sctp 52 -------N 0 1.0 0.0 1 31 69 65535 65535
r 4.804064 1 0 sctp 52 -------N 0 1.0 0.0 1 21 59 65535 65535
d 4.804064 0 1 sctp 1500 -------D 0 0.0 1.0 1 32 70 0 0
r 4.828064 1 0 sctp 52 -------N 0 1.0 0.0 1 22 60 65535 65535
+ 4.828064 0 1 sctp 1500 -------D 0 0.0 1.0 1 33 71 0 0
- 4.828064 0 1 sctp 1500 -------D 0 0.0 1.0 1 33 71 0 0
r 4.852064 1 0 sctp 52 -------N 0 1.0 0.0 1 23 61 65535 65535
+ 4.852064 0 1 sctp 1500 -------D 0 0.0 1.0 1 34 72 0 0
- 4.852064 0 1 sctp 1500 -------D 0 0.0 1.0 1 34 72 0 0
r 4.876064 1 0 sctp 52 -------N 0 1.0 0.0 1 24 62 65535 65535
+ 4.876064 0 1 sctp 1500 -------D 0 0.0 1.0 1 35 73 0 0
- 4.876064 0 1 sctp 1500 -------D 0 0.0 1.0 1 35 73 0 0
r 4.900064 1 0 sctp 52 -------N 0 1.0 0.0 1 25 63 65535 65535
+ 4.900064 0 1 sctp 1500 -------D 0 0.0 1.0 1 36 74 0 0
- 4.900064 0 1 sctp 1500 -------D 0 0.0 1.0 1 36 74 0 0
r 4.924064 1 0 sctp 52 -------N 0 1.0 0.0 1 26 64 65535 65535
+ 4.924064 0 1 sctp 1500 -------D 0 0.0 1.0 1 37 75 0 0
- 4.924064 0 1 sctp 1500 -------D 0 0.0 1.0 1 37 75 0 0
r 4.948064 1 0 sctp 52 -------N 0 1.0 0.0 1 27 65 65535 65535
+ 4.948064 0 1 sctp 1500 -------D 0 0.0 1.0 1 38 76 0 0
- 4.948064 0 1 sctp 1500 -------D 0 0.0 1.0 1 38 76 0 0
r 4.972064 1 0 sctp 52 -------N 0 1.0 0.0 1 28 66 65535 65535
+ 4.972064 0 1 sctp 1500 -------D 0 0.0 1.0 1 39 77 0 0
- 4.972064 0 1 sctp 1500 -------D 0 0.0 1.0 1 39 77 0 0
r 4.996064 1 0 sctp 52 -------N 0 1.0 0.0 1 29 67 65535 65535
+ 4.996064 0 1 sctp 1500 -------D 0 0.0 1.0 1 40 78 0 0
- 4.996064 0 1 sctp 1500 -------D 0 0.0 1.0 1 40 78 0 0
r 5.020064 1 0 sctp 52 -------N 0 1.0 0.0 1 30 68 65535 65535
+ 5.020064 0 1 sctp 1500 -------D 0 0.0 1.0 1 41 79 0 0
- 5.020064 0 1 sctp 1500 -------D 0 0.0 1.0 1 41 79 0 0
r 5.044064 1 0 sctp 52 -------N 0 1.0 0.0 1 31 69 65535 65535
+ 5.044064 0 1 sctp 1500 -------D 0 0.0 1.0 1 42 80 0 0
- 5.044064 0 1 sctp 1500 -------D 0 0.0 1.0 1 42 80 0 0
r 5.152064 0 1 sctp 1500 -------D 0 0.0 1.0 1 33 71 0 0
+ 5.152064 1 0 sctp 56 -------N 0 1.0 0.0 1 31 81 65535 65535
- 5.152064 1 0 sctp 56 -------N 0 1.0 0.0 1 31 81 65535 65535
r 5.176064 0 1 sctp 1500 -------D 0 0.0 1.0 1 34 72 0 0
+ 5.176064 1 0 sctp 56 -------N 0 1.0 0.0 1 31 82 65535 65535
- 5.176064 1 0 sctp 56 -------N 0 1.0 0.0 1 31 82 65535 65535
r 5.200064 0 1 sctp 1500 -------D 0 0.0 1.0 1 35 73 0 0
+ 5.200064 1 0 sctp 56 -------N 0 1.0 0.0 1 31 83 65535 65535
- 5.200064 1 0 sctp 56 -------N 0 1.0 0.0 1 31 83 65535 65535
r 5.224064 0 1 sctp 1500 -------D 0 0.0 1.0 1 36 74 0 0
+ 5.224064 1 0 sctp 56 -------N 0 1.0 0.0 1 31 84 65535 65535
- 5.224064 1 0 sctp 56 -------N 0 1.0 0.0 1 31 84 65535 65535
r 5.248064 0 1 sctp 1500 -------D 0 0.0 1.0 1 37 75 0 0
+ 5.248064 1 0 sctp 56 -------N 0 1.0 0.0 1 31 85 65535 65535
- 5.248064 1 0 sctp 56 -------N 0 1.0 0.0 1 31 85 65535 65535
r 5.272064 0 1 sctp 1500 -------D 0 0.0 1.0 1 38 76 0 0
+ 5.272064 1 0 sctp 56 -------N 0 1.0 0.0 1 31 86 65535 65535
- 5.272064 1 0 sctp 56 -------N 0 1.0 0.0 1 31 86 65535 65535
r 5.296064 0 1 sctp 1500 -------D 0 0.0 1.0 1 39 77 0 0
+ 5.296064 1 0 sctp 56 -------N 0 1.0 0.0 1 31 87 65535 65535
- 5.296064 1 0 sctp 56 -------N 0 1.0 0.0 1 31 87 65535 65535
r 5.320064 0 1 sctp 1500 -------D 0 0.0 1.0 1 40 78 0 0
+ 5.320064 1 0 sctp 56 -------N 0 1.0 0.0 1 31 88 65535 65535
- 5.320064 1 0 sctp 56 -------N 0 1.0 0.0 1 31 88 65535 65535
r 5.344064 0 1 sctp 1500 -------D 0 0.0 1.0 1 41 79 0 0
+ 5.344064 1 0 sctp 56 -------N 0 1.0 0.0 1 31 89 65535 65535
- 5.344064 1 0 sctp 56 -------N 0 1.0 0.0 1 31 89 65535 65535
r 5.368064 0 1 sctp 1500 -------D 0 0.0 1.0 1 42 80 0 0
+ 5.368064 1 0 sctp 56 -------N 0 1.0 0.0 1 31 90 65535 65535
- 5.368064 1 0 sctp 56 -------N 0 1.0 0.0 1 31 90 65535 65535
r 5.45296 1 0 sctp 56 -------N 0 1.0 0.0 1 31 81 65535 65535
+ 5.45296 0 1 sctp 1500 -------D 0 0.0 1.0 1 43 91 0 0
- 5.45296 0 1 sctp 1500 -------D 0 0.0 1.0 1 43 91 0 0
r 5.47696 1 0 sctp 56 -------N 0 1.0 0.0 1 31 82 65535 65535
+ 5.47696 0 1 sctp 1500 -------D 0 0.0 1.0 1 44 92 0 0
- 5.47696 0 1 sctp 1500 -------D 0 0.0 1.0 1 44 92 0 0
r 5.50096 1 0 sctp 56 -------N 0 1.0 0.0 1 31 83 65535 65535
d 5.50096 0 1 sctp 1500 -------D 0 0.0 1.0 1 32 93 0 0
r 5.52496 1 0 sctp 56 -------N 0 1.0 0.0 1 31 84 65535 65535
r 5.54896 1 0 sctp 56 -------N 0 1.0 0.0 1 31 85 65535 65535
r 5.57296 1 0 sctp 56 -------N 0 1.0 0.0 1 31 86 65535 65535
r 5.59696 1 0 sctp 56 -------N 0 1.0 0.0 1 31 87 65535 65535
r 5.62096 1 0 sctp 56 -------N 0 1.0 0.0 1 31 88 65535 65535
+ 5.62096 0 1 sctp 1500 -------D 0 0.0 1.0 1 45 94 0 0
- 5.62096 0 1 sctp 1500 -------D 0 0.0 1.0 1 45 94 0 0
r 5.64496 1 0 sctp 56 -------N 0 1.0 0.0 1 31 89 65535 65535
+ 5.64496 0 1 sctp 1500 -------D 0 0.0 1.0 1 46 95 0 0
- 5.64496 0 1 sctp 1500 -------D 0 0.0 1.0 1 46 95 0 0
r 5.66896 1 0 sctp 56 -------N 0 1.0 0.0 1 31 90 65535 65535
+ 5.66896 0 1 sctp 1500 -------D 0 0.0 1.0 1 47 96 0 0
- 5.66896 0 1 sctp 1500 -------D 0 0.0 1.0 1 47 96 0 0
r 5.77696 0 1 sctp 1500 -------D 0 0.0 1.0 1 43 91 0 0
+ 5.77696 1 0 sctp 56 -------N 0 1.0 0.0 1 31 97 65535 65535
- 5.77696 1 0 sctp 56 -------N 0 1.0 0.0 1 31 97 65535 65535
r 5.80096 0 1 sctp 1500 -------D 0 0.0 1.0 1 44 92 0 0
+ 5.80096 1 0 sctp 56 -------N 0 1.0 0.0 1 31 98 65535 65535
- 5.80096 1 0 sctp 56 -------N 0 1.0 0.0 1 31 98 65535 65535
r 5.94496 0 1 sctp 1500 -------D 0 0.0 1.0 1 45 94 0 0
+ 5.94496 1 0 sctp 56 -------N 0 1.0 0.0 1 31 99 65535 65535
- 5.94496 1 0 sctp 56 -------N 0 1.0 0.0 1 31 99 65535 65535
r 5.96896 0 1 sctp 1500 -------D 0 0.0 1.0 1 46 95 0 0
+ 5.96896 1 0 sctp 56 -------N 0 1.0 0.0 1 31 100 65535 65535
- 5.96896 1 0 sctp 56 -------N 0 1.0 0.0 1 31 100 65535 65535
r 5.99296 0 1 sctp 1500 -------D 0 0.0 1.0 1 47 96 0 0
+ 5.99296 1 0 sctp 56 -------N 0 1.0 0.0 1 31 101 65535 65535
- 5.99296 1 0 sctp 56 -------N 0 1.0 0.0 1 31 101 65535 65535
r 6.077856 1 0 sctp 56 -------N 0 1.0 0.0 1 31 97 65535 65535
+ 6.077856 0 1 sctp 1500 -------D 0 0.0 1.0 1 48 102 0 0
- 6.077856 0 1 sctp 1500 -------D 0 0.0 1.0 1 48 102 0 0
r 6.101856 1 0 sctp 56 -------N 0 1.0 0.0 1 31 98 65535 65535
+ 6.101856 0 1 sctp 1500 -------D 0 0.0 1.0 1 49 103 0 0
- 6.101856 0 1 sctp 1500 -------D 0 0.0 1.0 1 49 103 0 0
r 6.245856 1 0 sctp 56 -------N 0 1.0 0.0 1 31 99 65535 65535
+ 6.245856 0 1 sctp 1500 -------D 0 0.0 1.0 1 50 104 0 0
- 6.245856 0 1 sctp 1500 -------D 0 0.0 1.0 1 50 104 0 0
r 6.269856 1 0 sctp 56 -------N 0 1.0 0.0 1 31 100 65535 65535
+ 6.269856 0 1 sctp 1500 -------D 0 0.0 1.0 1 51 105 0 0
- 6.269856 0 1 sctp 1500 -------D 0 0.0 1.0 1 51 105 0 0
r 6.293856 1 0 sctp 56 -------N 0 1.0 0.0 1 31 101 65535 65535
+ 6.293856 0 1 sctp 1500 -------D 0 0.0 1.0 1 52 106 0 0
- 6.293856 0 1 sctp 1500 -------D 0 0.0 1.0 1 52 106 0 0
r 6.401856 0 1 sctp 1500 -------D 0 0.0 1.0 1 48 102 0 0
+ 6.401856 1 0 sctp 56 -------N 0 1.0 0.0 1 31 107 65535 65535
- 6.401856 1 0 sctp 56 -------N 0 1.0 0.0 1 31 107 65535 65535
r 6.425856 0 1 sctp 1500 -------D 0 0.0 1.0 1 49 103 0 0
+ 6.425856 1 0 sctp 56 -------N 0 1.0 0.0 1 31 108 65535 65535
- 6.425856 1 0 sctp 56 -------N 0 1.0 0.0 1 31 108 65535 65535
d 6.542833 0 1 sctp 1500 -------D 0 0.0 1.0 1 32 109 0 0
r 6.569856 0 1 sctp 1500 -------D 0 0.0 1.0 1 50 104 0 0
+ 6.569856 1 0 sctp 56 -------N 0 1.0 0.0 1 31 110 65535 65535
- 6.569856 1 0 sctp 56 -------N 0 1.0 0.0 1 31 110 65535 65535
r 6.593856 0 1 sctp 1500 -------D 0 0.0 1.0 1 51 105 0 0
+ 6.593856 1 0 sctp 56 -------N 0 1.0 0.0 1 31 111 65535 65535
- 6.593856 1 0 sctp 56 -------N 0 1.0 0.0 1 31 111 65535 65535
r 6.617856 0 1 sctp 1500 -------D 0 0.0 1.0 1 52 106 0 0
+ 6.617856 1 0 sctp 56 -------N 0 1.0 0.0 1 31 112 65535 65535
- 6.617856 1 0 sctp 56 -------N 0 1.0 0.0 1 31 112 65535 65535
r 6.702752 1 0 sctp 56 -------N 0 1.0 0.0 1 31 107 65535 65535
r 6.726752 1 0 sctp 56 -------N 0 1.0 0.0 1 31 108 65535 65535
r 6.870752 1 0 sctp 56 -------N 0 1.0 0.0 1 31 110 65535 65535
r 6.894752 1 0 sctp 56 -------N 0 1.0 0.0 1 31 111 65535 65535
r 6.918752 1 0 sctp 56 -------N 0 1.0 0.0 1 31 112 65535 65535
+ 8.542833 0 1 sctp 1500 -------D 0 0.0 1.0 1 32 113 0 0
- 8.542833 0 1 sctp 1500 -------D 0 0.0 1.0 1 32 113 0 0
r 8.866833 0 1 sctp 1500 -------D 0 0.0 1.0 1 32 113 0 0
+ 8.866833 1 0 sctp 52 -------N 0 1.0 0.0 1 52 114 65535 65535
- 8.866833 1 0 sctp 52 -------N 0 1.0 0.0 1 52 114 65535 65535
r 9.167665 1 0 sctp 52 -------N 0 1.0 0.0 1 52 114 65535 65535
+ 9.167665 0 1 sctp 1500 -------D 0 0.0 1.0 1 53 115 0 0
- 9.167665 0 1 sctp 1500 -------D 0 0.0 1.0 1 53 115 0 0
+ 9.167665 0 1 sctp 1500 -------D 0 0.0 1.0 1 54 116 0 0
- 9.191665 0 1 sctp 1500 -------D 0 0.0 1.0 1 54 116 0 0
r 9.491665 0 1 sctp 1500 -------D 0 0.0 1.0 1 53 115 0 0
+ 9.491665 1 0 sctp 52 -------N 0 1.0 0.0 1 53 117 65535 65535
- 9.491665 1 0 sctp 52 -------N 0 1.0 0.0 1 53 117 65535 65535
r 9.515665 0 1 sctp 1500 -------D 0 0.0 1.0 1 54 116 0 0
+ 9.515665 1 0 sctp 52 -------N 0 1.0 0.0 1 54 118 65535 65535
- 9.515665 1 0 sctp 52 -------N 0 1.0 0.0 1 54 118 65535 65535
r 9.792497 1 0 sctp 52 -------N 0 1.0 0.0 1 53 117 65535 65535
+ 9.792497 0 1 sctp 1500 -------D 0 0.0 1.0 1 55 119 0 0
- 9.792497 0 1 sctp 1500 -------D 0 0.0 1.0 1 55 119 0 0
+ 9.792497 0 1 sctp 1500 -------D 0 0.0 1.0 1 56 120 0 0
r 9.816497 1 0 sctp 52 -------N 0 1.0 0.0 1 54 118 65535 65535
+ 9.816497 0 1 sctp 1500 -------D 0 0.0 1.0 1 57 121 0 0
+ 9.816497 0 1 sctp 1500 -------D 0 0.0 1.0 1 58 122 0 0
- 9.816497 0 1 sctp 1500 -------D 0 0.0 1.0 1 56 120 0 0
- 9.840497 0 1 sctp 1500 -------D 0 0.0 1.0 1 57 121 0 0
- 9.864497 0 1 sctp 1500 -------D 0 0.0 1.0 1 58 122 0 0
r 10.116497 0 1 sctp 1500 -------D 0 0.0 1.0 1 55 119 0 0
+ 10.116497 1 0 sctp 52 -------N 0 1.0 0.0 1 55 123 65535 65535
- 10.116497 1 0 sctp 52 -------N 0 1.0 0.0 1 55 123 65535 65535
r 10.140497 0 1 sctp 1500 -------D 0 0.0 1.0 1 56 120 0 0
+ 10.140497 1 0 sctp 52 -------N 0 1.0 0.0 1 56 124 65535 65535
- 10.140497 1 0 sctp 52 -------N 0 1.0 0.0 1 56 124 65535 65535
r 10.164497 0 1 sctp 1500 -------D 0 0.0 1.0 1 57 121 0 0
+ 10.164497 1 0 sctp 52 -------N 0 1.0 0.0 1 57 125 65535 65535
- 10.164497 1 0 sctp 52 -------N 0 1.0 0.0 1 57 125 65535 65535
r 10.188497 0 1 sctp 1500 -------D 0 0.0 1.0 1 58 122 0 0
+ 10.188497 1 0 sctp 52 -------N 0 1.0 0.0 1 58 126 65535 65535
- 10.188497 1 0 sctp 52 -------N 0 1.0 0.0 1 58 126 65535 65535
r 10.417329 1 0 sctp 52 -------N 0 1.0 0.0 1 55 123 65535 65535
+ 10.417329 0 1 sctp 1500 -------D 0 0.0 1.0 1 59 127 0 0
- 10.417329 0 1 sctp 1500 -------D 0 0.0 1.0 1 59 127 0 0
+ 10.417329 0 1 sctp 1500 -------D 0 0.0 1.0 1 60 128 0 0
r 10.441329 1 0 sctp 52 -------N 0 1.0 0.0 1 56 124 65535 65535
+ 10.441329 0 1 sctp 1500 -------D 0 0.0 1.0 1 61 129 0 0
- 10.441329 0 1 sctp 1500 -------D 0 0.0 1.0 1 60 128 0 0
r 10.465329 1 0 sctp 52 -------N 0 1.0 0.0 1 57 125 65535 65535
+ 10.465329 0 1 sctp 1500 -------D 0 0.0 1.0 1 62 130 0 0
- 10.465329 0 1 sctp 1500 -------D 0 0.0 1.0 1 61 129 0 0
r 10.489329 1 0 sctp 52 -------N 0 1.0 0.0 1 58 126 65535 65535
+ 10.489329 0 1 sctp 1500 -------D 0 0.0 1.0 1 63 131 0 0
- 10.489329 0 1 sctp 1500 -------D 0 0.0 1.0 1 62 130 0 0
- 10.513329 0 1 sctp 1500 -------D 0 0.0 1.0 1 63 131 0 0
r 10.741329 0 1 sctp 1500 -------D 0 0.0 1.0 1 59 127 0 0
+ 10.741329 1 0 sctp 52 -------N 0 1.0 0.0 1 59 132 65535 65535
- 10.741329 1 0 sctp 52 -------N 0 1.0 0.0 1 59 132 65535 65535
r 10.765329 0 1 sctp 1500 -------D 0 0.0 1.0 1 60 128 0 0
+ 10.765329 1 0 sctp 52 -------N 0 1.0 0.0 1 60 133 65535 65535
- 10.765329 1 0 sctp 52 -------N 0 1.0 0.0 1 60 133 65535 65535
r 10.789329 0 1 sctp 1500 -------D 0 0.0 1.0 1 61 129 0 0
+ 10.789329 1 0 sctp 52 -------N 0 1.0 0.0 1 61 134 65535 65535
- 10.789329 1 0 sctp 52 -------N 0 1.0 0.0 1 61 134 65535 65535
r 10.813329 0 1 sctp 1500 -------D 0 0.0 1.0 1 62 130 0 0
+ 10.813329 1 0 sctp 52 -------N 0 1.0 0.0 1 62 135 65535 65535
- 10.813329 1 0 sctp 52 -------N 0 1.0 0.0 1 62 135 65535 65535
r 10.837329 0 1 sctp 1500 -------D 0 0.0 1.0 1 63 131 0 0
+ 10.837329 1 0 sctp 52 -------N 0 1.0 0.0 1 63 136 65535 65535
- 10.837329 1 0 sctp 52 -------N 0 1.0 0.0 1 63 136 65535 65535
r 11.042161 1 0 sctp 52 -------N 0 1.0 0.0 1 59 132 65535 65535
+ 11.042161 0 1 sctp 1500 -------D 0 0.0 1.0 1 64 137 0 0
- 11.042161 0 1 sctp 1500 -------D 0 0.0 1.0 1 64 137 0 0
r 11.066161 1 0 sctp 52 -------N 0 1.0 0.0 1 60 133 65535 65535
+ 11.066161 0 1 sctp 1500 -------D 0 0.0 1.0 1 65 138 0 0
+ 11.066161 0 1 sctp 1500 -------D 0 0.0 1.0 1 66 139 0 0
- 11.066161 0 1 sctp 1500 -------D 0 0.0 1.0 1 65 138 0 0
r 11.090161 1 0 sctp 52 -------N 0 1.0 0.0 1 61 134 65535 65535
+ 11.090161 0 1 sctp 1500 -------D 0 0.0 1.0 1 67 140 0 0
- 11.090161 0 1 sctp 1500 -------D 0 0.0 1.0 1 66 139 0 0
r 11.114161 1 0 sctp 52 -------N 0 1.0 0.0 1 62 135 65535 65535
+ 11.114161 0 1 sctp 1500 -------D 0 0.0 1.0 1 68 141 0 0
- 11.114161 0 1 sctp 1500 -------D 0 0.0 1.0 1 67 140 0 0
r 11.138161 1 0 sctp 52 -------N 0 1.0 0.0 1 63 136 65535 65535
+ 11.138161 0 1 sctp 1500 -------D 0 0.0 1.0 1 69 142 0 0
- 11.138161 0 1 sctp 1500 -------D 0 0.0 1.0 1 68 141 0 0
- 11.162161 0 1 sctp 1500 -------D 0 0.0 1.0 1 69 142 0 0
r 11.366161 0 1 sctp 1500 -------D 0 0.0 1.0 1 64 137 0 0
+ 11.366161 1 0 sctp 52 -------N 0 1.0 0.0 1 64 143 65535 65535
- 11.366161 1 0 sctp 52 -------N 0 1.0 0.0 1 64 143 65535 65535
r 11.390161 0 1 sctp 1500 -------D 0 0.0 1.0 1 65 138 0 0
+ 11.390161 1 0 sctp 52 -------N 0 1.0 0.0 1 65 144 65535 65535
- 11.390161 1 0 sctp 52 -------N 0 1.0 0.0 1 65 144 65535 65535
r 11.414161 0 1 sctp 1500 -------D 0 0.0 1.0 1 66 139 0 0
+ 11.414161 1 0 sctp 52 -------N 0 1.0 0.0 1 66 145 65535 65535
- 11.414161 1 0 sctp 52 -------N 0 1.0 0.0 1 66 145 65535 65535
r 11.438161 0 1 sctp 1500 -------D 0 0.0 1.0 1 67 140 0 0
+ 11.438161 1 0 sctp 52 -------N 0 1.0 0.0 1 67 146 65535 65535
- 11.438161 1 0 sctp 52 -------N 0 1.0 0.0 1 67 146 65535 65535
r 11.462161 0 1 sctp 1500 -------D 0 0.0 1.0 1 68 141 0 0
+ 11.462161 1 0 sctp 52 -------N 0 1.0 0.0 1 68 147 65535 65535
- 11.462161 1 0 sctp 52 -------N 0 1.0 0.0 1 68 147 65535 65535
r 11.486161 0 1 sctp 1500 -------D 0 0.0 1.0 1 69 142 0 0
+ 11.486161 1 0 sctp 52 -------N 0 1.0 0.0 1 69 148 65535 65535
- 11.486161 1 0 sctp 52 -------N 0 1.0 0.0 1 69 148 65535 65535
r 11.666993 1 0 sctp 52 -------N 0 1.0 0.0 1 64 143 65535 65535
+ 11.666993 0 1 sctp 1500 -------D 0 0.0 1.0 1 70 149 0 0
- 11.666993 0 1 sctp 1500 -------D 0 0.0 1.0 1 70 149 0 0
r 11.690993 1 0 sctp 52 -------N 0 1.0 0.0 1 65 144 65535 65535
+ 11.690993 0 1 sctp 1500 -------D 0 0.0 1.0 1 71 150 0 0
- 11.690993 0 1 sctp 1500 -------D 0 0.0 1.0 1 71 150 0 0
r 11.714993 1 0 sctp 52 -------N 0 1.0 0.0 1 66 145 65535 65535
+ 11.714993 0 1 sctp 1500 -------D 0 0.0 1.0 1 72 151 0 0
+ 11.714993 0 1 sctp 1500 -------D 0 0.0 1.0 1 73 152 0 0
- 11.714993 0 1 sctp 1500 -------D 0 0.0 1.0 1 72 151 0 0
r 11.738993 1 0 sctp 52 -------N 0 1.0 0.0 1 67 146 65535 65535
+ 11.738993 0 1 sctp 1500 -------D 0 0.0 1.0 1 74 153 0 0
- 11.738993 0 1 sctp 1500 -------D 0 0.0 1.0 1 73 152 0 0
r 11.762993 1 0 sctp 52 -------N 0 1.0 0.0 1 68 147 65535 65535
+ 11.762993 0 1 sctp 1500 -------D 0 0.0 1.0 1 75 154 0 0
- 11.762993 0 1 sctp 1500 -------D 0 0.0 1.0 1 74 153 0 0
r 11.786993 1 0 sctp 52 -------N 0 1.0 0.0 1 69 148 65535 65535
+ 11.786993 0 1 sctp 1500 -------D 0 0.0 1.0 1 76 155 0 0
- 11.786993 0 1 sctp 1500 -------D 0 0.0 1.0 1 75 154 0 0
- 11.810993 0 1 sctp 1500 -------D 0 0.0 1.0 1 76 155 0 0
r 11.990993 0 1 sctp 1500 -------D 0 0.0 1.0 1 70 149 0 0
+ 11.990993 1 0 sctp 52 -------N 0 1.0 0.0 1 70 156 65535 65535
- 11.990993 1 0 sctp 52 -------N 0 1.0 0.0 1 70 156 65535 65535
r 12.014993 0 1 sctp 1500 -------D 0 0.0 1.0 1 71 150 0 0
+ 12.014993 1 0 sctp 52 -------N 0 1.0 0.0 1 71 157 65535 65535
- 12.014993 1 0 sctp 52 -------N 0 1.0 0.0 1 71 157 65535 65535
r 12.038993 0 1 sctp 1500 -------D 0 0.0 1.0 1 72 151 0 0
+ 12.038993 1 0 sctp 52 -------N 0 1.0 0.0 1 72 158 65535 65535
- 12.038993 1 0 sctp 52 -------N 0 1.0 0.0 1 72 158 65535 65535
r 12.062993 0 1 sctp 1500 -------D 0 0.0 1.0 1 73 152 0 0
+ 12.062993 1 0 sctp 52 -------N 0 1.0 0.0 1 73 159 65535 65535
- 12.062993 1 0 sctp 52 -------N 0 1.0 0.0 1 73 159 65535 65535
r 12.086993 0 1 sctp 1500 -------D 0 0.0 1.0 1 74 153 0 0
+ 12.086993 1 0 sctp 52 -------N 0 1.0 0.0 1 74 160 65535 65535
- 12.086993 1 0 sctp 52 -------N 0 1.0 0.0 1 74 160 65535 65535
r 12.110993 0 1 sctp 1500 -------D 0 0.0 1.0 1 75 154 0 0
+ 12.110993 1 0 sctp 52 -------N 0 1.0 0.0 1 75 161 65535 65535
- 12.110993 1 0 sctp 52 -------N 0 1.0 0.0 1 75 161 65535 65535
r 12.134993 0 1 sctp 1500 -------D 0 0.0 1.0 1 76 155 0 0
+ 12.134993 1 0 sctp 52 -------N 0 1.0 0.0 1 76 162 65535 65535
- 12.134993 1 0 sctp 52 -------N 0 1.0 0.0 1 76 162 65535 65535
r 12.291825 1 0 sctp 52 -------N 0 1.0 0.0 1 70 156 65535 65535
+ 12.291825 0 1 sctp 1500 -------D 0 0.0 1.0 1 77 163 0 0
- 12.291825 0 1 sctp 1500 -------D 0 0.0 1.0 1 77 163 0 0
r 12.315825 1 0 sctp 52 -------N 0 1.0 0.0 1 71 157 65535 65535
+ 12.315825 0 1 sctp 1500 -------D 0 0.0 1.0 1 78 164 0 0
- 12.315825 0 1 sctp 1500 -------D 0 0.0 1.0 1 78 164 0 0
r 12.339825 1 0 sctp 52 -------N 0 1.0 0.0 1 72 158 65535 65535
+ 12.339825 0 1 sctp 1500 -------D 0 0.0 1.0 1 79 165 0 0
- 12.339825 0 1 sctp 1500 -------D 0 0.0 1.0 1 79 165 0 0
r 12.363825 1 0 sctp 52 -------N 0 1.0 0.0 1 73 159 65535 65535
+ 12.363825 0 1 sctp 1500 -------D 0 0.0 1.0 1 80 166 0 0
+ 12.363825 0 1 sctp 1500 -------D 0 0.0 1.0 1 81 167 0 0
- 12.363825 0 1 sctp 1500 -------D 0 0.0 1.0 1 80 166 0 0
r 12.387825 1 0 sctp 52 -------N 0 1.0 0.0 1 74 160 65535 65535
+ 12.387825 0 1 sctp 1500 -------D 0 0.0 1.0 1 82 168 0 0
- 12.387825 0 1 sctp 1500 -------D 0 0.0 1.0 1 81 167 0 0
r 12.411825 1 0 sctp 52 -------N 0 1.0 0.0 1 75 161 65535 65535
+ 12.411825 0 1 sctp 1500 -------D 0 0.0 1.0 1 83 169 0 0
- 12.411825 0 1 sctp 1500 -------D 0 0.0 1.0 1 82 168 0 0
r 12.435825 1 0 sctp 52 -------N 0 1.0 0.0 1 76 162 65535 65535
+ 12.435825 0 1 sctp 1500 -------D 0 0.0 1.0 1 84 170 0 0
- 12.435825 0 1 sctp 1500 -------D 0 0.0 1.0 1 83 169 0 0
- 12.459825 0 1 sctp 1500 -------D 0 0.0 1.0 1 84 170 0 0
r 12.615825 0 1 sctp 1500 -------D 0 0.0 1.0 1 77 163 0 0
+ 12.615825 1 0 sctp 52 -------N 0 1.0 0.0 1 77 171 65535 65535
- 12.615825 1 0 sctp 52 -------N 0 1.0 0.0 1 77 171 65535 65535
r 12.639825 0 1 sctp 1500 -------D 0 0.0 1.0 1 78 164 0 0
+ 12.639825 1 0 sctp 52 -------N 0 1.0 0.0 1 78 172 65535 65535
- 12.639825 1 0 sctp 52 -------N 0 1.0 0.0 1 78 172 65535 65535
r 12.663825 0 1 sctp 1500 -------D 0 0.0 1.0 1 79 165 0 0
+ 12.663825 1 0 sctp 52 -------N 0 1.0 0.0 1 79 173 65535 65535
- 12.663825 1 0 sctp 52 -------N 0 1.0 0.0 1 79 173 65535 65535
r 12.687825 0 1 sctp 1500 -------D 0 0.0 1.0 1 80 166 0 0
+ 12.687825 1 0 sctp 52 -------N 0 1.0 0.0 1 80 174 65535 65535
- 12.687825 1 0 sctp 52 -------N 0 1.0 0.0 1 80 174 65535 65535
r 12.711825 0 1 sctp 1500 -------D 0 0.0 1.0 1 81 167 0 0