+ 0 1 5 sctp 56 -------I 0 1.0 5.0 1 -1 4 65535 65535
- 0 1 5 sctp 56 -------I 0 1.0 5.0 1 -1 4 65535 65535
r 0.045045 1 5 sctp 56 -------I 0 1.0 5.0 1 -1 4 65535 65535
+ 0.045045 5 1 sctp 56 -------I 0 5.0 1.0 1 -1 5 65535 65535
- 0.045045 5 1 sctp 56 -------I 0 5.0 1.0 1 -1 5 65535 65535
r 0.09009 5 1 sctp 56 -------I 0 5.0 1.0 1 -1 5 65535 65535
+ 0.09009 1 5 sctp 36 -------I 0 1.0 5.0 1 -1 6 65535 65535
- 0.09009 1 5 sctp 36 -------I 0 1.0 5.0 1 -1 6 65535 65535
r 0.135118 1 5 sctp 36 -------I 0 1.0 5.0 1 -1 6 65535 65535
+ 0.135118 5 1 sctp 36 -------I 0 5.0 1.0 1 -1 7 65535 65535
- 0.135118 5 1 sctp 36 -------I 0 5.0 1.0 1 -1 7 65535 65535
r 0.180147 5 1 sctp 36 -------I 0 5.0 1.0 1 -1 7 65535 65535
+ 0.180147 1 5 sctp 56 -------H 0 1.0 5.0 1 -1 8 65535 65535
- 0.180147 1 5 sctp 56 -------H 0 1.0 5.0 1 -1 8 65535 65535
+ 0.180147 2 6 sctp 56 -------H 0 2.0 6.0 1 -1 9 65535 65535
- 0.180147 2 6 sctp 56 -------H 0 2.0 6.0 1 -1 9 65535 65535
r 0.225192 1 5 sctp 56 -------H 0 1.0 5.0 1 -1 8 65535 65535
+ 0.225192 5 1 sctp 56 -------B 0 5.0 1.0 1 -1 10 65535 65535
- 0.225192 5 1 sctp 56 -------B 0 5.0 1.0 1 -1 10 65535 65535
r 0.225192 2 6 sctp 56 -------H 0 2.0 6.0 1 -1 9 65535 65535
+ 0.225192 6 2 sctp 56 -------B 0 6.0 2.0 1 -1 11 65535 65535
- 0.225192 6 2 sctp 56 -------B 0 6.0 2.0 1 -1 11 65535 65535
r 0.270237 5 1 sctp 56 -------B 0 5.0 1.0 1 -1 10 65535 65535
r 0.270237 6 2 sctp 56 -------B 0 6.0 2.0 1 -1 11 65535 65535
+ 0.270237 1 5 sctp 1500 -------D 0 1.0 5.0 1 1 12 0 0
- 0.270237 1 5 sctp 1500 -------D 0 1.0 5.0 1 1 12 0 0
+ 0.270237 1 5 sctp 1500 -------D 0 1.0 5.0 1 2 13 0 1
+ 0.270237 1 5 sctp 1500 -------D 0 1.0 5.0 1 3 14 0 2
+ 0.270237 2 6 sctp 1500 -------D 0 2.0 6.0 1 4 15 0 3
- 0.270237 2 6 sctp 1500 -------D 0 2.0 6.0 1 4 15 0 3
+ 0.270237 2 6 sctp 1500 -------D 0 2.0 6.0 1 5 16 0 4
+ 0.270237 2 6 sctp 1500 -------D 0 2.0 6.0 1 6 17 0 5
- 0.271437 1 5 sctp 1500 -------D 0 1.0 5.0 1 2 13 0 1
- 0.271437 2 6 sctp 1500 -------D 0 2.0 6.0 1 5 16 0 4
- 0.272637 1 5 sctp 1500 -------D 0 1.0 5.0 1 3 14 0 2
- 0.272637 2 6 sctp 1500 -------D 0 2.0 6.0 1 6 17 0 5
r 0.316437 1 5 sctp 1500 -------D 0 1.0 5.0 1 1 12 0 0
r 0.316437 2 6 sctp 1500 -------D 0 2.0 6.0 1 4 15 0 3
+ 0.316437 6 2 sctp 52 -------S 0 6.0 2.0 1 1 18 65535 65535
- 0.316437 6 2 sctp 52 -------S 0 6.0 2.0 1 1 18 65535 65535
r 0.317637 1 5 sctp 1500 -------D 0 1.0 5.0 1 2 13 0 1
r 0.317637 2 6 sctp 1500 -------D 0 2.0 6.0 1 5 16 0 4
+ 0.317637 6 2 sctp 52 -------S 0 6.0 2.0 1 2 19 65535 65535
- 0.317637 6 2 sctp 52 -------S 0 6.0 2.0 1 2 19 65535 65535
r 0.318837 1 5 sctp 1500 -------D 0 1.0 5.0 1 3 14 0 2
r 0.318837 2 6 sctp 1500 -------D 0 2.0 6.0 1 6 17 0 5
+ 0.318837 6 2 sctp 48 -------S 0 6.0 2.0 1 6 20 65535 65535
- 0.318837 6 2 sctp 48 -------S 0 6.0 2.0 1 6 20 65535 65535
r 0.361478 6 2 sctp 52 -------S 0 6.0 2.0 1 1 18 65535 65535
+ 0.361478 1 5 sctp 1500 -------D 0 1.0 5.0 1 7 21 0 6
- 0.361478 1 5 sctp 1500 -------D 0 1.0 5.0 1 7 21 0 6
+ 0.361478 1 5 sctp 1500 -------D 0 1.0 5.0 1 8 22 0 7
+ 0.361478 2 6 sctp 1500 -------D 0 2.0 6.0 1 9 23 0 8
- 0.361478 2 6 sctp 1500 -------D 0 2.0 6.0 1 9 23 0 8
+ 0.361478 2 6 sctp 1500 -------D 0 2.0 6.0 1 10 24 0 9
r 0.362678 6 2 sctp 52 -------S 0 6.0 2.0 1 2 19 65535 65535
+ 0.362678 1 5 sctp 1500 -------D 0 1.0 5.0 1 11 25 0 10
+ 0.362678 1 5 sctp 1500 -------D 0 1.0 5.0 1 12 26 0 11
+ 0.362678 2 6 sctp 1500 -------D 0 2.0 6.0 1 13 27 0 12
+ 0.362678 2 6 sctp 1500 -------D 0 2.0 6.0 1 14 28 0 13
- 0.362678 1 5 sctp 1500 -------D 0 1.0 5.0 1 8 22 0 7
- 0.362678 2 6 sctp 1500 -------D 0 2.0 6.0 1 10 24 0 9
r 0.363875 6 2 sctp 48 -------S 0 6.0 2.0 1 6 20 65535 65535
+ 0.363875 1 5 sctp 1500 -------D 0 1.0 5.0 1 15 29 0 14
+ 0.363875 1 5 sctp 1500 -------D 0 1.0 5.0 1 16 30 0 15
+ 0.363875 2 6 sctp 1500 -------D 0 2.0 6.0 1 17 31 0 16
+ 0.363875 2 6 sctp 1500 -------D 0 2.0 6.0 1 18 32 0 17
- 0.363878 1 5 sctp 1500 -------D 0 1.0 5.0 1 11 25 0 10
- 0.363878 2 6 sctp 1500 -------D 0 2.0 6.0 1 13 27 0 12
- 0.365078 1 5 sctp 1500 -------D 0 1.0 5.0 1 12 26 0 11
- 0.365078 2 6 sctp 1500 -------D 0 2.0 6.0 1 14 28 0 13
- 0.366278 1 5 sctp 1500 -------D 0 1.0 5.0 1 15 29 0 14
- 0.366278 2 6 sctp 1500 -------D 0 2.0 6.0 1 17 31 0 16
- 0.367478 1 5 sctp 1500 -------D 0 1.0 5.0 1 16 30 0 15
- 0.367478 2 6 sctp 1500 -------D 0 2.0 6.0 1 18 32 0 17
r 0.407678 1 5 sctp 1500 -------D 0 1.0 5.0 1 7 21 0 6
r 0.407678 2 6 sctp 1500 -------D 0 2.0 6.0 1 9 23 0 8
+ 0.407678 6 2 sctp 52 -------S 0 6.0 2.0 1 7 33 65535 65535
- 0.407678 6 2 sctp 52 -------S 0 6.0 2.0 1 7 33 65535 65535
r 0.408878 1 5 sctp 1500 -------D 0 1.0 5.0 1 8 22 0 7
r 0.408878 2 6 sctp 1500 -------D 0 2.0 6.0 1 10 24 0 9
+ 0.408878 6 2 sctp 48 -------S 0 6.0 2.0 1 10 34 65535 65535
- 0.408878 6 2 sctp 48 -------S 0 6.0 2.0 1 10 34 65535 65535
r 0.410078 1 5 sctp 1500 -------D 0 1.0 5.0 1 11 25 0 10
r 0.410078 2 6 sctp 1500 -------D 0 2.0 6.0 1 13 27 0 12
+ 0.410078 6 2 sctp 52 -------S 0 6.0 2.0 1 11 35 65535 65535
- 0.410078 6 2 sctp 52 -------S 0 6.0 2.0 1 11 35 65535 65535
r 0.411278 1 5 sctp 1500 -------D 0 1.0 5.0 1 12 26 0 11
r 0.411278 2 6 sctp 1500 -------D 0 2.0 6.0 1 14 28 0 13
+ 0.411278 6 2 sctp 48 -------S 0 6.0 2.0 1 14 36 65535 65535
- 0.411278 6 2 sctp 48 -------S 0 6.0 2.0 1 14 36 65535 65535
r 0.412478 1 5 sctp 1500 -------D 0 1.0 5.0 1 15 29 0 14
r 0.412478 2 6 sctp 1500 -------D 0 2.0 6.0 1 17 31 0 16
+ 0.412478 6 2 sctp 52 -------S 0 6.0 2.0 1 15 37 65535 65535
- 0.412478 6 2 sctp 52 -------S 0 6.0 2.0 1 15 37 65535 65535
r 0.413678 1 5 sctp 1500 -------D 0 1.0 5.0 1 16 30 0 15
r 0.413678 2 6 sctp 1500 -------D 0 2.0 6.0 1 18 32 0 17
+ 0.413678 6 2 sctp 48 -------S 0 6.0 2.0 1 18 38 65535 65535
- 0.413678 6 2 sctp 48 -------S 0 6.0 2.0 1 18 38 65535 65535
r 0.45272 6 2 sctp 52 -------S 0 6.0 2.0 1 7 33 65535 65535
+ 0.45272 1 5 sctp 1500 -------D 0 1.0 5.0 1 19 39 0 18
- 0.45272 1 5 sctp 1500 -------D 0 1.0 5.0 1 19 39 0 18
+ 0.45272 1 5 sctp 1500 -------D 0 1.0 5.0 1 20 40 0 19
+ 0.45272 2 6 sctp 1500 -------D 0 2.0 6.0 1 21 41 0 20
- 0.45272 2 6 sctp 1500 -------D 0 2.0 6.0 1 21 41 0 20
+ 0.45272 2 6 sctp 1500 -------D 0 2.0 6.0 1 22 42 0 21
r 0.453917 6 2 sctp 48 -------S 0 6.0 2.0 1 10 34 65535 65535
+ 0.453917 1 5 sctp 1500 -------D 0 1.0 5.0 1 23 43 0 22
+ 0.453917 1 5 sctp 1500 -------D 0 1.0 5.0 1 24 44 0 23
+ 0.453917 2 6 sctp 1500 -------D 0 2.0 6.0 1 25 45 0 24
+ 0.453917 2 6 sctp 1500 -------D 0 2.0 6.0 1 26 46 0 25
- 0.45392 1 5 sctp 1500 -------D 0 1.0 5.0 1 20 40 0 19
- 0.45392 2 6 sctp 1500 -------D 0 2.0 6.0 1 22 42 0 21
r 0.45512 6 2 sctp 52 -------S 0 6.0 2.0 1 11 35 65535 65535
+ 0.45512 1 5 sctp 1500 -------D 0 1.0 5.0 1 27 47 0 26
+ 0.45512 1 5 sctp 1500 -------D 0 1.0 5.0 1 28 48 0 27
+ 0.45512 2 6 sctp 1500 -------D 0 2.0 6.0 1 29 49 0 28
+ 0.45512 2 6 sctp 1500 -------D 0 2.0 6.0 1 30 50 0 29
- 0.45512 1 5 sctp 1500 -------D 0 1.0 5.0 1 23 43 0 22
- 0.45512 2 6 sctp 1500 -------D 0 2.0 6.0 1 25 45 0 24
r 0.456317 6 2 sctp 48 -------S 0 6.0 2.0 1 14 36 65535 65535
+ 0.456317 1 5 sctp 1500 -------D 0 1.0 5.0 1 31 51 0 30
+ 0.456317 1 5 sctp 1500 -------D 0 1.0 5.0 1 32 52 0 31
+ 0.456317 2 6 sctp 1500 -------D 0 2.0 6.0 1 33 53 0 32
+ 0.456317 2 6 sctp 1500 -------D 0 2.0 6.0 1 34 54 0 33
- 0.45632 1 5 sctp 1500 -------D 0 1.0 5.0 1 24 44 0 23
- 0.45632 2 6 sctp 1500 -------D 0 2.0 6.0 1 26 46 0 25
r 0.45752 6 2 sctp 52 -------S 0 6.0 2.0 1 15 37 65535 65535
+ 0.45752 1 5 sctp 1500 -------D 0 1.0 5.0 1 35 55 0 34
+ 0.45752 1 5 sctp 1500 -------D 0 1.0 5.0 1 36 56 0 35
+ 0.45752 2 6 sctp 1500 -------D 0 2.0 6.0 1 37 57 0 36
+ 0.45752 2 6 sctp 1500 -------D 0 2.0 6.0 1 38 58 0 37
- 0.45752 1 5 sctp 1500 -------D 0 1.0 5.0 1 27 47 0 26
- 0.45752 2 6 sctp 1500 -------D 0 2.0 6.0 1 29 49 0 28
r 0.458717 6 2 sctp 48 -------S 0 6.0 2.0 1 18 38 65535 65535
+ 0.458717 1 5 sctp 1500 -------D 0 1.0 5.0 1 39 59 0 38
+ 0.458717 2 6 sctp 1500 -------D 0 2.0 6.0 1 40 60 0 39
- 0.45872 1 5 sctp 1500 -------D 0 1.0 5.0 1 28 48 0 27
- 0.45872 2 6 sctp 1500 -------D 0 2.0 6.0 1 30 50 0 29
- 0.45992 1 5 sctp 1500 -------D 0 1.0 5.0 1 31 51 0 30
- 0.45992 2 6 sctp 1500 -------D 0 2.0 6.0 1 33 53 0 32
- 0.46112 1 5 sctp 1500 -------D 0 1.0 5.0 1 32 52 0 31
- 0.46112 2 6 sctp 1500 -------D 0 2.0 6.0 1 34 54 0 33
- 0.46232 1 5 sctp 1500 -------D 0 1.0 5.0 1 35 55 0 34
- 0.46232 2 6 sctp 1500 -------D 0 2.0 6.0 1 37 57 0 36
- 0.46352 1 5 sctp 1500 -------D 0 1.0 5.0 1 36 56 0 35
- 0.46352 2 6 sctp 1500 -------D 0 2.0 6.0 1 38 58 0 37
- 0.46472 1 5 sctp 1500 -------D 0 1.0 5.0 1 39 59 0 38
- 0.46472 2 6 sctp 1500 -------D 0 2.0 6.0 1 40 60 0 39
r 0.49892 1 5 sctp 1500 -------D 0 1.0 5.0 1 19 39 0 18
r 0.49892 2 6 sctp 1500 -------D 0 2.0 6.0 1 21 41 0 20
+ 0.49892 6 2 sctp 52 -------S 0 6.0 2.0 1 19 61 65535 65535
- 0.49892 6 2 sctp 52 -------S 0 6.0 2.0 1 19 61 65535 65535
r 0.50012 1 5 sctp 1500 -------D 0 1.0 5.0 1 20 40 0 19
r 0.50012 2 6 sctp 1500 -------D 0 2.0 6.0 1 22 42 0 21
+ 0.50012 6 2 sctp 48 -------S 0 6.0 2.0 1 22 62 65535 65535
- 0.50012 6 2 sctp 48 -------S 0 6.0 2.0 1 22 62 65535 65535
r 0.50132 1 5 sctp 1500 -------D 0 1.0 5.0 1 23 43 0 22
r 0.50132 2 6 sctp 1500 -------D 0 2.0 6.0 1 25 45 0 24
+ 0.50132 6 2 sctp 52 -------S 0 6.0 2.0 1 23 63 65535 65535
- 0.50132 6 2 sctp 52 -------S 0 6.0 2.0 1 23 63 65535 65535
r 0.50252 1 5 sctp 1500 -------D 0 1.0 5.0 1 24 44 0 23
r 0.50252 2 6 sctp 1500 -------D 0 2.0 6.0 1 26 46 0 25
+ 0.50252 6 2 sctp 48 -------S 0 6.0 2.0 1 26 64 65535 65535
- 0.50252 6 2 sctp 48 -------S 0 6.0 2.0 1 26 64 65535 65535
r 0.50372 1 5 sctp 1500 -------D 0 1.0 5.0 1 27 47 0 26
r 0.50372 2 6 sctp 1500 -------D 0 2.0 6.0 1 29 49 0 28
+ 0.50372 6 2 sctp 52 -------S 0 6.0 2.0 1 27 65 65535 65535
- 0.50372 6 2 sctp 52 -------S 0 6.0 2.0 1 27 65 65535 65535
r 0.50492 1 5 sctp 1500 -------D 0 1.0 5.0 1 28 48 0 27
r 0.50492 2 6 sctp 1500 -------D 0 2.0 6.0 1 30 50 0 29
+ 0.50492 6 2 sctp 48 -------S 0 6.0 2.0 1 30 66 65535 65535
- 0.50492 6 2 sctp 48 -------S 0 6.0 2.0 1 30 66 65535 65535
r 0.50612 1 5 sctp 1500 -------D 0 1.0 5.0 1 31 51 0 30
r 0.50612 2 6 sctp 1500 -------D 0 2.0 6.0 1 33 53 0 32
+ 0.50612 6 2 sctp 52 -------S 0 6.0 2.0 1 31 67 65535 65535
- 0.50612 6 2 sctp 52 -------S 0 6.0 2.0 1 31 67 65535 65535
r 0.50732 1 5 sctp 1500 -------D 0 1.0 5.0 1 32 52 0 31
r 0.50732 2 6 sctp 1500 -------D 0 2.0 6.0 1 34 54 0 33
+ 0.50732 6 2 sctp 48 -------S 0 6.0 2.0 1 34 68 65535 65535
- 0.50732 6 2 sctp 48 -------S 0 6.0 2.0 1 34 68 65535 65535
r 0.50852 1 5 sctp 1500 -------D 0 1.0 5.0 1 35 55 0 34
r 0.50852 2 6 sctp 1500 -------D 0 2.0 6.0 1 37 57 0 36
+ 0.50852 6 2 sctp 52 -------S 0 6.0 2.0 1 35 69 65535 65535
- 0.50852 6 2 sctp 52 -------S 0 6.0 2.0 1 35 69 65535 65535
r 0.50972 1 5 sctp 1500 -------D 0 1.0 5.0 1 36 56 0 35
r 0.50972 2 6 sctp 1500 -------D 0 2.0 6.0 1 38 58 0 37
+ 0.50972 6 2 sctp 48 -------S 0 6.0 2.0 1 38 70 65535 65535
- 0.50972 6 2 sctp 48 -------S 0 6.0 2.0 1 38 70 65535 65535
r 0.51092 1 5 sctp 1500 -------D 0 1.0 5.0 1 39 59 0 38
r 0.51092 2 6 sctp 1500 -------D 0 2.0 6.0 1 40 60 0 39
+ 0.51092 6 2 sctp 48 -------S 0 6.0 2.0 1 40 71 65535 65535
- 0.51092 6 2 sctp 48 -------S 0 6.0 2.0 1 40 71 65535 65535
r 0.543962 6 2 sctp 52 -------S 0 6.0 2.0 1 19 61 65535 65535
+ 0.543962 1 5 sctp 1500 -------D 0 1.0 5.0 1 41 72 0 40
- 0.543962 1 5 sctp 1500 -------D 0 1.0 5.0 1 41 72 0 40
+ 0.543962 2 6 sctp 1500 -------D 0 2.0 6.0 1 42 73 0 41
- 0.543962 2 6 sctp 1500 -------D 0 2.0 6.0 1 42 73 0 41
r 0.545158 6 2 sctp 48 -------S 0 6.0 2.0 1 22 62 65535 65535
+ 0.545158 1 5 sctp 1500 -------D 0 1.0 5.0 1 43 74 0 42
+ 0.545158 2 6 sctp 1500 -------D 0 2.0 6.0 1 44 75 0 43
- 0.545162 1 5 sctp 1500 -------D 0 1.0 5.0 1 43 74 0 42
- 0.545162 2 6 sctp 1500 -------D 0 2.0 6.0 1 44 75 0 43
r 0.546362 6 2 sctp 52 -------S 0 6.0 2.0 1 23 63 65535 65535
+ 0.546362 1 5 sctp 1500 -------D 0 1.0 5.0 1 45 76 0 44
+ 0.546362 2 6 sctp 1500 -------D 0 2.0 6.0 1 46 77 0 45
- 0.546362 1 5 sctp 1500 -------D 0 1.0 5.0 1 45 76 0 44
- 0.546362 2 6 sctp 1500 -------D 0 2.0 6.0 1 46 77 0 45
r 0.547558 6 2 sctp 48 -------S 0 6.0 2.0 1 26 64 65535 65535
+ 0.547558 1 5 sctp 1500 -------D 0 1.0 5.0 1 47 78 0 46
+ 0.547558 2 6 sctp 1500 -------D 0 2.0 6.0 1 48 79 0 47
- 0.547562 1 5 sctp 1500 -------D 0 1.0 5.0 1 47 78 0 46
- 0.547562 2 6 sctp 1500 -------D 0 2.0 6.0 1 48 79 0 47
r 0.548762 6 2 sctp 52 -------S 0 6.0 2.0 1 27 65 65535 65535
+ 0.548762 1 5 sctp 1500 -------D 0 1.0 5.0 1 49 80 0 48
+ 0.548762 2 6 sctp 1500 -------D 0 2.0 6.0 1 50 81 0 49
- 0.548762 1 5 sctp 1500 -------D 0 1.0 5.0 1 49 80 0 48
- 0.548762 2 6 sctp 1500 -------D 0 2.0 6.0 1 50 81 0 49
r 0.549958 6 2 sctp 48 -------S 0 6.0 2.0 1 30 66 65535 65535
+ 0.549958 1 5 sctp 1500 -------D 0 1.0 5.0 1 51 82 0 50
+ 0.549958 2 6 sctp 1500 -------D 0 2.0 6.0 1 52 83 0 51
- 0.549962 1 5 sctp 1500 -------D 0 1.0 5.0 1 51 82 0 50
- 0.549962 2 6 sctp 1500 -------D 0 2.0 6.0 1 52 83 0 51
r 0.551162 6 2 sctp 52 -------S 0 6.0 2.0 1 31 67 65535 65535
+ 0.551162 1 5 sctp 1500 -------D 0 1.0 5.0 1 53 84 0 52
+ 0.551162 2 6 sctp 1500 -------D 0 2.0 6.0 1 54 85 0 53
- 0.551162 1 5 sctp 1500 -------D 0 1.0 5.0 1 53 84 0 52
- 0.551162 2 6 sctp 1500 -------D 0 2.0 6.0 1 54 85 0 53
r 0.552358 6 2 sctp 48 -------S 0 6.0 2.0 1 34 68 65535 65535
+ 0.552358 1 5 sctp 1500 -------D 0 1.0 5.0 1 55 86 0 54
+ 0.552358 2 6 sctp 1500 -------D 0 2.0 6.0 1 56 87 0 55
- 0.552362 1 5 sctp 1500 -------D 0 1.0 5.0 1 55 86 0 54
- 0.552362 2 6 sctp 1500 -------D 0 2.0 6.0 1 56 87 0 55
r 0.553562 6 2 sctp 52 -------S 0 6.0 2.0 1 35 69 65535 65535
+ 0.553562 1 5 sctp 1500 -------D 0 1.0 5.0 1 57 88 0 56
+ 0.553562 2 6 sctp 1500 -------D 0 2.0 6.0 1 58 89 0 57
- 0.553562 1 5 sctp 1500 -------D 0 1.0 5.0 1 57 88 0 56
- 0.553562 2 6 sctp 1500 -------D 0 2.0 6.0 1 58 89 0 57
r 0.554758 6 2 sctp 48 -------S 0 6.0 2.0 1 38 70 65535 65535
+ 0.554758 1 5 sctp 1500 -------D 0 1.0 5.0 1 59 90 0 58
+ 0.554758 1 5 sctp 1500 -------D 0 1.0 5.0 1 60 91 0 59
+ 0.554758 2 6 sctp 1500 -------D 0 2.0 6.0 1 61 92 0 60
+ 0.554758 2 6 sctp 1500 -------D 0 2.0 6.0 1 62 93 0 61
- 0.554762 1 5 sctp 1500 -------D 0 1.0 5.0 1 59 90 0 58
- 0.554762 2 6 sctp 1500 -------D 0 2.0 6.0 1 61 92 0 60
r 0.555958 6 2 sctp 48 -------S 0 6.0 2.0 1 40 71 65535 65535
+ 0.555958 1 5 sctp 1500 -------D 0 1.0 5.0 1 63 94 0 62
+ 0.555958 2 6 sctp 1500 -------D 0 2.0 6.0 1 64 95 0 63
- 0.555962 1 5 sctp 1500 -------D 0 1.0 5.0 1 60 91 0 59
- 0.555962 2 6 sctp 1500 -------D 0 2.0 6.0 1 62 93 0 61
- 0.557162 1 5 sctp 1500 -------D 0 1.0 5.0 1 63 94 0 62
- 0.557162 2 6 sctp 1500 -------D 0 2.0 6.0 1 64 95 0 63
r 0.590162 1 5 sctp 1500 -------D 0 1.0 5.0 1 41 72 0 40
r 0.590162 2 6 sctp 1500 -------D 0 2.0 6.0 1 42 73 0 41
+ 0.590162 6 2 sctp 48 -------S 0 6.0 2.0 1 42 96 65535 65535
- 0.590162 6 2 sctp 48 -------S 0 6.0 2.0 1 42 96 65535 65535
r 0.591362 1 5 sctp 1500 -------D 0 1.0 5.0 1 43 74 0 42
r 0.591362 2 6 sctp 1500 -------D 0 2.0 6.0 1 44 75 0 43
+ 0.591362 6 2 sctp 48 -------S 0 6.0 2.0 1 44 97 65535 65535
- 0.591362 6 2 sctp 48 -------S 0 6.0 2.0 1 44 97 65535 65535
r 0.592562 1 5 sctp 1500 -------D 0 1.0 5.0 1 45 76 0 44
r 0.592562 2 6 sctp 1500 -------D 0 2.0 6.0 1 46 77 0 45
+ 0.592562 6 2 sctp 48 -------S 0 6.0 2.0 1 46 98 65535 65535
- 0.592562 6 2 sctp 48 -------S 0 6.0 2.0 1 46 98 65535 65535
r 0.593762 1 5 sctp 1500 -------D 0 1.0 5.0 1 47 78 0 46
r 0.593762 2 6 sctp 1500 -------D 0 2.0 6.0 1 48 79 0 47
+ 0.593762 6 2 sctp 48 -------S 0 6.0 2.0 1 48 99 65535 65535
- 0.593762 6 2 sctp 48 -------S 0 6.0 2.0 1 48 99 65535 65535
r 0.594962 1 5 sctp 1500 -------D 0 1.0 5.0 1 49 80 0 48
r 0.594962 2 6 sctp 1500 -------D 0 2.0 6.0 1 50 81 0 49
+ 0.594962 6 2 sctp 48 -------S 0 6.0 2.0 1 50 100 65535 65535
- 0.594962 6 2 sctp 48 -------S 0 6.0 2.0 1 50 100 65535 65535
r 0.596162 1 5 sctp 1500 -------D 0 1.0 5.0 1 51 82 0 50
r 0.596162 2 6 sctp 1500 -------D 0 2.0 6.0 1 52 83 0 51
+ 0.596162 6 2 sctp 48 -------S 0 6.0 2.0 1 52 101 65535 65535
- 0.596162 6 2 sctp 48 -------S 0 6.0 2.0 1 52 101 65535 65535
r 0.597362 1 5 sctp 1500 -------D 0 1.0 5.0 1 53 84 0 52
r 0.597362 2 6 sctp 1500 -------D 0 2.0 6.0 1 54 85 0 53
+ 0.597362 6 2 sctp 48 -------S 0 6.0 2.0 1 54 102 65535 65535
- 0.597362 6 2 sctp 48 -------S 0 6.0 2.0 1 54 102 65535 65535
r 0.598562 1 5 sctp 1500 -------D 0 1.0 5.0 1 55 86 0 54
r 0.598562 2 6 sctp 1500 -------D 0 2.0 6.0 1 56 87 0 55
+ 0.598562 6 2 sctp 48 -------S 0 6.0 2.0 1 56 103 65535 65535
- 0.598562 6 2 sctp 48 -------S 0 6.0 2.0 1 56 103 65535 65535
r 0.599762 1 5 sctp 1500 -------D 0 1.0 5.0 1 57 88 0 56
r 0.599762 2 6 sctp 1500 -------D 0 2.0 6.0 1 58 89 0 57
+ 0.599762 6 2 sctp 48 -------S 0 6.0 2.0 1 58 104 65535 65535
- 0.599762 6 2 sctp 48 -------S 0 6.0 2.0 1 58 104 65535 65535
r 0.600962 1 5 sctp 1500 -------D 0 1.0 5.0 1 59 90 0 58
r 0.600962 2 6 sctp 1500 -------D 0 2.0 6.0 1 61 92 0 60
+ 0.600962 6 2 sctp 52 -------S 0 6.0 2.0 1 59 105 65535 65535
- 0.600962 6 2 sctp 52 -------S 0 6.0 2.0 1 59 105 65535 65535
r 0.602162 1 5 sctp 1500 -------D 0 1.0 5.0 1 60 91 0 59
r 0.602162 2 6 sctp 1500 -------D 0 2.0 6.0 1 62 93 0 61
+ 0.602162 6 2 sctp 48 -------S 0 6.0 2.0 1 62 106 65535 65535
- 0.602162 6 2 sctp 48 -------S 0 6.0 2.0 1 62 106 65535 65535
r 0.603362 1 5 sctp 1500 -------D 0 1.0 5.0 1 63 94 0 62
r 0.603362 2 6 sctp 1500 -------D 0 2.0 6.0 1 64 95 0 63
+ 0.603362 6 2 sctp 48 -------S 0 6.0 2.0 1 64 107 65535 65535
- 0.603362 6 2 sctp 48 -------S 0 6.0 2.0 1 64 107 65535 65535
r 0.6352 6 2 sctp 48 -------S 0 6.0 2.0 1 42 96 65535 65535
+ 0.6352 1 5 sctp 1500 -------D 0 1.0 5.0 1 65 108 0 64
- 0.6352 1 5 sctp 1500 -------D 0 1.0 5.0 1 65 108 0 64
+ 0.6352 2 6 sctp 1500 -------D 0 2.0 6.0 1 66 109 0 65
- 0.6352 2 6 sctp 1500 -------D 0 2.0 6.0 1 66 109 0 65
r 0.6364 6 2 sctp 48 -------S 0 6.0 2.0 1 44 97 65535 65535
+ 0.6364 1 5 sctp 1500 -------D 0 1.0 5.0 1 67 110 0 66
+ 0.6364 2 6 sctp 1500 -------D 0 2.0 6.0 1 68 111 0 67
- 0.6364 1 5 sctp 1500 -------D 0 1.0 5.0 1 67 110 0 66
- 0.6364 2 6 sctp 1500 -------D 0 2.0 6.0 1 68 111 0 67
r 0.6376 6 2 sctp 48 -------S 0 6.0 2.0 1 46 98 65535 65535
+ 0.6376 1 5 sctp 1500 -------D 0 1.0 5.0 1 69 112 0 68
+ 0.6376 2 6 sctp 1500 -------D 0 2.0 6.0 1 70 113 0 69
- 0.6376 1 5 sctp 1500 -------D 0 1.0 5.0 1 69 112 0 68
- 0.6376 2 6 sctp 1500 -------D 0 2.0 6.0 1 70 113 0 69
r 0.6388 6 2 sctp 48 -------S 0 6.0 2.0 1 48 99 65535 65535
+ 0.6388 1 5 sctp 1500 -------D 0 1.0 5.0 1 71 114 0 70
+ 0.6388 2 6 sctp 1500 -------D 0 2.0 6.0 1 72 115 0 71
- 0.6388 1 5 sctp 1500 -------D 0 1.0 5.0 1 71 114 0 70
- 0.6388 2 6 sctp 1500 -------D 0 2.0 6.0 1 72 115 0 71
r 0.64 6 2 sctp 48 -------S 0 6.0 2.0 1 50 100 65535 65535
+ 0.64 1 5 sctp 1500 -------D 0 1.0 5.0 1 73 116 0 72
+ 0.64 2 6 sctp 1500 -------D 0 2.0 6.0 1 74 117 0 73
- 0.64 1 5 sctp 1500 -------D 0 1.0 5.0 1 73 116 0 72
- 0.64 2 6 sctp 1500 -------D 0 2.0 6.0 1 74 117 0 73
r 0.6412 6 2 sctp 48 -------S 0 6.0 2.0 1 52 101 65535 65535
+ 0.6412 1 5 sctp 1500 -------D 0 1.0 5.0 1 75 118 0 74
+ 0.6412 2 6 sctp 1500 -------D 0 2.0 6.0 1 76 119 0 75
- 0.6412 1 5 sctp 1500 -------D 0 1.0 5.0 1 75 118 0 74
- 0.6412 2 6 sctp 1500 -------D 0 2.0 6.0 1 76 119 0 75
r 0.6424 6 2 sctp 48 -------S 0 6.0 2.0 1 54 102 65535 65535
+ 0.6424 1 5 sctp 1500 -------D 0 1.0 5.0 1 77 120 0 76
+ 0.6424 2 6 sctp 1500 -------D 0 2.0 6.0 1 78 121 0 77
- 0.6424 1 5 sctp 1500 -------D 0 1.0 5.0 1 77 120 0 76
- 0.6424 2 6 sctp 1500 -------D 0 2.0 6.0 1 78 121 0 77
r 0.6436 6 2 sctp 48 -------S 0 6.0 2.0 1 56 103 65535 65535
+ 0.6436 1 5 sctp 1500 -------D 0 1.0 5.0 1 79 122 0 78
+ 0.6436 2 6 sctp 1500 -------D 0 2.0 6.0 1 80 123 0 79
- 0.6436 1 5 sctp 1500 -------D 0 1.0 5.0 1 79 122 0 78
- 0.6436 2 6 sctp 1500 -------D 0 2.0 6.0 1 80 123 0 79
r 0.6448 6 2 sctp 48 -------S 0 6.0 2.0 1 58 104 65535 65535
+ 0.6448 1 5 sctp 1500 -------D 0 1.0 5.0 1 81 124 0 80
+ 0.6448 2 6 sctp 1500 -------D 0 2.0 6.0 1 82 125 0 81
- 0.6448 1 5 sctp 1500 -------D 0 1.0 5.0 1 81 124 0 80
- 0.6448 2 6 sctp 1500 -------D 0 2.0 6.0 1 82 125 0 81
r 0.646003 6 2 sctp 52 -------S 0 6.0 2.0 1 59 105 65535 65535
+ 0.646003 1 5 sctp 1500 -------D 0 1.0 5.0 1 83 126 0 82
- 0.646003 1 5 sctp 1500 -------D 0 1.0 5.0 1 83 126 0 82
+ 0.646003 2 6 sctp 1500 -------D 0 2.0 6.0 1 84 127 0 83
- 0.646003 2 6 sctp 1500 -------D 0 2.0 6.0 1 84 127 0 83
r 0.6472 6 2 sctp 48 -------S 0 6.0 2.0 1 62 106 65535 65535
+ 0.6472 1 5 sctp 1500 -------D 0 1.0 5.0 1 85 128 0 84
+ 0.6472 1 5 sctp 1500 -------D 0 1.0 5.0 1 86 129 0 85
+ 0.6472 2 6 sctp 1500 -------D 0 2.0 6.0 1 87 130 0 86
+ 0.6472 2 6 sctp 1500 -------D 0 2.0 6.0 1 88 131 0 87
- 0.647203 1 5 sctp 1500 -------D 0 1.0 5.0 1 85 128 0 84
- 0.647203 2 6 sctp 1500 -------D 0 2.0 6.0 1 87 130 0 86
r 0.6484 6 2 sctp 48 -------S 0 6.0 2.0 1 64 107 65535 65535
+ 0.6484 1 5 sctp 1500 -------D 0 1.0 5.0 1 89 132 0 88
+ 0.6484 2 6 sctp 1500 -------D 0 2.0 6.0 1 90 133 0 89
- 0.648403 1 5 sctp 1500 -------D 0 1.0 5.0 1 86 129 0 85
- 0.648403 2 6 sctp 1500 -------D 0 2.0 6.0 1 88 131 0 87
- 0.649603 1 5 sctp 1500 -------D 0 1.0 5.0 1 89 132 0 88
- 0.649603 2 6 sctp 1500 -------D 0 2.0 6.0 1 90 133 0 89
r 0.6814 1 5 sctp 1500 -------D 0 1.0 5.0 1 65 108 0 64
r 0.6814 2 6 sctp 1500 -------D 0 2.0 6.0 1 66 109 0 65
+ 0.6814 6 2 sctp 48 -------S 0 6.0 2.0 1 66 134 65535 65535
- 0.6814 6 2 sctp 48 -------S 0 6.0 2.0 1 66 134 65535 65535
r 0.6826 1 5 sctp 1500 -------D 0 1.0 5.0 1 67 110 0 66
r 0.6826 2 6 sctp 1500 -------D 0 2.0 6.0 1 68 111 0 67
+ 0.6826 6 2 sctp 48 -------S 0 6.0 2.0 1 68 135 65535 65535
- 0.6826 6 2 sctp 48 -------S 0 6.0 2.0 1 68 135 65535 65535
r 0.6838 1 5 sctp 1500 -------D 0 1.0 5.0 1 69 112 0 68
r 0.6838 2 6 sctp 1500 -------D 0 2.0 6.0 1 70 113 0 69
+ 0.6838 6 2 sctp 48 -------S 0 6.0 2.0 1 70 136 65535 65535
- 0.6838 6 2 sctp 48 -------S 0 6.0 2.0 1 70 136 65535 65535
r 0.685 1 5 sctp 1500 -------D 0 1.0 5.0 1 71 114 0 70
r 0.685 2 6 sctp 1500 -------D 0 2.0 6.0 1 72 115 0 71
+ 0.685 6 2 sctp 48 -------S 0 6.0 2.0 1 72 137 65535 65535
- 0.685 6 2 sctp 48 -------S 0 6.0 2.0 1 72 137 65535 65535
r 0.6862 1 5 sctp 1500 -------D 0 1.0 5.0 1 73 116 0 72
r 0.6862 2 6 sctp 1500 -------D 0 2.0 6.0 1 74 117 0 73
+ 0.6862 6 2 sctp 48 -------S 0 6.0 2.0 1 74 138 65535 65535
- 0.6862 6 2 sctp 48 -------S 0 6.0 2.0 1 74 138 65535 65535
r 0.6874 1 5 sctp 1500 -------D 0 1.0 5.0 1 75 118 0 74
r 0.6874 2 6 sctp 1500 -------D 0 2.0 6.0 1 76 119 0 75
+ 0.6874 6 2 sctp 48 -------S 0 6.0 2.0 1 76 139 65535 65535
- 0.6874 6 2 sctp 48 -------S 0 6.0 2.0 1 76 139 65535 65535
r 0.6886 1 5 sctp 1500 -------D 0 1.0 5.0 1 77 120 0 76
r 0.6886 2 6 sctp 1500 -------D 0 2.0 6.0 1 78 121 0 77
+ 0.6886 6 2 sctp 48 -------S 0 6.0 2.0 1 78 140 65535 65535
- 0.6886 6 2 sctp 48 -------S 0 6.0 2.0 1 78 140 65535 65535
r 0.6898 1 5 sctp 1500 -------D 0 1.0 5.0 1 79 122 0 78
r 0.6898 2 6 sctp 1500 -------D 0 2.0 6.0 1 80 123 0 79
+ 0.6898 6 2 sctp 48 -------S 0 6.0 2.0 1 80 141 65535 65535
- 0.6898 6 2 sctp 48 -------S 0 6.0 2.0 1 80 141 65535 65535
r 0.691 1 5 sctp 1500 -------D 0 1.0 5.0 1 81 124 0 80
r 0.691 2 6 sctp 1500 -------D 0 2.0 6.0 1 82 125 0 81
+ 0.691 6 2 sctp 48 -------S 0 6.0 2.0 1 82 142 65535 65535
- 0.691 6 2 sctp 48 -------S 0 6.0 2.0 1 82 142 65535 65535
r 0.692203 1 5 sctp 1500 -------D 0 1.0 5.0 1 83 126 0 82
r 0.692203 2 6 sctp 1500 -------D 0 2.0 6.0 1 84 127 0 83
+ 0.692203 6 2 sctp 48 -------S 0 6.0 2.0 1 84 143 65535 65535
- 0.692203 6 2 sctp 48 -------S 0 6.0 2.0 1 84 143 65535 65535
r 0.693403 1 5 sctp 1500 -------D 0 1.0 5.0 1 85 128 0 84
r 0.693403 2 6 sctp 1500 -------D 0 2.0 6.0 1 87 130 0 86
+ 0.693403 6 2 sctp 52 -------S 0 6.0 2.0 1 85 144 65535 65535
- 0.693403 6 2 sctp 52 -------S 0 6.0 2.0 1 85 144 65535 65535
r 0.694603 1 5 sctp 1500 -------D 0 1.0 5.0 1 86 129 0 85
r 0.694603 2 6 sctp 1500 -------D 0 2.0 6.0 1 88 131 0 87
+ 0.694603 6 2 sctp 48 -------S 0 6.0 2.0 1 88 145 65535 65535
- 0.694603 6 2 sctp 48 -------S 0 6.0 2.0 1 88 145 65535 65535
r 0.695803 1 5 sctp 1500 -------D 0 1.0 5.0 1 89 132 0 88
r 0.695803 2 6 sctp 1500 -------D 0 2.0 6.0 1 90 133 0 89
+ 0.695803 6 2 sctp 48 -------S 0 6.0 2.0 1 90 146 65535 65535
- 0.695803 6 2 sctp 48 -------S 0 6.0 2.0 1 90 146 65535 65535
r 0.726438 6 2 sctp 48 -------S 0 6.0 2.0 1 66 134 65535 65535
+ 0.726438 1 5 sctp 1500 -------D 0 1.0 5.0 1 91 147 0 90
- 0.726438 1 5 sctp 1500 -------D 0 1.0 5.0 1 91 147 0 90
+ 0.726438 2 6 sctp 1500 -------D 0 2.0 6.0 1 92 148 0 91
- 0.726438 2 6 sctp 1500 -------D 0 2.0 6.0 1 92 148 0 91
r 0.727638 6 2 sctp 48 -------S 0 6.0 2.0 1 68 135 65535 65535
+ 0.727638 1 5 sctp 1500 -------D 0 1.0 5.0 1 93 149 0 92
+ 0.727638 2 6 sctp 1500 -------D 0 2.0 6.0 1 94 150 0 93
- 0.727638 1 5 sctp 1500 -------D 0 1.0 5.0 1 93 149 0 92
- 0.727638 2 6 sctp 1500 -------D 0 2.0 6.0 1 94 150 0 93
r 0.728838 6 2 sctp 48 -------S 0 6.0 2.0 1 70 136 65535 65535
+ 0.728838 1 5 sctp 1500 -------D 0 1.0 5.0 1 95 151 0 94
+ 0.728838 2 6 sctp 1500 -------D 0 2.0 6.0 1 96 152 0 95
- 0.728838 1 5 sctp 1500 -------D 0 1.0 5.0 1 95 151 0 94
- 0.728838 2 6 sctp 1500 -------D 0 2.0 6.0 1 96 152 0 95
r 0.730038 6 2 sctp 48 -------S 0 6.0 2.0 1 72 137 65535 65535
+ 0.730038 1 5 sctp 1500 -------D 0 1.0 5.0 1 97 153 0 96
+ 0.730038 2 6 sctp 1500 -------D 0 2.0 6.0 1 98 154 0 97
- 0.730038 1 5 sctp 1500 -------D 0 1.0 5.0 1 97 153 0 96
- 0.730038 2 6 sctp 1500 -------D 0 2.0 6.0 1 98 154 0 97
r 0.731238 6 2 sctp 48 -------S 0 6.0 2.0 1 74 138 65535 65535
+ 0.731238 1 5 sctp 1500 -------D 0 1.0 5.0 1 99 155 0 98
+ 0.731238 2 6 sctp 1500 -------D 0 2.0 6.0 1 100 156 0 99
- 0.731238 1 5 sctp 1500 -------D 0 1.0 5.0 1 99 155 0 98
- 0.731238 2 6 sctp 1500 -------D 0 2.0 6.0 1 100 156 0 99
r 0.732438 6 2 sctp 48 -------S 0 6.0 2.0 1 76 139 65535 65535
+ 0.732438 1 5 sctp 1500 -------D 0 1.0 5.0 1 101 157 0 100
+ 0.732438 2 6 sctp 1500 -------D 0 2.0 6.0 1 102 158 0 101
- 0.732438 1 5 sctp 1500 -------D 0 1.0 5.0 1 101 157 0 100
- 0.732438 2 6 sctp 1500 -------D 0 2.0 6.0 1 102 158 0 101
r 0.733638 6 2 sctp 48 -------S 0 6.0 2.0 1 78 140 65535 65535
+ 0.733638 1 5 sctp 1500 -------D 0 1.0 5.0 1 103 159 0 102
+ 0.733638 2 6 sctp 1500 -------D 0 2.0 6.0 1 104 160 0 103
- 0.733638 1 5 sctp 1500 -------D 0 1.0 5.0 1 103 159 0 102
- 0.733638 2 6 sctp 1500 -------D 0 2.0 6.0 1 104 160 0 103
r 0.734838 6 2 sctp 48 -------S 0 6.0 2.0 1 80 141 65535 65535
+ 0.734838 1 5 sctp 1500 -------D 0 1.0 5.0 1 105 161 0 104
+ 0.734838 2 6 sctp 1500 -------D 0 2.0 6.0 1 106 162 0 105
- 0.734838 1 5 sctp 1500 -------D 0 1.0 5.0 1 105 161 0 104
- 0.734838 2 6 sctp 1500 -------D 0 2.0 6.0 1 106 162 0 105
r 0.736038 6 2 sctp 48 -------S 0 6.0 2.0 1 82 142 65535 65535
+ 0.736038 1 5 sctp 1500 -------D 0 1.0 5.0 1 107 163 0 106
+ 0.736038 2 6 sctp 1500 -------D 0 2.0 6.0 1 108 164 0 107
- 0.736038 1 5 sctp 1500 -------D 0 1.0 5.0 1 107 163 0 106
- 0.736038 2 6 sctp 1500 -------D 0 2.0 6.0 1 108 164 0 107
r 0.737242 6 2 sctp 48 -------S 0 6.0 2.0 1 84 143 65535 65535
+ 0.737242 1 5 sctp 1500 -------D 0 1.0 5.0 1 109 165 0 108
- 0.737242 1 5 sctp 1500 -------D 0 1.0 5.0 1 109 165 0 108
+ 0.737242 2 6 sctp 1500 -------D 0 2.0 6.0 1 110 166 0 109
- 0.737242 2 6 sctp 1500 -------D 0 2.0 6.0 1 110 166 0 109
r 0.738445 6 2 sctp 52 -------S 0 6.0 2.0 1 85 144 65535 65535
+ 0.738445 1 5 sctp 1500 -------D 0 1.0 5.0 1 111 167 0 110
- 0.738445 1 5 sctp 1500 -------D 0 1.0 5.0 1 111 167 0 110
+ 0.738445 2 6 sctp 1500 -------D 0 2.0 6.0 1 112 168 0 111
- 0.738445 2 6 sctp 1500 -------D 0 2.0 6.0 1 112 168 0 111
r 0.739642 6 2 sctp 48 -------S 0 6.0 2.0 1 88 145 65535 65535
+ 0.739642 1 5 sctp 1500 -------D 0 1.0 5.0 1 113 169 0 112
+ 0.739642 1 5 sctp 1500 -------D 0 1.0 5.0 1 114 170 0 113
+ 0.739642 2 6 sctp 1500 -------D 0 2.0 6.0 1 115 171 0 114
+ 0.739642 2 6 sctp 1500 -------D 0 2.0 6.0 1 116 172 0 115
- 0.739645 1 5 sctp 1500 -------D 0 1.0 5.0 1 113 169 0 112
- 0.739645 2 6 sctp 1500 -------D 0 2.0 6.0 1 115 171 0 114
r 0.740842 6 2 sctp 48 -------S 0 6.0 2.0 1 90 146 65535 65535
+ 0.740842 1 5 sctp 1500 -------D 0 1.0 5.0 1 117 173 0 116
+ 0.740842 2 6 sctp 1500 -------D 0 2.0 6.0 1 118 174 0 117
- 0.740845 1 5 sctp 1500 -------D 0 1.0 5.0 1 114 170 0 113
- 0.740845 2 6 sctp 1500 -------D 0 2.0 6.0 1 116 172 0 115
- 0.742045 1 5 sctp 1500 -------D 0 1.0 5.0 1 117 173 0 116
- 0.742045 2 6 sctp 1500 -------D 0 2.0 6.0 1 118 174 0 117
r 0.772638 1 5 sctp 1500 -------D 0 1.0 5.0 1 91 147 0 90
r 0.772638 2 6 sctp 1500 -------D 0 2.0 6.0 1 92 148 0 91
+ 0.772638 6 2 sctp 48 -------S 0 6.0 2.0 1 92 175 65535 65535
- 0.772638 6 2 sctp 48 -------S 0 6.0 2.0 1 92 175 65535 65535
r 0.773838 1 5 sctp 1500 -------D 0 1.0 5.0 1 93 149 0 92
r 0.773838 2 6 sctp 1500 -------D 0 2.0 6.0 1 94 150 0 93
+ 0.773838 6 2 sctp 48 -------S 0 6.0 2.0 1 94 176 65535 65535
- 0.773838 6 2 sctp 48 -------S 0 6.0 2.0 1 94 176 65535 65535
r 0.775038 1 5 sctp 1500 -------D 0 1.0 5.0 1 95 151 0 94
r 0.775038 2 6 sctp 1500 -------D 0 2.0 6.0 1 96 152 0 95
+ 0.775038 6 2 sctp 48 -------S 0 6.0 2.0 1 96 177 65535 65535
- 0.775038 6 2 sctp 48 -------S 0 6.0 2.0 1 96 177 65535 65535
r 0.776238 1 5 sctp 1500 -------D 0 1.0 5.0 1 97 153 0 96
r 0.776238 2 6 sctp 1500 -------D 0 2.0 6.0 1 98 154 0 97
+ 0.776238 6 2 sctp 48 -------S 0 6.0 2.0 1 98 178 65535 65535
- 0.776238 6 2 sctp 48 -------S 0 6.0 2.0 1 98 178 65535 65535
r 0.777438 1 5 sctp 1500 -------D 0 1.0 5.0 1 99 155 0 98
r 0.777438 2 6 sctp 1500 -------D 0 2.0 6.0 1 100 156 0 99
+ 0.777438 6 2 sctp 48 -------S 0 6.0 2.0 1 100 179 65535 65535
- 0.777438 6 2 sctp 48 -------S 0 6.0 2.0 1 100 179 65535 65535
r 0.778638 1 5 sctp 1500 -------D 0 1.0 5.0 1 101 157 0 100
r 0.778638 2 6 sctp 1500 -------D 0 2.0 6.0 1 102 158 0 101
+ 0.778638 6 2 sctp 48 -------S 0 6.0 2.0 1 102 180 65535 65535
- 0.778638 6 2 sctp 48 -------S 0 6.0 2.0 1 102 180 65535 65535
r 0.779838 1 5 sctp 1500 -------D 0 1.0 5.0 1 103 159 0 102
r 0.779838 2 6 sctp 1500 -------D 0 2.0 6.0 1 104 160 0 103
+ 0.779838 6 2 sctp 48 -------S 0 6.0 2.0 1 104 181 65535 65535