+ 0.5 1 4 sctp 56 -------I 0 1.0 4.0 1 -1 4 65535 65535
- 0.5 1 4 sctp 56 -------I 0 1.0 4.0 1 -1 4 65535 65535
r 0.700896 1 4 sctp 56 -------I 0 1.0 4.0 1 -1 4 65535 65535
+ 0.700896 4 1 sctp 56 -------I 0 4.0 1.0 1 -1 5 65535 65535
- 0.700896 4 1 sctp 56 -------I 0 4.0 1.0 1 -1 5 65535 65535
r 0.901792 4 1 sctp 56 -------I 0 4.0 1.0 1 -1 5 65535 65535
+ 0.901792 1 4 sctp 36 -------I 0 1.0 4.0 1 -1 6 65535 65535
- 0.901792 1 4 sctp 36 -------I 0 1.0 4.0 1 -1 6 65535 65535
r 1.102368 1 4 sctp 36 -------I 0 1.0 4.0 1 -1 6 65535 65535
+ 1.102368 4 1 sctp 36 -------I 0 4.0 1.0 1 -1 7 65535 65535
- 1.102368 4 1 sctp 36 -------I 0 4.0 1.0 1 -1 7 65535 65535
r 1.302944 4 1 sctp 36 -------I 0 4.0 1.0 1 -1 7 65535 65535
+ 1.302944 1 4 sctp 56 -------H 0 1.0 4.0 1 -1 8 65535 65535
- 1.302944 1 4 sctp 56 -------H 0 1.0 4.0 1 -1 8 65535 65535
+ 1.302944 2 5 sctp 56 -------H 0 2.0 5.0 1 -1 9 65535 65535
- 1.302944 2 5 sctp 56 -------H 0 2.0 5.0 1 -1 9 65535 65535
r 1.50384 1 4 sctp 56 -------H 0 1.0 4.0 1 -1 8 65535 65535
+ 1.50384 4 1 sctp 56 -------B 0 4.0 1.0 1 -1 10 65535 65535
- 1.50384 4 1 sctp 56 -------B 0 4.0 1.0 1 -1 10 65535 65535
r 1.50384 2 5 sctp 56 -------H 0 2.0 5.0 1 -1 9 65535 65535
+ 1.50384 5 2 sctp 56 -------B 0 5.0 2.0 1 -1 11 65535 65535
- 1.50384 5 2 sctp 56 -------B 0 5.0 2.0 1 -1 11 65535 65535
r 1.704736 4 1 sctp 56 -------B 0 4.0 1.0 1 -1 10 65535 65535
r 1.704736 5 2 sctp 56 -------B 0 5.0 2.0 1 -1 11 65535 65535
+ 1.704736 1 4 sctp 1500 -------D 0 1.0 4.0 1 1 12 0 0
- 1.704736 1 4 sctp 1500 -------D 0 1.0 4.0 1 1 12 0 0
+ 1.704736 1 4 sctp 1500 -------D 0 1.0 4.0 1 2 13 0 1
+ 1.704736 1 4 sctp 1500 -------D 0 1.0 4.0 1 3 14 0 2
+ 1.704736 1 4 sctp 1500 -------D 0 1.0 4.0 1 4 15 0 3
- 1.728736 1 4 sctp 1500 -------D 0 1.0 4.0 1 2 13 0 1
- 1.752736 1 4 sctp 1500 -------D 0 1.0 4.0 1 3 14 0 2
- 1.776736 1 4 sctp 1500 -------D 0 1.0 4.0 1 4 15 0 3
r 1.928736 1 4 sctp 1500 -------D 0 1.0 4.0 1 1 12 0 0
+ 1.928736 4 1 sctp 60 -------S 0 4.0 1.0 1 1 16 65535 65535
- 1.928736 4 1 sctp 60 -------S 0 4.0 1.0 1 1 16 65535 65535
r 1.952736 1 4 sctp 1500 -------D 0 1.0 4.0 1 2 13 0 1
r 1.976736 1 4 sctp 1500 -------D 0 1.0 4.0 1 3 14 0 2
+ 1.976736 4 1 sctp 60 -------S 0 4.0 1.0 1 3 17 65535 65535
- 1.976736 4 1 sctp 60 -------S 0 4.0 1.0 1 3 17 65535 65535
r 2.000736 1 4 sctp 1500 -------D 0 1.0 4.0 1 4 15 0 3
r 2.129696 4 1 sctp 60 -------S 0 4.0 1.0 1 1 16 65535 65535
+ 2.129696 1 4 sctp 1500 -------D 0 1.0 4.0 1 5 18 0 4
- 2.129696 1 4 sctp 1500 -------D 0 1.0 4.0 1 5 18 0 4
+ 2.129696 1 4 sctp 1500 -------D 0 1.0 4.0 1 6 19 0 5
- 2.153696 1 4 sctp 1500 -------D 0 1.0 4.0 1 6 19 0 5
r 2.177696 4 1 sctp 60 -------S 0 4.0 1.0 1 3 17 65535 65535
+ 2.177696 1 4 sctp 1500 -------D 0 1.0 4.0 1 7 20 0 6
+ 2.177696 1 4 sctp 1500 -------D 0 1.0 4.0 1 8 21 0 7
+ 2.177696 1 4 sctp 1500 -------D 0 1.0 4.0 1 9 22 0 8
- 2.177696 1 4 sctp 1500 -------D 0 1.0 4.0 1 7 20 0 6
+ 2.200736 4 1 sctp 60 -------S 0 4.0 1.0 1 4 23 65535 65535
- 2.200736 4 1 sctp 60 -------S 0 4.0 1.0 1 4 23 65535 65535
- 2.201696 1 4 sctp 1500 -------D 0 1.0 4.0 1 8 21 0 7
- 2.225696 1 4 sctp 1500 -------D 0 1.0 4.0 1 9 22 0 8
r 2.353696 1 4 sctp 1500 -------D 0 1.0 4.0 1 5 18 0 4
r 2.377696 1 4 sctp 1500 -------D 0 1.0 4.0 1 6 19 0 5
+ 2.377696 4 1 sctp 60 -------S 0 4.0 1.0 1 6 24 65535 65535
- 2.377696 4 1 sctp 60 -------S 0 4.0 1.0 1 6 24 65535 65535
r 2.401696 1 4 sctp 1500 -------D 0 1.0 4.0 1 7 20 0 6
r 2.401696 4 1 sctp 60 -------S 0 4.0 1.0 1 4 23 65535 65535
+ 2.401696 1 4 sctp 1500 -------D 0 1.0 4.0 1 10 25 0 9
- 2.401696 1 4 sctp 1500 -------D 0 1.0 4.0 1 10 25 0 9
+ 2.401696 1 4 sctp 1500 -------D 0 1.0 4.0 1 11 26 0 10
r 2.425696 1 4 sctp 1500 -------D 0 1.0 4.0 1 8 21 0 7
+ 2.425696 4 1 sctp 60 -------S 0 4.0 1.0 1 8 27 65535 65535
- 2.425696 4 1 sctp 60 -------S 0 4.0 1.0 1 8 27 65535 65535
- 2.425696 1 4 sctp 1500 -------D 0 1.0 4.0 1 11 26 0 10
r 2.449696 1 4 sctp 1500 -------D 0 1.0 4.0 1 9 22 0 8
r 2.578656 4 1 sctp 60 -------S 0 4.0 1.0 1 6 24 65535 65535
+ 2.578656 1 4 sctp 1500 -------D 0 1.0 4.0 1 12 28 0 11
- 2.578656 1 4 sctp 1500 -------D 0 1.0 4.0 1 12 28 0 11
+ 2.578656 1 4 sctp 1500 -------D 0 1.0 4.0 1 13 29 0 12
d 2.578656 1 4 sctp 1500 -------D 0 1.0 4.0 1 14 30 0 13
- 2.602656 1 4 sctp 1500 -------D 0 1.0 4.0 1 13 29 0 12
r 2.625696 1 4 sctp 1500 -------D 0 1.0 4.0 1 10 25 0 9
+ 2.625696 4 1 sctp 60 -------S 0 4.0 1.0 1 10 31 65535 65535
- 2.625696 4 1 sctp 60 -------S 0 4.0 1.0 1 10 31 65535 65535
r 2.626656 4 1 sctp 60 -------S 0 4.0 1.0 1 8 27 65535 65535
+ 2.626656 1 4 sctp 1500 -------D 0 1.0 4.0 1 15 32 0 14
+ 2.626656 1 4 sctp 1500 -------D 0 1.0 4.0 1 16 33 0 15
+ 2.626656 1 4 sctp 1500 -------D 0 1.0 4.0 1 17 34 0 16
- 2.626656 1 4 sctp 1500 -------D 0 1.0 4.0 1 15 32 0 14
r 2.649696 1 4 sctp 1500 -------D 0 1.0 4.0 1 11 26 0 10
- 2.650656 1 4 sctp 1500 -------D 0 1.0 4.0 1 16 33 0 15
- 2.674656 1 4 sctp 1500 -------D 0 1.0 4.0 1 17 34 0 16
r 2.802656 1 4 sctp 1500 -------D 0 1.0 4.0 1 12 28 0 11
+ 2.802656 4 1 sctp 60 -------S 0 4.0 1.0 1 12 35 65535 65535
- 2.802656 4 1 sctp 60 -------S 0 4.0 1.0 1 12 35 65535 65535
r 2.826656 1 4 sctp 1500 -------D 0 1.0 4.0 1 13 29 0 12
r 2.826656 4 1 sctp 60 -------S 0 4.0 1.0 1 10 31 65535 65535
+ 2.826656 1 4 sctp 1500 -------D 0 1.0 4.0 1 18 36 0 17
- 2.826656 1 4 sctp 1500 -------D 0 1.0 4.0 1 18 36 0 17
+ 2.826656 1 4 sctp 1500 -------D 0 1.0 4.0 1 19 37 0 18
+ 2.826656 1 4 sctp 1500 -------D 0 1.0 4.0 1 20 38 0 19
r 2.850656 1 4 sctp 1500 -------D 0 1.0 4.0 1 15 32 0 14
+ 2.850656 4 1 sctp 64 -------S 0 4.0 1.0 1 13 39 65535 65535
- 2.850656 4 1 sctp 64 -------S 0 4.0 1.0 1 13 39 65535 65535
- 2.850656 1 4 sctp 1500 -------D 0 1.0 4.0 1 19 37 0 18
r 2.874656 1 4 sctp 1500 -------D 0 1.0 4.0 1 16 33 0 15
+ 2.874656 4 1 sctp 64 -------S 0 4.0 1.0 1 13 40 65535 65535
- 2.874656 4 1 sctp 64 -------S 0 4.0 1.0 1 13 40 65535 65535
- 2.874656 1 4 sctp 1500 -------D 0 1.0 4.0 1 20 38 0 19
r 2.898656 1 4 sctp 1500 -------D 0 1.0 4.0 1 17 34 0 16
+ 2.898656 4 1 sctp 64 -------S 0 4.0 1.0 1 13 41 65535 65535
- 2.898656 4 1 sctp 64 -------S 0 4.0 1.0 1 13 41 65535 65535
r 3.003616 4 1 sctp 60 -------S 0 4.0 1.0 1 12 35 65535 65535
+ 3.003616 1 4 sctp 1500 -------D 0 1.0 4.0 1 21 42 0 20
- 3.003616 1 4 sctp 1500 -------D 0 1.0 4.0 1 21 42 0 20
+ 3.003616 1 4 sctp 1500 -------D 0 1.0 4.0 1 22 43 0 21
+ 3.003616 1 4 sctp 1500 -------D 0 1.0 4.0 1 23 44 0 22
- 3.027616 1 4 sctp 1500 -------D 0 1.0 4.0 1 22 43 0 21
r 3.050656 1 4 sctp 1500 -------D 0 1.0 4.0 1 18 36 0 17
+ 3.050656 4 1 sctp 64 -------S 0 4.0 1.0 1 13 45 65535 65535
- 3.050656 4 1 sctp 64 -------S 0 4.0 1.0 1 13 45 65535 65535
- 3.051616 1 4 sctp 1500 -------D 0 1.0 4.0 1 23 44 0 22
r 3.05168 4 1 sctp 64 -------S 0 4.0 1.0 1 13 39 65535 65535
+ 3.05168 1 4 sctp 1500 -------D 0 1.0 4.0 1 24 46 0 23
+ 3.05168 1 4 sctp 1500 -------D 0 1.0 4.0 1 25 47 0 24
+ 3.05168 1 4 sctp 1500 -------D 0 1.0 4.0 1 26 48 0 25
r 3.074656 1 4 sctp 1500 -------D 0 1.0 4.0 1 19 37 0 18
+ 3.074656 4 1 sctp 64 -------S 0 4.0 1.0 1 13 49 65535 65535
- 3.074656 4 1 sctp 64 -------S 0 4.0 1.0 1 13 49 65535 65535
- 3.075616 1 4 sctp 1500 -------D 0 1.0 4.0 1 24 46 0 23
r 3.07568 4 1 sctp 64 -------S 0 4.0 1.0 1 13 40 65535 65535
+ 3.07568 1 4 sctp 1500 -------D 0 1.0 4.0 1 27 50 0 26
r 3.098656 1 4 sctp 1500 -------D 0 1.0 4.0 1 20 38 0 19
+ 3.098656 4 1 sctp 64 -------S 0 4.0 1.0 1 13 51 65535 65535
- 3.098656 4 1 sctp 64 -------S 0 4.0 1.0 1 13 51 65535 65535
- 3.099616 1 4 sctp 1500 -------D 0 1.0 4.0 1 25 47 0 24
r 3.09968 4 1 sctp 64 -------S 0 4.0 1.0 1 13 41 65535 65535
d 3.09968 2 5 sctp 1500 -------D 0 2.0 5.0 1 14 52 0 13
- 3.123616 1 4 sctp 1500 -------D 0 1.0 4.0 1 26 48 0 25
- 3.147616 1 4 sctp 1500 -------D 0 1.0 4.0 1 27 50 0 26
r 3.227616 1 4 sctp 1500 -------D 0 1.0 4.0 1 21 42 0 20
+ 3.227616 4 1 sctp 64 -------S 0 4.0 1.0 1 13 53 65535 65535
- 3.227616 4 1 sctp 64 -------S 0 4.0 1.0 1 13 53 65535 65535
r 3.251616 1 4 sctp 1500 -------D 0 1.0 4.0 1 22 43 0 21
+ 3.251616 4 1 sctp 64 -------S 0 4.0 1.0 1 13 54 65535 65535
- 3.251616 4 1 sctp 64 -------S 0 4.0 1.0 1 13 54 65535 65535
r 3.25168 4 1 sctp 64 -------S 0 4.0 1.0 1 13 45 65535 65535
r 3.275616 1 4 sctp 1500 -------D 0 1.0 4.0 1 23 44 0 22
+ 3.275616 4 1 sctp 64 -------S 0 4.0 1.0 1 13 55 65535 65535
- 3.275616 4 1 sctp 64 -------S 0 4.0 1.0 1 13 55 65535 65535
r 3.27568 4 1 sctp 64 -------S 0 4.0 1.0 1 13 49 65535 65535
r 3.299616 1 4 sctp 1500 -------D 0 1.0 4.0 1 24 46 0 23
+ 3.299616 4 1 sctp 64 -------S 0 4.0 1.0 1 13 56 65535 65535
- 3.299616 4 1 sctp 64 -------S 0 4.0 1.0 1 13 56 65535 65535
r 3.29968 4 1 sctp 64 -------S 0 4.0 1.0 1 13 51 65535 65535
r 3.323616 1 4 sctp 1500 -------D 0 1.0 4.0 1 25 47 0 24
+ 3.323616 4 1 sctp 64 -------S 0 4.0 1.0 1 13 57 65535 65535
- 3.323616 4 1 sctp 64 -------S 0 4.0 1.0 1 13 57 65535 65535
r 3.347616 1 4 sctp 1500 -------D 0 1.0 4.0 1 26 48 0 25
+ 3.347616 4 1 sctp 64 -------S 0 4.0 1.0 1 13 58 65535 65535
- 3.347616 4 1 sctp 64 -------S 0 4.0 1.0 1 13 58 65535 65535
r 3.371616 1 4 sctp 1500 -------D 0 1.0 4.0 1 27 50 0 26
+ 3.371616 4 1 sctp 64 -------S 0 4.0 1.0 1 13 59 65535 65535
- 3.371616 4 1 sctp 64 -------S 0 4.0 1.0 1 13 59 65535 65535
r 3.42864 4 1 sctp 64 -------S 0 4.0 1.0 1 13 53 65535 65535
r 3.45264 4 1 sctp 64 -------S 0 4.0 1.0 1 13 54 65535 65535
+ 3.45264 1 4 sctp 1500 -------D 0 1.0 4.0 1 28 60 0 27
- 3.45264 1 4 sctp 1500 -------D 0 1.0 4.0 1 28 60 0 27
r 3.47664 4 1 sctp 64 -------S 0 4.0 1.0 1 13 55 65535 65535
+ 3.47664 1 4 sctp 1500 -------D 0 1.0 4.0 1 29 61 0 28
- 3.47664 1 4 sctp 1500 -------D 0 1.0 4.0 1 29 61 0 28
r 3.50064 4 1 sctp 64 -------S 0 4.0 1.0 1 13 56 65535 65535
+ 3.50064 1 4 sctp 1500 -------D 0 1.0 4.0 1 30 62 0 29
- 3.50064 1 4 sctp 1500 -------D 0 1.0 4.0 1 30 62 0 29
r 3.52464 4 1 sctp 64 -------S 0 4.0 1.0 1 13 57 65535 65535
+ 3.52464 1 4 sctp 1500 -------D 0 1.0 4.0 1 31 63 0 30
- 3.52464 1 4 sctp 1500 -------D 0 1.0 4.0 1 31 63 0 30
r 3.54864 4 1 sctp 64 -------S 0 4.0 1.0 1 13 58 65535 65535
+ 3.54864 1 4 sctp 1500 -------D 0 1.0 4.0 1 32 64 0 31
- 3.54864 1 4 sctp 1500 -------D 0 1.0 4.0 1 32 64 0 31
r 3.57264 4 1 sctp 64 -------S 0 4.0 1.0 1 13 59 65535 65535
+ 3.57264 1 4 sctp 1500 -------D 0 1.0 4.0 1 33 65 0 32
- 3.57264 1 4 sctp 1500 -------D 0 1.0 4.0 1 33 65 0 32
r 3.67664 1 4 sctp 1500 -------D 0 1.0 4.0 1 28 60 0 27
+ 3.67664 4 1 sctp 64 -------S 0 4.0 1.0 1 13 66 65535 65535
- 3.67664 4 1 sctp 64 -------S 0 4.0 1.0 1 13 66 65535 65535
r 3.70064 1 4 sctp 1500 -------D 0 1.0 4.0 1 29 61 0 28
+ 3.70064 4 1 sctp 64 -------S 0 4.0 1.0 1 13 67 65535 65535
- 3.70064 4 1 sctp 64 -------S 0 4.0 1.0 1 13 67 65535 65535
r 3.72464 1 4 sctp 1500 -------D 0 1.0 4.0 1 30 62 0 29
+ 3.72464 4 1 sctp 64 -------S 0 4.0 1.0 1 13 68 65535 65535
- 3.72464 4 1 sctp 64 -------S 0 4.0 1.0 1 13 68 65535 65535
r 3.74864 1 4 sctp 1500 -------D 0 1.0 4.0 1 31 63 0 30
+ 3.74864 4 1 sctp 64 -------S 0 4.0 1.0 1 13 69 65535 65535
- 3.74864 4 1 sctp 64 -------S 0 4.0 1.0 1 13 69 65535 65535
r 3.77264 1 4 sctp 1500 -------D 0 1.0 4.0 1 32 64 0 31
+ 3.77264 4 1 sctp 64 -------S 0 4.0 1.0 1 13 70 65535 65535
- 3.77264 4 1 sctp 64 -------S 0 4.0 1.0 1 13 70 65535 65535
r 3.79664 1 4 sctp 1500 -------D 0 1.0 4.0 1 33 65 0 32
+ 3.79664 4 1 sctp 64 -------S 0 4.0 1.0 1 13 71 65535 65535
- 3.79664 4 1 sctp 64 -------S 0 4.0 1.0 1 13 71 65535 65535
r 3.877664 4 1 sctp 64 -------S 0 4.0 1.0 1 13 66 65535 65535
+ 3.877664 1 4 sctp 1500 -------D 0 1.0 4.0 1 34 72 0 33
- 3.877664 1 4 sctp 1500 -------D 0 1.0 4.0 1 34 72 0 33
r 3.901664 4 1 sctp 64 -------S 0 4.0 1.0 1 13 67 65535 65535
+ 3.901664 1 4 sctp 1500 -------D 0 1.0 4.0 1 35 73 0 34
- 3.901664 1 4 sctp 1500 -------D 0 1.0 4.0 1 35 73 0 34
r 3.925664 4 1 sctp 64 -------S 0 4.0 1.0 1 13 68 65535 65535
+ 3.925664 1 4 sctp 1500 -------D 0 1.0 4.0 1 36 74 0 35
- 3.925664 1 4 sctp 1500 -------D 0 1.0 4.0 1 36 74 0 35
r 3.949664 4 1 sctp 64 -------S 0 4.0 1.0 1 13 69 65535 65535
+ 3.949664 1 4 sctp 1500 -------D 0 1.0 4.0 1 37 75 0 36
- 3.949664 1 4 sctp 1500 -------D 0 1.0 4.0 1 37 75 0 36
r 3.973664 4 1 sctp 64 -------S 0 4.0 1.0 1 13 70 65535 65535
+ 3.973664 1 4 sctp 1500 -------D 0 1.0 4.0 1 38 76 0 37
- 3.973664 1 4 sctp 1500 -------D 0 1.0 4.0 1 38 76 0 37
r 3.997664 4 1 sctp 64 -------S 0 4.0 1.0 1 13 71 65535 65535
+ 3.997664 1 4 sctp 1500 -------D 0 1.0 4.0 1 39 77 0 38
- 3.997664 1 4 sctp 1500 -------D 0 1.0 4.0 1 39 77 0 38
r 4.101664 1 4 sctp 1500 -------D 0 1.0 4.0 1 34 72 0 33
+ 4.101664 4 1 sctp 64 -------S 0 4.0 1.0 1 13 78 65535 65535
- 4.101664 4 1 sctp 64 -------S 0 4.0 1.0 1 13 78 65535 65535
r 4.125664 1 4 sctp 1500 -------D 0 1.0 4.0 1 35 73 0 34
+ 4.125664 4 1 sctp 64 -------S 0 4.0 1.0 1 13 79 65535 65535
- 4.125664 4 1 sctp 64 -------S 0 4.0 1.0 1 13 79 65535 65535
r 4.149664 1 4 sctp 1500 -------D 0 1.0 4.0 1 36 74 0 35
+ 4.149664 4 1 sctp 64 -------S 0 4.0 1.0 1 13 80 65535 65535
- 4.149664 4 1 sctp 64 -------S 0 4.0 1.0 1 13 80 65535 65535
r 4.173664 1 4 sctp 1500 -------D 0 1.0 4.0 1 37 75 0 36
+ 4.173664 4 1 sctp 64 -------S 0 4.0 1.0 1 13 81 65535 65535
- 4.173664 4 1 sctp 64 -------S 0 4.0 1.0 1 13 81 65535 65535
r 4.197664 1 4 sctp 1500 -------D 0 1.0 4.0 1 38 76 0 37
+ 4.197664 4 1 sctp 64 -------S 0 4.0 1.0 1 13 82 65535 65535
- 4.197664 4 1 sctp 64 -------S 0 4.0 1.0 1 13 82 65535 65535
r 4.221664 1 4 sctp 1500 -------D 0 1.0 4.0 1 39 77 0 38
+ 4.221664 4 1 sctp 64 -------S 0 4.0 1.0 1 13 83 65535 65535
- 4.221664 4 1 sctp 64 -------S 0 4.0 1.0 1 13 83 65535 65535
r 4.302688 4 1 sctp 64 -------S 0 4.0 1.0 1 13 78 65535 65535
+ 4.302688 1 4 sctp 1500 -------D 0 1.0 4.0 1 40 84 0 39
- 4.302688 1 4 sctp 1500 -------D 0 1.0 4.0 1 40 84 0 39
+ 4.305056 1 4 sctp 1500 -------D 0 1.0 4.0 1 14 85 0 13
r 4.326688 4 1 sctp 64 -------S 0 4.0 1.0 1 13 79 65535 65535
- 4.326688 1 4 sctp 1500 -------D 0 1.0 4.0 1 14 85 0 13
r 4.350688 4 1 sctp 64 -------S 0 4.0 1.0 1 13 80 65535 65535
+ 4.350688 1 4 sctp 1500 -------D 0 1.0 4.0 1 41 86 0 40
- 4.350688 1 4 sctp 1500 -------D 0 1.0 4.0 1 41 86 0 40
r 4.374688 4 1 sctp 64 -------S 0 4.0 1.0 1 13 81 65535 65535
+ 4.374688 1 4 sctp 1500 -------D 0 1.0 4.0 1 42 87 0 41
- 4.374688 1 4 sctp 1500 -------D 0 1.0 4.0 1 42 87 0 41
r 4.398688 4 1 sctp 64 -------S 0 4.0 1.0 1 13 82 65535 65535
+ 4.398688 1 4 sctp 1500 -------D 0 1.0 4.0 1 43 88 0 42
- 4.398688 1 4 sctp 1500 -------D 0 1.0 4.0 1 43 88 0 42
r 4.422688 4 1 sctp 64 -------S 0 4.0 1.0 1 13 83 65535 65535
+ 4.422688 1 4 sctp 1500 -------D 0 1.0 4.0 1 44 89 0 43
- 4.422688 1 4 sctp 1500 -------D 0 1.0 4.0 1 44 89 0 43
r 4.526688 1 4 sctp 1500 -------D 0 1.0 4.0 1 40 84 0 39
+ 4.526688 4 1 sctp 64 -------S 0 4.0 1.0 1 13 90 65535 65535
- 4.526688 4 1 sctp 64 -------S 0 4.0 1.0 1 13 90 65535 65535
r 4.550688 1 4 sctp 1500 -------D 0 1.0 4.0 1 14 85 0 13
r 4.574688 1 4 sctp 1500 -------D 0 1.0 4.0 1 41 86 0 40
+ 4.574688 4 1 sctp 60 -------S 0 4.0 1.0 1 41 91 65535 65535
- 4.574688 4 1 sctp 60 -------S 0 4.0 1.0 1 41 91 65535 65535
r 4.598688 1 4 sctp 1500 -------D 0 1.0 4.0 1 42 87 0 41
r 4.622688 1 4 sctp 1500 -------D 0 1.0 4.0 1 43 88 0 42
+ 4.622688 4 1 sctp 60 -------S 0 4.0 1.0 1 43 92 65535 65535
- 4.622688 4 1 sctp 60 -------S 0 4.0 1.0 1 43 92 65535 65535
r 4.646688 1 4 sctp 1500 -------D 0 1.0 4.0 1 44 89 0 43
r 4.727712 4 1 sctp 64 -------S 0 4.0 1.0 1 13 90 65535 65535
+ 4.727712 1 4 sctp 1500 -------D 0 1.0 4.0 1 45 93 0 44
- 4.727712 1 4 sctp 1500 -------D 0 1.0 4.0 1 45 93 0 44
r 4.775648 4 1 sctp 60 -------S 0 4.0 1.0 1 41 91 65535 65535
+ 4.775648 1 4 sctp 1500 -------D 0 1.0 4.0 1 46 94 0 45
- 4.775648 1 4 sctp 1500 -------D 0 1.0 4.0 1 46 94 0 45
+ 4.775648 1 4 sctp 1500 -------D 0 1.0 4.0 1 47 95 0 46
+ 4.775648 1 4 sctp 1500 -------D 0 1.0 4.0 1 48 96 0 47
- 4.799648 1 4 sctp 1500 -------D 0 1.0 4.0 1 47 95 0 46
r 4.823648 4 1 sctp 60 -------S 0 4.0 1.0 1 43 92 65535 65535
+ 4.823648 1 4 sctp 1500 -------D 0 1.0 4.0 1 49 97 0 48
+ 4.823648 1 4 sctp 1500 -------D 0 1.0 4.0 1 50 98 0 49
- 4.823648 1 4 sctp 1500 -------D 0 1.0 4.0 1 48 96 0 47
+ 4.846688 4 1 sctp 60 -------S 0 4.0 1.0 1 44 99 65535 65535
- 4.846688 4 1 sctp 60 -------S 0 4.0 1.0 1 44 99 65535 65535
- 4.847648 1 4 sctp 1500 -------D 0 1.0 4.0 1 49 97 0 48
- 4.871648 1 4 sctp 1500 -------D 0 1.0 4.0 1 50 98 0 49
r 4.951712 1 4 sctp 1500 -------D 0 1.0 4.0 1 45 93 0 44
r 4.999648 1 4 sctp 1500 -------D 0 1.0 4.0 1 46 94 0 45
+ 4.999648 4 1 sctp 60 -------S 0 4.0 1.0 1 46 100 65535 65535
- 4.999648 4 1 sctp 60 -------S 0 4.0 1.0 1 46 100 65535 65535
r 5.023648 1 4 sctp 1500 -------D 0 1.0 4.0 1 47 95 0 46
r 5.047648 1 4 sctp 1500 -------D 0 1.0 4.0 1 48 96 0 47
+ 5.047648 4 1 sctp 60 -------S 0 4.0 1.0 1 48 101 65535 65535
- 5.047648 4 1 sctp 60 -------S 0 4.0 1.0 1 48 101 65535 65535
r 5.047648 4 1 sctp 60 -------S 0 4.0 1.0 1 44 99 65535 65535
+ 5.047648 1 4 sctp 1500 -------D 0 1.0 4.0 1 51 102 0 50
- 5.047648 1 4 sctp 1500 -------D 0 1.0 4.0 1 51 102 0 50
r 5.071648 1 4 sctp 1500 -------D 0 1.0 4.0 1 49 97 0 48
r 5.095648 1 4 sctp 1500 -------D 0 1.0 4.0 1 50 98 0 49
+ 5.095648 4 1 sctp 60 -------S 0 4.0 1.0 1 50 103 65535 65535
- 5.095648 4 1 sctp 60 -------S 0 4.0 1.0 1 50 103 65535 65535
r 5.200608 4 1 sctp 60 -------S 0 4.0 1.0 1 46 100 65535 65535
+ 5.200608 1 4 sctp 1500 -------D 0 1.0 4.0 1 52 104 0 51
- 5.200608 1 4 sctp 1500 -------D 0 1.0 4.0 1 52 104 0 51
+ 5.200608 1 4 sctp 1500 -------D 0 1.0 4.0 1 53 105 0 52
- 5.224608 1 4 sctp 1500 -------D 0 1.0 4.0 1 53 105 0 52
r 5.248608 4 1 sctp 60 -------S 0 4.0 1.0 1 48 101 65535 65535
+ 5.248608 1 4 sctp 1500 -------D 0 1.0 4.0 1 54 106 0 53
+ 5.248608 1 4 sctp 1500 -------D 0 1.0 4.0 1 55 107 0 54
+ 5.248608 1 4 sctp 1500 -------D 0 1.0 4.0 1 56 108 0 55
- 5.248608 1 4 sctp 1500 -------D 0 1.0 4.0 1 54 106 0 53
r 5.271648 1 4 sctp 1500 -------D 0 1.0 4.0 1 51 102 0 50
- 5.272608 1 4 sctp 1500 -------D 0 1.0 4.0 1 55 107 0 54
r 5.296608 4 1 sctp 60 -------S 0 4.0 1.0 1 50 103 65535 65535
+ 5.296608 1 4 sctp 1500 -------D 0 1.0 4.0 1 57 109 0 56
+ 5.296608 1 4 sctp 1500 -------D 0 1.0 4.0 1 58 110 0 57
- 5.296608 1 4 sctp 1500 -------D 0 1.0 4.0 1 56 108 0 55
- 5.320608 1 4 sctp 1500 -------D 0 1.0 4.0 1 57 109 0 56
- 5.344608 1 4 sctp 1500 -------D 0 1.0 4.0 1 58 110 0 57
r 5.424608 1 4 sctp 1500 -------D 0 1.0 4.0 1 52 104 0 51
+ 5.424608 4 1 sctp 60 -------S 0 4.0 1.0 1 52 111 65535 65535
- 5.424608 4 1 sctp 60 -------S 0 4.0 1.0 1 52 111 65535 65535
r 5.448608 1 4 sctp 1500 -------D 0 1.0 4.0 1 53 105 0 52
r 5.472608 1 4 sctp 1500 -------D 0 1.0 4.0 1 54 106 0 53
+ 5.472608 4 1 sctp 60 -------S 0 4.0 1.0 1 54 112 65535 65535
- 5.472608 4 1 sctp 60 -------S 0 4.0 1.0 1 54 112 65535 65535
r 5.496608 1 4 sctp 1500 -------D 0 1.0 4.0 1 55 107 0 54
r 5.520608 1 4 sctp 1500 -------D 0 1.0 4.0 1 56 108 0 55
+ 5.520608 4 1 sctp 60 -------S 0 4.0 1.0 1 56 113 65535 65535
- 5.520608 4 1 sctp 60 -------S 0 4.0 1.0 1 56 113 65535 65535
r 5.544608 1 4 sctp 1500 -------D 0 1.0 4.0 1 57 109 0 56
r 5.568608 1 4 sctp 1500 -------D 0 1.0 4.0 1 58 110 0 57
+ 5.568608 4 1 sctp 60 -------S 0 4.0 1.0 1 58 114 65535 65535
- 5.568608 4 1 sctp 60 -------S 0 4.0 1.0 1 58 114 65535 65535
r 5.625568 4 1 sctp 60 -------S 0 4.0 1.0 1 52 111 65535 65535
+ 5.625568 1 4 sctp 1500 -------D 0 1.0 4.0 1 59 115 0 58
- 5.625568 1 4 sctp 1500 -------D 0 1.0 4.0 1 59 115 0 58
+ 5.625568 1 4 sctp 1500 -------D 0 1.0 4.0 1 60 116 0 59
- 5.649568 1 4 sctp 1500 -------D 0 1.0 4.0 1 60 116 0 59
r 5.673568 4 1 sctp 60 -------S 0 4.0 1.0 1 54 112 65535 65535
+ 5.673568 1 4 sctp 1500 -------D 0 1.0 4.0 1 61 117 0 60
+ 5.673568 1 4 sctp 1500 -------D 0 1.0 4.0 1 62 118 0 61
- 5.673568 1 4 sctp 1500 -------D 0 1.0 4.0 1 61 117 0 60
- 5.697568 1 4 sctp 1500 -------D 0 1.0 4.0 1 62 118 0 61
r 5.721568 4 1 sctp 60 -------S 0 4.0 1.0 1 56 113 65535 65535
+ 5.721568 1 4 sctp 1500 -------D 0 1.0 4.0 1 63 119 0 62
+ 5.721568 1 4 sctp 1500 -------D 0 1.0 4.0 1 64 120 0 63
+ 5.721568 1 4 sctp 1500 -------D 0 1.0 4.0 1 65 121 0 64
- 5.721568 1 4 sctp 1500 -------D 0 1.0 4.0 1 63 119 0 62
- 5.745568 1 4 sctp 1500 -------D 0 1.0 4.0 1 64 120 0 63
r 5.769568 4 1 sctp 60 -------S 0 4.0 1.0 1 58 114 65535 65535
+ 5.769568 1 4 sctp 1500 -------D 0 1.0 4.0 1 66 122 0 65
+ 5.769568 1 4 sctp 1500 -------D 0 1.0 4.0 1 67 123 0 66
- 5.769568 1 4 sctp 1500 -------D 0 1.0 4.0 1 65 121 0 64
- 5.793568 1 4 sctp 1500 -------D 0 1.0 4.0 1 66 122 0 65
- 5.817568 1 4 sctp 1500 -------D 0 1.0 4.0 1 67 123 0 66
r 5.849568 1 4 sctp 1500 -------D 0 1.0 4.0 1 59 115 0 58
r 5.873568 1 4 sctp 1500 -------D 0 1.0 4.0 1 60 116 0 59
+ 5.873568 4 1 sctp 60 -------S 0 4.0 1.0 1 60 124 65535 65535
- 5.873568 4 1 sctp 60 -------S 0 4.0 1.0 1 60 124 65535 65535
r 5.897568 1 4 sctp 1500 -------D 0 1.0 4.0 1 61 117 0 60
r 5.921568 1 4 sctp 1500 -------D 0 1.0 4.0 1 62 118 0 61
+ 5.921568 4 1 sctp 60 -------S 0 4.0 1.0 1 62 125 65535 65535
- 5.921568 4 1 sctp 60 -------S 0 4.0 1.0 1 62 125 65535 65535
r 5.945568 1 4 sctp 1500 -------D 0 1.0 4.0 1 63 119 0 62
r 5.969568 1 4 sctp 1500 -------D 0 1.0 4.0 1 64 120 0 63
+ 5.969568 4 1 sctp 60 -------S 0 4.0 1.0 1 64 126 65535 65535
- 5.969568 4 1 sctp 60 -------S 0 4.0 1.0 1 64 126 65535 65535
r 5.993568 1 4 sctp 1500 -------D 0 1.0 4.0 1 65 121 0 64
r 6.017568 1 4 sctp 1500 -------D 0 1.0 4.0 1 66 122 0 65
+ 6.017568 4 1 sctp 60 -------S 0 4.0 1.0 1 66 127 65535 65535
- 6.017568 4 1 sctp 60 -------S 0 4.0 1.0 1 66 127 65535 65535
r 6.041568 1 4 sctp 1500 -------D 0 1.0 4.0 1 67 123 0 66
r 6.074528 4 1 sctp 60 -------S 0 4.0 1.0 1 60 124 65535 65535
+ 6.074528 1 4 sctp 1500 -------D 0 1.0 4.0 1 68 128 0 67
- 6.074528 1 4 sctp 1500 -------D 0 1.0 4.0 1 68 128 0 67
+ 6.074528 1 4 sctp 1500 -------D 0 1.0 4.0 1 69 129 0 68
- 6.098528 1 4 sctp 1500 -------D 0 1.0 4.0 1 69 129 0 68
r 6.122528 4 1 sctp 60 -------S 0 4.0 1.0 1 62 125 65535 65535
+ 6.122528 1 4 sctp 1500 -------D 0 1.0 4.0 1 70 130 0 69
+ 6.122528 1 4 sctp 1500 -------D 0 1.0 4.0 1 71 131 0 70
- 6.122528 1 4 sctp 1500 -------D 0 1.0 4.0 1 70 130 0 69
- 6.146528 1 4 sctp 1500 -------D 0 1.0 4.0 1 71 131 0 70
r 6.170528 4 1 sctp 60 -------S 0 4.0 1.0 1 64 126 65535 65535
+ 6.170528 1 4 sctp 1500 -------D 0 1.0 4.0 1 72 132 0 71
+ 6.170528 1 4 sctp 1500 -------D 0 1.0 4.0 1 73 133 0 72
+ 6.170528 1 4 sctp 1500 -------D 0 1.0 4.0 1 74 134 0 73
- 6.170528 1 4 sctp 1500 -------D 0 1.0 4.0 1 72 132 0 71
- 6.194528 1 4 sctp 1500 -------D 0 1.0 4.0 1 73 133 0 72
r 6.218528 4 1 sctp 60 -------S 0 4.0 1.0 1 66 127 65535 65535
+ 6.218528 1 4 sctp 1500 -------D 0 1.0 4.0 1 75 135 0 74
+ 6.218528 1 4 sctp 1500 -------D 0 1.0 4.0 1 76 136 0 75
- 6.218528 1 4 sctp 1500 -------D 0 1.0 4.0 1 74 134 0 73
+ 6.241568 4 1 sctp 60 -------S 0 4.0 1.0 1 67 137 65535 65535
- 6.241568 4 1 sctp 60 -------S 0 4.0 1.0 1 67 137 65535 65535
- 6.242528 1 4 sctp 1500 -------D 0 1.0 4.0 1 75 135 0 74
- 6.266528 1 4 sctp 1500 -------D 0 1.0 4.0 1 76 136 0 75
r 6.298528 1 4 sctp 1500 -------D 0 1.0 4.0 1 68 128 0 67
r 6.322528 1 4 sctp 1500 -------D 0 1.0 4.0 1 69 129 0 68
+ 6.322528 4 1 sctp 60 -------S 0 4.0 1.0 1 69 138 65535 65535
- 6.322528 4 1 sctp 60 -------S 0 4.0 1.0 1 69 138 65535 65535
r 6.346528 1 4 sctp 1500 -------D 0 1.0 4.0 1 70 130 0 69
r 6.370528 1 4 sctp 1500 -------D 0 1.0 4.0 1 71 131 0 70
+ 6.370528 4 1 sctp 60 -------S 0 4.0 1.0 1 71 139 65535 65535
- 6.370528 4 1 sctp 60 -------S 0 4.0 1.0 1 71 139 65535 65535
r 6.394528 1 4 sctp 1500 -------D 0 1.0 4.0 1 72 132 0 71
r 6.418528 1 4 sctp 1500 -------D 0 1.0 4.0 1 73 133 0 72
+ 6.418528 4 1 sctp 60 -------S 0 4.0 1.0 1 73 140 65535 65535
- 6.418528 4 1 sctp 60 -------S 0 4.0 1.0 1 73 140 65535 65535
r 6.442528 1 4 sctp 1500 -------D 0 1.0 4.0 1 74 134 0 73
r 6.442528 4 1 sctp 60 -------S 0 4.0 1.0 1 67 137 65535 65535
+ 6.442528 1 4 sctp 1500 -------D 0 1.0 4.0 1 77 141 0 76
- 6.442528 1 4 sctp 1500 -------D 0 1.0 4.0 1 77 141 0 76
r 6.466528 1 4 sctp 1500 -------D 0 1.0 4.0 1 75 135 0 74
+ 6.466528 4 1 sctp 60 -------S 0 4.0 1.0 1 75 142 65535 65535
- 6.466528 4 1 sctp 60 -------S 0 4.0 1.0 1 75 142 65535 65535
r 6.490528 1 4 sctp 1500 -------D 0 1.0 4.0 1 76 136 0 75
r 6.523488 4 1 sctp 60 -------S 0 4.0 1.0 1 69 138 65535 65535
+ 6.523488 1 4 sctp 1500 -------D 0 1.0 4.0 1 78 143 0 77
- 6.523488 1 4 sctp 1500 -------D 0 1.0 4.0 1 78 143 0 77
+ 6.523488 1 4 sctp 1500 -------D 0 1.0 4.0 1 79 144 0 78
- 6.547488 1 4 sctp 1500 -------D 0 1.0 4.0 1 79 144 0 78
r 6.571488 4 1 sctp 60 -------S 0 4.0 1.0 1 71 139 65535 65535
+ 6.571488 1 4 sctp 1500 -------D 0 1.0 4.0 1 80 145 0 79
+ 6.571488 1 4 sctp 1500 -------D 0 1.0 4.0 1 81 146 0 80
- 6.571488 1 4 sctp 1500 -------D 0 1.0 4.0 1 80 145 0 79
- 6.595488 1 4 sctp 1500 -------D 0 1.0 4.0 1 81 146 0 80
r 6.619488 4 1 sctp 60 -------S 0 4.0 1.0 1 73 140 65535 65535
+ 6.619488 1 4 sctp 1500 -------D 0 1.0 4.0 1 82 147 0 81
+ 6.619488 1 4 sctp 1500 -------D 0 1.0 4.0 1 83 148 0 82
- 6.619488 1 4 sctp 1500 -------D 0 1.0 4.0 1 82 147 0 81
- 6.643488 1 4 sctp 1500 -------D 0 1.0 4.0 1 83 148 0 82
r 6.666528 1 4 sctp 1500 -------D 0 1.0 4.0 1 77 141 0 76
+ 6.666528 4 1 sctp 60 -------S 0 4.0 1.0 1 77 149 65535 65535
- 6.666528 4 1 sctp 60 -------S 0 4.0 1.0 1 77 149 65535 65535
r 6.667488 4 1 sctp 60 -------S 0 4.0 1.0 1 75 142 65535 65535
+ 6.667488 1 4 sctp 1500 -------D 0 1.0 4.0 1 84 150 0 83
+ 6.667488 1 4 sctp 1500 -------D 0 1.0 4.0 1 85 151 0 84
+ 6.667488 1 4 sctp 1500 -------D 0 1.0 4.0 1 86 152 0 85
- 6.667488 1 4 sctp 1500 -------D 0 1.0 4.0 1 84 150 0 83
- 6.691488 1 4 sctp 1500 -------D 0 1.0 4.0 1 85 151 0 84
- 6.715488 1 4 sctp 1500 -------D 0 1.0 4.0 1 86 152 0 85
r 6.747488 1 4 sctp 1500 -------D 0 1.0 4.0 1 78 143 0 77
r 6.771488 1 4 sctp 1500 -------D 0 1.0 4.0 1 79 144 0 78
+ 6.771488 4 1 sctp 60 -------S 0 4.0 1.0 1 79 153 65535 65535
- 6.771488 4 1 sctp 60 -------S 0 4.0 1.0 1 79 153 65535 65535
r 6.795488 1 4 sctp 1500 -------D 0 1.0 4.0 1 80 145 0 79
r 6.819488 1 4 sctp 1500 -------D 0 1.0 4.0 1 81 146 0 80
+ 6.819488 4 1 sctp 60 -------S 0 4.0 1.0 1 81 154 65535 65535
- 6.819488 4 1 sctp 60 -------S 0 4.0 1.0 1 81 154 65535 65535
r 6.843488 1 4 sctp 1500 -------D 0 1.0 4.0 1 82 147 0 81
r 6.867488 1 4 sctp 1500 -------D 0 1.0 4.0 1 83 148 0 82
+ 6.867488 4 1 sctp 60 -------S 0 4.0 1.0 1 83 155 65535 65535
- 6.867488 4 1 sctp 60 -------S 0 4.0 1.0 1 83 155 65535 65535
r 6.867488 4 1 sctp 60 -------S 0 4.0 1.0 1 77 149 65535 65535
+ 6.867488 1 4 sctp 1500 -------D 0 1.0 4.0 1 87 156 0 86
- 6.867488 1 4 sctp 1500 -------D 0 1.0 4.0 1 87 156 0 86
+ 6.867488 1 4 sctp 1500 -------D 0 1.0 4.0 1 88 157 0 87
r 6.891488 1 4 sctp 1500 -------D 0 1.0 4.0 1 84 150 0 83
- 6.891488 1 4 sctp 1500 -------D 0 1.0 4.0 1 88 157 0 87
r 6.915488 1 4 sctp 1500 -------D 0 1.0 4.0 1 85 151 0 84
+ 6.915488 4 1 sctp 60 -------S 0 4.0 1.0 1 85 158 65535 65535
- 6.915488 4 1 sctp 60 -------S 0 4.0 1.0 1 85 158 65535 65535
r 6.939488 1 4 sctp 1500 -------D 0 1.0 4.0 1 86 152 0 85
r 6.972448 4 1 sctp 60 -------S 0 4.0 1.0 1 79 153 65535 65535
+ 6.972448 1 4 sctp 1500 -------D 0 1.0 4.0 1 89 159 0 88
- 6.972448 1 4 sctp 1500 -------D 0 1.0 4.0 1 89 159 0 88
+ 6.972448 1 4 sctp 1500 -------D 0 1.0 4.0 1 90 160 0 89
- 6.996448 1 4 sctp 1500 -------D 0 1.0 4.0 1 90 160 0 89
r 7.020448 4 1 sctp 60 -------S 0 4.0 1.0 1 81 154 65535 65535
+ 7.020448 1 4 sctp 1500 -------D 0 1.0 4.0 1 91 161 0 90
+ 7.020448 1 4 sctp 1500 -------D 0 1.0 4.0 1 92 162 0 91
- 7.020448 1 4 sctp 1500 -------D 0 1.0 4.0 1 91 161 0 90
- 7.044448 1 4 sctp 1500 -------D 0 1.0 4.0 1 92 162 0 91
r 7.068448 4 1 sctp 60 -------S 0 4.0 1.0 1 83 155 65535 65535
+ 7.068448 1 4 sctp 1500 -------D 0 1.0 4.0 1 93 163 0 92
+ 7.068448 1 4 sctp 1500 -------D 0 1.0 4.0 1 94 164 0 93
- 7.068448 1 4 sctp 1500 -------D 0 1.0 4.0 1 93 163 0 92
r 7.091488 1 4 sctp 1500 -------D 0 1.0 4.0 1 87 156 0 86
+ 7.091488 4 1 sctp 60 -------S 0 4.0 1.0 1 87 165 65535 65535
- 7.091488 4 1 sctp 60 -------S 0 4.0 1.0 1 87 165 65535 65535
- 7.092448 1 4 sctp 1500 -------D 0 1.0 4.0 1 94 164 0 93
r 7.115488 1 4 sctp 1500 -------D 0 1.0 4.0 1 88 157 0 87
r 7.116448 4 1 sctp 60 -------S 0 4.0 1.0 1 85 158 65535 65535
+ 7.116448 1 4 sctp 1500 -------D 0 1.0 4.0 1 95 166 0 94
+ 7.116448 1 4 sctp 1500 -------D 0 1.0 4.0 1 96 167 0 95
+ 7.116448 1 4 sctp 1500 -------D 0 1.0 4.0 1 97 168 0 96
- 7.116448 1 4 sctp 1500 -------D 0 1.0 4.0 1 95 166 0 94
- 7.140448 1 4 sctp 1500 -------D 0 1.0 4.0 1 96 167 0 95
- 7.164448 1 4 sctp 1500 -------D 0 1.0 4.0 1 97 168 0 96
r 7.196448 1 4 sctp 1500 -------D 0 1.0 4.0 1 89 159 0 88
+ 7.196448 4 1 sctp 60 -------S 0 4.0 1.0 1 89 169 65535 65535
- 7.196448 4 1 sctp 60 -------S 0 4.0 1.0 1 89 169 65535 65535
r 7.220448 1 4 sctp 1500 -------D 0 1.0 4.0 1 90 160 0 89
r 7.244448 1 4 sctp 1500 -------D 0 1.0 4.0 1 91 161 0 90
+ 7.244448 4 1 sctp 60 -------S 0 4.0 1.0 1 91 170 65535 65535
- 7.244448 4 1 sctp 60 -------S 0 4.0 1.0 1 91 170 65535 65535
r 7.268448 1 4 sctp 1500 -------D 0 1.0 4.0 1 92 162 0 91
r 7.292448 1 4 sctp 1500 -------D 0 1.0 4.0 1 93 163 0 92
+ 7.292448 4 1 sctp 60 -------S 0 4.0 1.0 1 93 171 65535 65535
- 7.292448 4 1 sctp 60 -------S 0 4.0 1.0 1 93 171 65535 65535
r 7.292448 4 1 sctp 60 -------S 0 4.0 1.0 1 87 165 65535 65535
+ 7.292448 1 4 sctp 1500 -------D 0 1.0 4.0 1 98 172 0 97
- 7.292448 1 4 sctp 1500 -------D 0 1.0 4.0 1 98 172 0 97
+ 7.292448 1 4 sctp 1500 -------D 0 1.0 4.0 1 99 173 0 98
r 7.316448 1 4 sctp 1500 -------D 0 1.0 4.0 1 94 164 0 93
- 7.316448 1 4 sctp 1500 -------D 0 1.0 4.0 1 99 173 0 98
r 7.340448 1 4 sctp 1500 -------D 0 1.0 4.0 1 95 166 0 94
+ 7.340448 4 1 sctp 60 -------S 0 4.0 1.0 1 95 174 65535 65535
- 7.340448 4 1 sctp 60 -------S 0 4.0 1.0 1 95 174 65535 65535
r 7.364448 1 4 sctp 1500 -------D 0 1.0 4.0 1 96 167 0 95
r 7.388448 1 4 sctp 1500 -------D 0 1.0 4.0 1 97 168 0 96
+ 7.388448 4 1 sctp 60 -------S 0 4.0 1.0 1 97 175 65535 65535
- 7.388448 4 1 sctp 60 -------S 0 4.0 1.0 1 97 175 65535 65535
r 7.397408 4 1 sctp 60 -------S 0 4.0 1.0 1 89 169 65535 65535