+ 0.5 0 1 sctp 56 -------I 0 0.0 1.0 1 -1 2 65535 65535
- 0.5 0 1 sctp 56 -------I 0 0.0 1.0 1 -1 2 65535 65535
r 0.800896 0 1 sctp 56 -------I 0 0.0 1.0 1 -1 2 65535 65535
+ 0.800896 1 0 sctp 56 -------I 0 1.0 0.0 1 -1 3 65535 65535
- 0.800896 1 0 sctp 56 -------I 0 1.0 0.0 1 -1 3 65535 65535
r 1.101792 1 0 sctp 56 -------I 0 1.0 0.0 1 -1 3 65535 65535
+ 1.101792 0 1 sctp 36 -------I 0 0.0 1.0 1 -1 4 65535 65535
- 1.101792 0 1 sctp 36 -------I 0 0.0 1.0 1 -1 4 65535 65535
r 1.402368 0 1 sctp 36 -------I 0 0.0 1.0 1 -1 4 65535 65535
+ 1.402368 1 0 sctp 36 -------I 0 1.0 0.0 1 -1 5 65535 65535
- 1.402368 1 0 sctp 36 -------I 0 1.0 0.0 1 -1 5 65535 65535
r 1.702944 1 0 sctp 36 -------I 0 1.0 0.0 1 -1 5 65535 65535
+ 1.702944 0 1 sctp 56 -------H 0 0.0 1.0 1 -1 6 65535 65535
- 1.702944 0 1 sctp 56 -------H 0 0.0 1.0 1 -1 6 65535 65535
r 2.00384 0 1 sctp 56 -------H 0 0.0 1.0 1 -1 6 65535 65535
+ 2.00384 1 0 sctp 56 -------B 0 1.0 0.0 1 -1 7 65535 65535
- 2.00384 1 0 sctp 56 -------B 0 1.0 0.0 1 -1 7 65535 65535
r 2.304736 1 0 sctp 56 -------B 0 1.0 0.0 1 -1 7 65535 65535
+ 2.304736 0 1 sctp 1500 -------D 0 0.0 1.0 1 1 8 0 0
- 2.304736 0 1 sctp 1500 -------D 0 0.0 1.0 1 1 8 0 0
+ 2.304736 0 1 sctp 1500 -------D 0 0.0 1.0 1 2 9 1 0
+ 2.304736 0 1 sctp 1500 -------D 0 0.0 1.0 1 3 10 0 1
- 2.328736 0 1 sctp 1500 -------D 0 0.0 1.0 1 2 9 1 0
- 2.352736 0 1 sctp 1500 -------D 0 0.0 1.0 1 3 10 0 1
r 2.628736 0 1 sctp 1500 -------D 0 0.0 1.0 1 1 8 0 0
+ 2.628736 1 0 sctp 52 -------N 0 1.0 0.0 1 1 11 65535 65535
- 2.628736 1 0 sctp 52 -------N 0 1.0 0.0 1 1 11 65535 65535
r 2.652736 0 1 sctp 1500 -------D 0 0.0 1.0 1 2 9 1 0
+ 2.652736 1 0 sctp 52 -------N 0 1.0 0.0 1 2 12 65535 65535
- 2.652736 1 0 sctp 52 -------N 0 1.0 0.0 1 2 12 65535 65535
r 2.676736 0 1 sctp 1500 -------D 0 0.0 1.0 1 3 10 0 1
+ 2.676736 1 0 sctp 52 -------N 0 1.0 0.0 1 3 13 65535 65535
- 2.676736 1 0 sctp 52 -------N 0 1.0 0.0 1 3 13 65535 65535
r 2.929568 1 0 sctp 52 -------N 0 1.0 0.0 1 1 11 65535 65535
+ 2.929568 0 1 sctp 1500 -------D 0 0.0 1.0 1 4 14 1 1
- 2.929568 0 1 sctp 1500 -------D 0 0.0 1.0 1 4 14 1 1
+ 2.929568 0 1 sctp 1500 -------D 0 0.0 1.0 1 5 15 0 2
r 2.953568 1 0 sctp 52 -------N 0 1.0 0.0 1 2 12 65535 65535
+ 2.953568 0 1 sctp 1500 -------D 0 0.0 1.0 1 6 16 1 2
+ 2.953568 0 1 sctp 1500 -------D 0 0.0 1.0 1 7 17 0 3
- 2.953568 0 1 sctp 1500 -------D 0 0.0 1.0 1 5 15 0 2
r 2.977568 1 0 sctp 52 -------N 0 1.0 0.0 1 3 13 65535 65535
+ 2.977568 0 1 sctp 1500 -------D 0 0.0 1.0 1 8 18 1 3
+ 2.977568 0 1 sctp 1500 -------D 0 0.0 1.0 1 9 19 0 4
- 2.977568 0 1 sctp 1500 -------D 0 0.0 1.0 1 6 16 1 2
- 3.001568 0 1 sctp 1500 -------D 0 0.0 1.0 1 7 17 0 3
- 3.025568 0 1 sctp 1500 -------D 0 0.0 1.0 1 8 18 1 3
- 3.049568 0 1 sctp 1500 -------D 0 0.0 1.0 1 9 19 0 4
r 3.253568 0 1 sctp 1500 -------D 0 0.0 1.0 1 4 14 1 1
+ 3.253568 1 0 sctp 52 -------N 0 1.0 0.0 1 4 20 65535 65535
- 3.253568 1 0 sctp 52 -------N 0 1.0 0.0 1 4 20 65535 65535
r 3.277568 0 1 sctp 1500 -------D 0 0.0 1.0 1 5 15 0 2
+ 3.277568 1 0 sctp 52 -------N 0 1.0 0.0 1 5 21 65535 65535
- 3.277568 1 0 sctp 52 -------N 0 1.0 0.0 1 5 21 65535 65535
r 3.301568 0 1 sctp 1500 -------D 0 0.0 1.0 1 6 16 1 2
+ 3.301568 1 0 sctp 52 -------N 0 1.0 0.0 1 6 22 65535 65535
- 3.301568 1 0 sctp 52 -------N 0 1.0 0.0 1 6 22 65535 65535
r 3.325568 0 1 sctp 1500 -------D 0 0.0 1.0 1 7 17 0 3
+ 3.325568 1 0 sctp 52 -------N 0 1.0 0.0 1 7 23 65535 65535
- 3.325568 1 0 sctp 52 -------N 0 1.0 0.0 1 7 23 65535 65535
r 3.349568 0 1 sctp 1500 -------D 0 0.0 1.0 1 8 18 1 3
+ 3.349568 1 0 sctp 52 -------N 0 1.0 0.0 1 8 24 65535 65535
- 3.349568 1 0 sctp 52 -------N 0 1.0 0.0 1 8 24 65535 65535
r 3.373568 0 1 sctp 1500 -------D 0 0.0 1.0 1 9 19 0 4
+ 3.373568 1 0 sctp 52 -------N 0 1.0 0.0 1 9 25 65535 65535
- 3.373568 1 0 sctp 52 -------N 0 1.0 0.0 1 9 25 65535 65535
r 3.5544 1 0 sctp 52 -------N 0 1.0 0.0 1 4 20 65535 65535
+ 3.5544 0 1 sctp 1500 -------D 0 0.0 1.0 1 10 26 1 4
- 3.5544 0 1 sctp 1500 -------D 0 0.0 1.0 1 10 26 1 4
+ 3.5544 0 1 sctp 1500 -------D 0 0.0 1.0 1 11 27 0 5
r 3.5784 1 0 sctp 52 -------N 0 1.0 0.0 1 5 21 65535 65535
+ 3.5784 0 1 sctp 1500 -------D 0 0.0 1.0 1 12 28 1 5
+ 3.5784 0 1 sctp 1500 -------D 0 0.0 1.0 1 13 29 0 6
- 3.5784 0 1 sctp 1500 -------D 0 0.0 1.0 1 11 27 0 5
r 3.6024 1 0 sctp 52 -------N 0 1.0 0.0 1 6 22 65535 65535
+ 3.6024 0 1 sctp 1500 -------D 0 0.0 1.0 1 14 30 1 6
+ 3.6024 0 1 sctp 1500 -------D 0 0.0 1.0 1 15 31 0 7
- 3.6024 0 1 sctp 1500 -------D 0 0.0 1.0 1 12 28 1 5
r 3.6264 1 0 sctp 52 -------N 0 1.0 0.0 1 7 23 65535 65535
+ 3.6264 0 1 sctp 1500 -------D 0 0.0 1.0 1 16 32 1 7
+ 3.6264 0 1 sctp 1500 -------D 0 0.0 1.0 1 17 33 0 8
- 3.6264 0 1 sctp 1500 -------D 0 0.0 1.0 1 13 29 0 6
r 3.6504 1 0 sctp 52 -------N 0 1.0 0.0 1 8 24 65535 65535
+ 3.6504 0 1 sctp 1500 -------D 0 0.0 1.0 1 18 34 1 8
+ 3.6504 0 1 sctp 1500 -------D 0 0.0 1.0 1 19 35 0 9
- 3.6504 0 1 sctp 1500 -------D 0 0.0 1.0 1 14 30 1 6
r 3.6744 1 0 sctp 52 -------N 0 1.0 0.0 1 9 25 65535 65535
+ 3.6744 0 1 sctp 1500 -------D 0 0.0 1.0 1 20 36 1 9
- 3.6744 0 1 sctp 1500 -------D 0 0.0 1.0 1 15 31 0 7
- 3.6984 0 1 sctp 1500 -------D 0 0.0 1.0 1 16 32 1 7
- 3.7224 0 1 sctp 1500 -------D 0 0.0 1.0 1 17 33 0 8
- 3.7464 0 1 sctp 1500 -------D 0 0.0 1.0 1 18 34 1 8
- 3.7704 0 1 sctp 1500 -------D 0 0.0 1.0 1 19 35 0 9
- 3.7944 0 1 sctp 1500 -------D 0 0.0 1.0 1 20 36 1 9
r 3.8784 0 1 sctp 1500 -------D 0 0.0 1.0 1 10 26 1 4
+ 3.8784 1 0 sctp 52 -------N 0 1.0 0.0 1 10 37 65535 65535
- 3.8784 1 0 sctp 52 -------N 0 1.0 0.0 1 10 37 65535 65535
r 3.9024 0 1 sctp 1500 -------D 0 0.0 1.0 1 11 27 0 5
+ 3.9024 1 0 sctp 52 -------N 0 1.0 0.0 1 11 38 65535 65535
- 3.9024 1 0 sctp 52 -------N 0 1.0 0.0 1 11 38 65535 65535
r 3.9264 0 1 sctp 1500 -------D 0 0.0 1.0 1 12 28 1 5
+ 3.9264 1 0 sctp 52 -------N 0 1.0 0.0 1 12 39 65535 65535
- 3.9264 1 0 sctp 52 -------N 0 1.0 0.0 1 12 39 65535 65535
r 3.9504 0 1 sctp 1500 -------D 0 0.0 1.0 1 13 29 0 6
+ 3.9504 1 0 sctp 52 -------N 0 1.0 0.0 1 13 40 65535 65535
- 3.9504 1 0 sctp 52 -------N 0 1.0 0.0 1 13 40 65535 65535
r 3.9744 0 1 sctp 1500 -------D 0 0.0 1.0 1 14 30 1 6
+ 3.9744 1 0 sctp 52 -------N 0 1.0 0.0 1 14 41 65535 65535
- 3.9744 1 0 sctp 52 -------N 0 1.0 0.0 1 14 41 65535 65535
r 3.9984 0 1 sctp 1500 -------D 0 0.0 1.0 1 15 31 0 7
+ 3.9984 1 0 sctp 52 -------N 0 1.0 0.0 1 15 42 65535 65535
- 3.9984 1 0 sctp 52 -------N 0 1.0 0.0 1 15 42 65535 65535
r 4.0224 0 1 sctp 1500 -------D 0 0.0 1.0 1 16 32 1 7
+ 4.0224 1 0 sctp 52 -------N 0 1.0 0.0 1 16 43 65535 65535
- 4.0224 1 0 sctp 52 -------N 0 1.0 0.0 1 16 43 65535 65535
r 4.0464 0 1 sctp 1500 -------D 0 0.0 1.0 1 17 33 0 8
+ 4.0464 1 0 sctp 52 -------N 0 1.0 0.0 1 17 44 65535 65535
- 4.0464 1 0 sctp 52 -------N 0 1.0 0.0 1 17 44 65535 65535
r 4.0704 0 1 sctp 1500 -------D 0 0.0 1.0 1 18 34 1 8
+ 4.0704 1 0 sctp 52 -------N 0 1.0 0.0 1 18 45 65535 65535
- 4.0704 1 0 sctp 52 -------N 0 1.0 0.0 1 18 45 65535 65535
r 4.0944 0 1 sctp 1500 -------D 0 0.0 1.0 1 19 35 0 9
+ 4.0944 1 0 sctp 52 -------N 0 1.0 0.0 1 19 46 65535 65535
- 4.0944 1 0 sctp 52 -------N 0 1.0 0.0 1 19 46 65535 65535
r 4.1184 0 1 sctp 1500 -------D 0 0.0 1.0 1 20 36 1 9
+ 4.1184 1 0 sctp 52 -------N 0 1.0 0.0 1 20 47 65535 65535
- 4.1184 1 0 sctp 52 -------N 0 1.0 0.0 1 20 47 65535 65535
r 4.179232 1 0 sctp 52 -------N 0 1.0 0.0 1 10 37 65535 65535
+ 4.179232 0 1 sctp 1500 -------D 0 0.0 1.0 1 21 48 0 10
- 4.179232 0 1 sctp 1500 -------D 0 0.0 1.0 1 21 48 0 10
r 4.203232 1 0 sctp 52 -------N 0 1.0 0.0 1 11 38 65535 65535
+ 4.203232 0 1 sctp 1500 -------D 0 0.0 1.0 1 22 49 1 10
- 4.203232 0 1 sctp 1500 -------D 0 0.0 1.0 1 22 49 1 10
r 4.227232 1 0 sctp 52 -------N 0 1.0 0.0 1 12 39 65535 65535
+ 4.227232 0 1 sctp 1500 -------D 0 0.0 1.0 1 23 50 0 11
- 4.227232 0 1 sctp 1500 -------D 0 0.0 1.0 1 23 50 0 11
r 4.251232 1 0 sctp 52 -------N 0 1.0 0.0 1 13 40 65535 65535
+ 4.251232 0 1 sctp 1500 -------D 0 0.0 1.0 1 24 51 1 11
- 4.251232 0 1 sctp 1500 -------D 0 0.0 1.0 1 24 51 1 11
r 4.275232 1 0 sctp 52 -------N 0 1.0 0.0 1 14 41 65535 65535
+ 4.275232 0 1 sctp 1500 -------D 0 0.0 1.0 1 25 52 0 12
- 4.275232 0 1 sctp 1500 -------D 0 0.0 1.0 1 25 52 0 12
r 4.299232 1 0 sctp 52 -------N 0 1.0 0.0 1 15 42 65535 65535
+ 4.299232 0 1 sctp 1500 -------D 0 0.0 1.0 1 26 53 1 12
- 4.299232 0 1 sctp 1500 -------D 0 0.0 1.0 1 26 53 1 12
r 4.323232 1 0 sctp 52 -------N 0 1.0 0.0 1 16 43 65535 65535
+ 4.323232 0 1 sctp 1500 -------D 0 0.0 1.0 1 27 54 0 13
- 4.323232 0 1 sctp 1500 -------D 0 0.0 1.0 1 27 54 0 13
r 4.347232 1 0 sctp 52 -------N 0 1.0 0.0 1 17 44 65535 65535
+ 4.347232 0 1 sctp 1500 -------D 0 0.0 1.0 1 28 55 1 13
- 4.347232 0 1 sctp 1500 -------D 0 0.0 1.0 1 28 55 1 13
r 4.371232 1 0 sctp 52 -------N 0 1.0 0.0 1 18 45 65535 65535
+ 4.371232 0 1 sctp 1500 -------D 0 0.0 1.0 1 29 56 0 14
- 4.371232 0 1 sctp 1500 -------D 0 0.0 1.0 1 29 56 0 14
r 4.395232 1 0 sctp 52 -------N 0 1.0 0.0 1 19 46 65535 65535
+ 4.395232 0 1 sctp 1500 -------D 0 0.0 1.0 1 30 57 1 14
- 4.395232 0 1 sctp 1500 -------D 0 0.0 1.0 1 30 57 1 14
r 4.419232 1 0 sctp 52 -------N 0 1.0 0.0 1 20 47 65535 65535
+ 4.419232 0 1 sctp 1500 -------D 0 0.0 1.0 1 31 58 0 15
- 4.419232 0 1 sctp 1500 -------D 0 0.0 1.0 1 31 58 0 15
r 4.503232 0 1 sctp 1500 -------D 0 0.0 1.0 1 21 48 0 10
+ 4.503232 1 0 sctp 52 -------N 0 1.0 0.0 1 21 59 65535 65535
- 4.503232 1 0 sctp 52 -------N 0 1.0 0.0 1 21 59 65535 65535
r 4.527232 0 1 sctp 1500 -------D 0 0.0 1.0 1 22 49 1 10
+ 4.527232 1 0 sctp 52 -------N 0 1.0 0.0 1 22 60 65535 65535
- 4.527232 1 0 sctp 52 -------N 0 1.0 0.0 1 22 60 65535 65535
r 4.551232 0 1 sctp 1500 -------D 0 0.0 1.0 1 23 50 0 11
+ 4.551232 1 0 sctp 52 -------N 0 1.0 0.0 1 23 61 65535 65535
- 4.551232 1 0 sctp 52 -------N 0 1.0 0.0 1 23 61 65535 65535
r 4.575232 0 1 sctp 1500 -------D 0 0.0 1.0 1 24 51 1 11
+ 4.575232 1 0 sctp 52 -------N 0 1.0 0.0 1 24 62 65535 65535
- 4.575232 1 0 sctp 52 -------N 0 1.0 0.0 1 24 62 65535 65535
r 4.599232 0 1 sctp 1500 -------D 0 0.0 1.0 1 25 52 0 12
+ 4.599232 1 0 sctp 52 -------N 0 1.0 0.0 1 25 63 65535 65535
- 4.599232 1 0 sctp 52 -------N 0 1.0 0.0 1 25 63 65535 65535
r 4.623232 0 1 sctp 1500 -------D 0 0.0 1.0 1 26 53 1 12
+ 4.623232 1 0 sctp 52 -------N 0 1.0 0.0 1 26 64 65535 65535
- 4.623232 1 0 sctp 52 -------N 0 1.0 0.0 1 26 64 65535 65535
r 4.647232 0 1 sctp 1500 -------D 0 0.0 1.0 1 27 54 0 13
+ 4.647232 1 0 sctp 52 -------N 0 1.0 0.0 1 27 65 65535 65535
- 4.647232 1 0 sctp 52 -------N 0 1.0 0.0 1 27 65 65535 65535
r 4.671232 0 1 sctp 1500 -------D 0 0.0 1.0 1 28 55 1 13
+ 4.671232 1 0 sctp 52 -------N 0 1.0 0.0 1 28 66 65535 65535
- 4.671232 1 0 sctp 52 -------N 0 1.0 0.0 1 28 66 65535 65535
r 4.695232 0 1 sctp 1500 -------D 0 0.0 1.0 1 29 56 0 14
+ 4.695232 1 0 sctp 52 -------N 0 1.0 0.0 1 29 67 65535 65535
- 4.695232 1 0 sctp 52 -------N 0 1.0 0.0 1 29 67 65535 65535
r 4.719232 0 1 sctp 1500 -------D 0 0.0 1.0 1 30 57 1 14
+ 4.719232 1 0 sctp 52 -------N 0 1.0 0.0 1 30 68 65535 65535
- 4.719232 1 0 sctp 52 -------N 0 1.0 0.0 1 30 68 65535 65535
r 4.743232 0 1 sctp 1500 -------D 0 0.0 1.0 1 31 58 0 15
+ 4.743232 1 0 sctp 52 -------N 0 1.0 0.0 1 31 69 65535 65535
- 4.743232 1 0 sctp 52 -------N 0 1.0 0.0 1 31 69 65535 65535
r 4.804064 1 0 sctp 52 -------N 0 1.0 0.0 1 21 59 65535 65535
d 4.804064 0 1 sctp 1500 -------D 0 0.0 1.0 1 32 70 1 15
r 4.828064 1 0 sctp 52 -------N 0 1.0 0.0 1 22 60 65535 65535
+ 4.828064 0 1 sctp 1500 -------D 0 0.0 1.0 1 33 71 0 16
- 4.828064 0 1 sctp 1500 -------D 0 0.0 1.0 1 33 71 0 16
r 4.852064 1 0 sctp 52 -------N 0 1.0 0.0 1 23 61 65535 65535
+ 4.852064 0 1 sctp 1500 -------D 0 0.0 1.0 1 34 72 1 16
- 4.852064 0 1 sctp 1500 -------D 0 0.0 1.0 1 34 72 1 16
r 4.876064 1 0 sctp 52 -------N 0 1.0 0.0 1 24 62 65535 65535
+ 4.876064 0 1 sctp 1500 -------D 0 0.0 1.0 1 35 73 0 17
- 4.876064 0 1 sctp 1500 -------D 0 0.0 1.0 1 35 73 0 17
r 4.900064 1 0 sctp 52 -------N 0 1.0 0.0 1 25 63 65535 65535
+ 4.900064 0 1 sctp 1500 -------D 0 0.0 1.0 1 36 74 1 17
- 4.900064 0 1 sctp 1500 -------D 0 0.0 1.0 1 36 74 1 17
r 4.924064 1 0 sctp 52 -------N 0 1.0 0.0 1 26 64 65535 65535
+ 4.924064 0 1 sctp 1500 -------D 0 0.0 1.0 1 37 75 0 18
- 4.924064 0 1 sctp 1500 -------D 0 0.0 1.0 1 37 75 0 18
r 4.948064 1 0 sctp 52 -------N 0 1.0 0.0 1 27 65 65535 65535
+ 4.948064 0 1 sctp 1500 -------D 0 0.0 1.0 1 38 76 1 18
- 4.948064 0 1 sctp 1500 -------D 0 0.0 1.0 1 38 76 1 18
r 4.972064 1 0 sctp 52 -------N 0 1.0 0.0 1 28 66 65535 65535
+ 4.972064 0 1 sctp 1500 -------D 0 0.0 1.0 1 39 77 0 19
- 4.972064 0 1 sctp 1500 -------D 0 0.0 1.0 1 39 77 0 19
r 4.996064 1 0 sctp 52 -------N 0 1.0 0.0 1 29 67 65535 65535
+ 4.996064 0 1 sctp 1500 -------D 0 0.0 1.0 1 40 78 1 19
- 4.996064 0 1 sctp 1500 -------D 0 0.0 1.0 1 40 78 1 19
r 5.020064 1 0 sctp 52 -------N 0 1.0 0.0 1 30 68 65535 65535
+ 5.020064 0 1 sctp 1500 -------D 0 0.0 1.0 1 41 79 0 20
- 5.020064 0 1 sctp 1500 -------D 0 0.0 1.0 1 41 79 0 20
r 5.044064 1 0 sctp 52 -------N 0 1.0 0.0 1 31 69 65535 65535
+ 5.044064 0 1 sctp 1500 -------D 0 0.0 1.0 1 42 80 1 20
- 5.044064 0 1 sctp 1500 -------D 0 0.0 1.0 1 42 80 1 20
r 5.152064 0 1 sctp 1500 -------D 0 0.0 1.0 1 33 71 0 16
+ 5.152064 1 0 sctp 56 -------N 0 1.0 0.0 1 31 81 65535 65535
- 5.152064 1 0 sctp 56 -------N 0 1.0 0.0 1 31 81 65535 65535
r 5.176064 0 1 sctp 1500 -------D 0 0.0 1.0 1 34 72 1 16
+ 5.176064 1 0 sctp 60 -------N 0 1.0 0.0 1 31 82 65535 65535
- 5.176064 1 0 sctp 60 -------N 0 1.0 0.0 1 31 82 65535 65535
r 5.200064 0 1 sctp 1500 -------D 0 0.0 1.0 1 35 73 0 17
+ 5.200064 1 0 sctp 64 -------N 0 1.0 0.0 1 31 83 65535 65535
- 5.200064 1 0 sctp 64 -------N 0 1.0 0.0 1 31 83 65535 65535
r 5.224064 0 1 sctp 1500 -------D 0 0.0 1.0 1 36 74 1 17
+ 5.224064 1 0 sctp 68 -------N 0 1.0 0.0 1 31 84 65535 65535
- 5.224064 1 0 sctp 68 -------N 0 1.0 0.0 1 31 84 65535 65535
r 5.248064 0 1 sctp 1500 -------D 0 0.0 1.0 1 37 75 0 18
+ 5.248064 1 0 sctp 72 -------N 0 1.0 0.0 1 31 85 65535 65535
- 5.248064 1 0 sctp 72 -------N 0 1.0 0.0 1 31 85 65535 65535
r 5.272064 0 1 sctp 1500 -------D 0 0.0 1.0 1 38 76 1 18
+ 5.272064 1 0 sctp 76 -------N 0 1.0 0.0 1 31 86 65535 65535
- 5.272064 1 0 sctp 76 -------N 0 1.0 0.0 1 31 86 65535 65535
r 5.296064 0 1 sctp 1500 -------D 0 0.0 1.0 1 39 77 0 19
+ 5.296064 1 0 sctp 80 -------N 0 1.0 0.0 1 31 87 65535 65535
- 5.296064 1 0 sctp 80 -------N 0 1.0 0.0 1 31 87 65535 65535
r 5.320064 0 1 sctp 1500 -------D 0 0.0 1.0 1 40 78 1 19
+ 5.320064 1 0 sctp 84 -------N 0 1.0 0.0 1 31 88 65535 65535
- 5.320064 1 0 sctp 84 -------N 0 1.0 0.0 1 31 88 65535 65535
r 5.344064 0 1 sctp 1500 -------D 0 0.0 1.0 1 41 79 0 20
+ 5.344064 1 0 sctp 88 -------N 0 1.0 0.0 1 31 89 65535 65535
- 5.344064 1 0 sctp 88 -------N 0 1.0 0.0 1 31 89 65535 65535
r 5.368064 0 1 sctp 1500 -------D 0 0.0 1.0 1 42 80 1 20
+ 5.368064 1 0 sctp 92 -------N 0 1.0 0.0 1 31 90 65535 65535
- 5.368064 1 0 sctp 92 -------N 0 1.0 0.0 1 31 90 65535 65535
r 5.45296 1 0 sctp 56 -------N 0 1.0 0.0 1 31 81 65535 65535
+ 5.45296 0 1 sctp 1500 -------D 0 0.0 1.0 1 43 91 0 21
- 5.45296 0 1 sctp 1500 -------D 0 0.0 1.0 1 43 91 0 21
r 5.477024 1 0 sctp 60 -------N 0 1.0 0.0 1 31 82 65535 65535
r 5.501088 1 0 sctp 64 -------N 0 1.0 0.0 1 31 83 65535 65535
d 5.501088 0 1 sctp 1500 -------D 0 0.0 1.0 1 32 92 1 15
r 5.525152 1 0 sctp 68 -------N 0 1.0 0.0 1 31 84 65535 65535
r 5.549216 1 0 sctp 72 -------N 0 1.0 0.0 1 31 85 65535 65535
r 5.57328 1 0 sctp 76 -------N 0 1.0 0.0 1 31 86 65535 65535
r 5.597344 1 0 sctp 80 -------N 0 1.0 0.0 1 31 87 65535 65535
+ 5.597344 0 1 sctp 1500 -------D 0 0.0 1.0 1 44 93 1 21
- 5.597344 0 1 sctp 1500 -------D 0 0.0 1.0 1 44 93 1 21
r 5.621408 1 0 sctp 84 -------N 0 1.0 0.0 1 31 88 65535 65535
+ 5.621408 0 1 sctp 1500 -------D 0 0.0 1.0 1 45 94 0 22
- 5.621408 0 1 sctp 1500 -------D 0 0.0 1.0 1 45 94 0 22
r 5.645472 1 0 sctp 88 -------N 0 1.0 0.0 1 31 89 65535 65535
+ 5.645472 0 1 sctp 1500 -------D 0 0.0 1.0 1 46 95 1 22
- 5.645472 0 1 sctp 1500 -------D 0 0.0 1.0 1 46 95 1 22
r 5.669536 1 0 sctp 92 -------N 0 1.0 0.0 1 31 90 65535 65535
+ 5.669536 0 1 sctp 1500 -------D 0 0.0 1.0 1 47 96 0 23
- 5.669536 0 1 sctp 1500 -------D 0 0.0 1.0 1 47 96 0 23
r 5.77696 0 1 sctp 1500 -------D 0 0.0 1.0 1 43 91 0 21
+ 5.77696 1 0 sctp 96 -------N 0 1.0 0.0 1 31 97 65535 65535
- 5.77696 1 0 sctp 96 -------N 0 1.0 0.0 1 31 97 65535 65535
r 5.921344 0 1 sctp 1500 -------D 0 0.0 1.0 1 44 93 1 21
+ 5.921344 1 0 sctp 100 -------N 0 1.0 0.0 1 31 98 65535 65535
- 5.921344 1 0 sctp 100 -------N 0 1.0 0.0 1 31 98 65535 65535
r 5.945408 0 1 sctp 1500 -------D 0 0.0 1.0 1 45 94 0 22
+ 5.945408 1 0 sctp 104 -------N 0 1.0 0.0 1 31 99 65535 65535
- 5.945408 1 0 sctp 104 -------N 0 1.0 0.0 1 31 99 65535 65535
r 5.969472 0 1 sctp 1500 -------D 0 0.0 1.0 1 46 95 1 22
+ 5.969472 1 0 sctp 108 -------N 0 1.0 0.0 1 31 100 65535 65535
- 5.969472 1 0 sctp 108 -------N 0 1.0 0.0 1 31 100 65535 65535
r 5.993536 0 1 sctp 1500 -------D 0 0.0 1.0 1 47 96 0 23
+ 5.993536 1 0 sctp 112 -------N 0 1.0 0.0 1 31 101 65535 65535
- 5.993536 1 0 sctp 112 -------N 0 1.0 0.0 1 31 101 65535 65535
r 6.078496 1 0 sctp 96 -------N 0 1.0 0.0 1 31 97 65535 65535
+ 6.078496 0 1 sctp 1500 -------D 0 0.0 1.0 1 48 102 1 23
- 6.078496 0 1 sctp 1500 -------D 0 0.0 1.0 1 48 102 1 23
r 6.222944 1 0 sctp 100 -------N 0 1.0 0.0 1 31 98 65535 65535
r 6.247072 1 0 sctp 104 -------N 0 1.0 0.0 1 31 99 65535 65535
+ 6.247072 0 1 sctp 1500 -------D 0 0.0 1.0 1 49 103 0 24
- 6.247072 0 1 sctp 1500 -------D 0 0.0 1.0 1 49 103 0 24
r 6.2712 1 0 sctp 108 -------N 0 1.0 0.0 1 31 100 65535 65535
r 6.295328 1 0 sctp 112 -------N 0 1.0 0.0 1 31 101 65535 65535
+ 6.295328 0 1 sctp 1500 -------D 0 0.0 1.0 1 50 104 1 24
- 6.295328 0 1 sctp 1500 -------D 0 0.0 1.0 1 50 104 1 24
r 6.402496 0 1 sctp 1500 -------D 0 0.0 1.0 1 48 102 1 23
+ 6.402496 1 0 sctp 116 -------N 0 1.0 0.0 1 31 105 65535 65535
- 6.402496 1 0 sctp 116 -------N 0 1.0 0.0 1 31 105 65535 65535
d 6.542961 0 1 sctp 1500 -------D 0 0.0 1.0 1 32 106 1 15
r 6.571072 0 1 sctp 1500 -------D 0 0.0 1.0 1 49 103 0 24
+ 6.571072 1 0 sctp 120 -------N 0 1.0 0.0 1 31 107 65535 65535
- 6.571072 1 0 sctp 120 -------N 0 1.0 0.0 1 31 107 65535 65535
r 6.619328 0 1 sctp 1500 -------D 0 0.0 1.0 1 50 104 1 24
+ 6.619328 1 0 sctp 124 -------N 0 1.0 0.0 1 31 108 65535 65535
- 6.619328 1 0 sctp 124 -------N 0 1.0 0.0 1 31 108 65535 65535
r 6.704352 1 0 sctp 116 -------N 0 1.0 0.0 1 31 105 65535 65535
r 6.872992 1 0 sctp 120 -------N 0 1.0 0.0 1 31 107 65535 65535
r 6.921312 1 0 sctp 124 -------N 0 1.0 0.0 1 31 108 65535 65535
+ 8.542961 0 1 sctp 1500 -------D 0 0.0 1.0 1 32 109 1 15
- 8.542961 0 1 sctp 1500 -------D 0 0.0 1.0 1 32 109 1 15
r 8.866961 0 1 sctp 1500 -------D 0 0.0 1.0 1 32 109 1 15
+ 8.866961 1 0 sctp 52 -------N 0 1.0 0.0 1 50 110 65535 65535
- 8.866961 1 0 sctp 52 -------N 0 1.0 0.0 1 50 110 65535 65535
r 9.167793 1 0 sctp 52 -------N 0 1.0 0.0 1 50 110 65535 65535
+ 9.167793 0 1 sctp 1500 -------D 0 0.0 1.0 1 51 111 0 25
- 9.167793 0 1 sctp 1500 -------D 0 0.0 1.0 1 51 111 0 25
+ 9.167793 0 1 sctp 1500 -------D 0 0.0 1.0 1 52 112 1 25
- 9.191793 0 1 sctp 1500 -------D 0 0.0 1.0 1 52 112 1 25
r 9.491793 0 1 sctp 1500 -------D 0 0.0 1.0 1 51 111 0 25
+ 9.491793 1 0 sctp 52 -------N 0 1.0 0.0 1 51 113 65535 65535
- 9.491793 1 0 sctp 52 -------N 0 1.0 0.0 1 51 113 65535 65535
r 9.515793 0 1 sctp 1500 -------D 0 0.0 1.0 1 52 112 1 25
+ 9.515793 1 0 sctp 52 -------N 0 1.0 0.0 1 52 114 65535 65535
- 9.515793 1 0 sctp 52 -------N 0 1.0 0.0 1 52 114 65535 65535
r 9.792625 1 0 sctp 52 -------N 0 1.0 0.0 1 51 113 65535 65535
+ 9.792625 0 1 sctp 1500 -------D 0 0.0 1.0 1 53 115 0 26
- 9.792625 0 1 sctp 1500 -------D 0 0.0 1.0 1 53 115 0 26
+ 9.792625 0 1 sctp 1500 -------D 0 0.0 1.0 1 54 116 1 26
r 9.816625 1 0 sctp 52 -------N 0 1.0 0.0 1 52 114 65535 65535
+ 9.816625 0 1 sctp 1500 -------D 0 0.0 1.0 1 55 117 0 27
+ 9.816625 0 1 sctp 1500 -------D 0 0.0 1.0 1 56 118 1 27
- 9.816625 0 1 sctp 1500 -------D 0 0.0 1.0 1 54 116 1 26
- 9.840625 0 1 sctp 1500 -------D 0 0.0 1.0 1 55 117 0 27
- 9.864625 0 1 sctp 1500 -------D 0 0.0 1.0 1 56 118 1 27
r 10.116625 0 1 sctp 1500 -------D 0 0.0 1.0 1 53 115 0 26
+ 10.116625 1 0 sctp 52 -------N 0 1.0 0.0 1 53 119 65535 65535
- 10.116625 1 0 sctp 52 -------N 0 1.0 0.0 1 53 119 65535 65535
r 10.140625 0 1 sctp 1500 -------D 0 0.0 1.0 1 54 116 1 26
+ 10.140625 1 0 sctp 52 -------N 0 1.0 0.0 1 54 120 65535 65535
- 10.140625 1 0 sctp 52 -------N 0 1.0 0.0 1 54 120 65535 65535
r 10.164625 0 1 sctp 1500 -------D 0 0.0 1.0 1 55 117 0 27
+ 10.164625 1 0 sctp 52 -------N 0 1.0 0.0 1 55 121 65535 65535
- 10.164625 1 0 sctp 52 -------N 0 1.0 0.0 1 55 121 65535 65535
r 10.188625 0 1 sctp 1500 -------D 0 0.0 1.0 1 56 118 1 27
+ 10.188625 1 0 sctp 52 -------N 0 1.0 0.0 1 56 122 65535 65535
- 10.188625 1 0 sctp 52 -------N 0 1.0 0.0 1 56 122 65535 65535
r 10.417457 1 0 sctp 52 -------N 0 1.0 0.0 1 53 119 65535 65535
+ 10.417457 0 1 sctp 1500 -------D 0 0.0 1.0 1 57 123 0 28
- 10.417457 0 1 sctp 1500 -------D 0 0.0 1.0 1 57 123 0 28
+ 10.417457 0 1 sctp 1500 -------D 0 0.0 1.0 1 58 124 1 28
r 10.441457 1 0 sctp 52 -------N 0 1.0 0.0 1 54 120 65535 65535
+ 10.441457 0 1 sctp 1500 -------D 0 0.0 1.0 1 59 125 0 29
- 10.441457 0 1 sctp 1500 -------D 0 0.0 1.0 1 58 124 1 28
r 10.465457 1 0 sctp 52 -------N 0 1.0 0.0 1 55 121 65535 65535
+ 10.465457 0 1 sctp 1500 -------D 0 0.0 1.0 1 60 126 1 29
- 10.465457 0 1 sctp 1500 -------D 0 0.0 1.0 1 59 125 0 29
r 10.489457 1 0 sctp 52 -------N 0 1.0 0.0 1 56 122 65535 65535
+ 10.489457 0 1 sctp 1500 -------D 0 0.0 1.0 1 61 127 0 30
- 10.489457 0 1 sctp 1500 -------D 0 0.0 1.0 1 60 126 1 29
- 10.513457 0 1 sctp 1500 -------D 0 0.0 1.0 1 61 127 0 30
r 10.741457 0 1 sctp 1500 -------D 0 0.0 1.0 1 57 123 0 28
+ 10.741457 1 0 sctp 52 -------N 0 1.0 0.0 1 57 128 65535 65535
- 10.741457 1 0 sctp 52 -------N 0 1.0 0.0 1 57 128 65535 65535
r 10.765457 0 1 sctp 1500 -------D 0 0.0 1.0 1 58 124 1 28
+ 10.765457 1 0 sctp 52 -------N 0 1.0 0.0 1 58 129 65535 65535
- 10.765457 1 0 sctp 52 -------N 0 1.0 0.0 1 58 129 65535 65535
r 10.789457 0 1 sctp 1500 -------D 0 0.0 1.0 1 59 125 0 29
+ 10.789457 1 0 sctp 52 -------N 0 1.0 0.0 1 59 130 65535 65535
- 10.789457 1 0 sctp 52 -------N 0 1.0 0.0 1 59 130 65535 65535
r 10.813457 0 1 sctp 1500 -------D 0 0.0 1.0 1 60 126 1 29
+ 10.813457 1 0 sctp 52 -------N 0 1.0 0.0 1 60 131 65535 65535
- 10.813457 1 0 sctp 52 -------N 0 1.0 0.0 1 60 131 65535 65535
r 10.837457 0 1 sctp 1500 -------D 0 0.0 1.0 1 61 127 0 30
+ 10.837457 1 0 sctp 52 -------N 0 1.0 0.0 1 61 132 65535 65535
- 10.837457 1 0 sctp 52 -------N 0 1.0 0.0 1 61 132 65535 65535
r 11.042289 1 0 sctp 52 -------N 0 1.0 0.0 1 57 128 65535 65535
+ 11.042289 0 1 sctp 1500 -------D 0 0.0 1.0 1 62 133 1 30
- 11.042289 0 1 sctp 1500 -------D 0 0.0 1.0 1 62 133 1 30
r 11.066289 1 0 sctp 52 -------N 0 1.0 0.0 1 58 129 65535 65535
+ 11.066289 0 1 sctp 1500 -------D 0 0.0 1.0 1 63 134 0 31
+ 11.066289 0 1 sctp 1500 -------D 0 0.0 1.0 1 64 135 1 31
- 11.066289 0 1 sctp 1500 -------D 0 0.0 1.0 1 63 134 0 31
r 11.090289 1 0 sctp 52 -------N 0 1.0 0.0 1 59 130 65535 65535
+ 11.090289 0 1 sctp 1500 -------D 0 0.0 1.0 1 65 136 0 32
- 11.090289 0 1 sctp 1500 -------D 0 0.0 1.0 1 64 135 1 31
r 11.114289 1 0 sctp 52 -------N 0 1.0 0.0 1 60 131 65535 65535
+ 11.114289 0 1 sctp 1500 -------D 0 0.0 1.0 1 66 137 1 32
- 11.114289 0 1 sctp 1500 -------D 0 0.0 1.0 1 65 136 0 32
r 11.138289 1 0 sctp 52 -------N 0 1.0 0.0 1 61 132 65535 65535
+ 11.138289 0 1 sctp 1500 -------D 0 0.0 1.0 1 67 138 0 33
- 11.138289 0 1 sctp 1500 -------D 0 0.0 1.0 1 66 137 1 32
- 11.162289 0 1 sctp 1500 -------D 0 0.0 1.0 1 67 138 0 33
r 11.366289 0 1 sctp 1500 -------D 0 0.0 1.0 1 62 133 1 30
+ 11.366289 1 0 sctp 52 -------N 0 1.0 0.0 1 62 139 65535 65535
- 11.366289 1 0 sctp 52 -------N 0 1.0 0.0 1 62 139 65535 65535
r 11.390289 0 1 sctp 1500 -------D 0 0.0 1.0 1 63 134 0 31
+ 11.390289 1 0 sctp 52 -------N 0 1.0 0.0 1 63 140 65535 65535
- 11.390289 1 0 sctp 52 -------N 0 1.0 0.0 1 63 140 65535 65535
r 11.414289 0 1 sctp 1500 -------D 0 0.0 1.0 1 64 135 1 31
+ 11.414289 1 0 sctp 52 -------N 0 1.0 0.0 1 64 141 65535 65535
- 11.414289 1 0 sctp 52 -------N 0 1.0 0.0 1 64 141 65535 65535
r 11.438289 0 1 sctp 1500 -------D 0 0.0 1.0 1 65 136 0 32
+ 11.438289 1 0 sctp 52 -------N 0 1.0 0.0 1 65 142 65535 65535
- 11.438289 1 0 sctp 52 -------N 0 1.0 0.0 1 65 142 65535 65535
r 11.462289 0 1 sctp 1500 -------D 0 0.0 1.0 1 66 137 1 32
+ 11.462289 1 0 sctp 52 -------N 0 1.0 0.0 1 66 143 65535 65535
- 11.462289 1 0 sctp 52 -------N 0 1.0 0.0 1 66 143 65535 65535
r 11.486289 0 1 sctp 1500 -------D 0 0.0 1.0 1 67 138 0 33
+ 11.486289 1 0 sctp 52 -------N 0 1.0 0.0 1 67 144 65535 65535
- 11.486289 1 0 sctp 52 -------N 0 1.0 0.0 1 67 144 65535 65535
r 11.667121 1 0 sctp 52 -------N 0 1.0 0.0 1 62 139 65535 65535
+ 11.667121 0 1 sctp 1500 -------D 0 0.0 1.0 1 68 145 1 33
- 11.667121 0 1 sctp 1500 -------D 0 0.0 1.0 1 68 145 1 33
r 11.691121 1 0 sctp 52 -------N 0 1.0 0.0 1 63 140 65535 65535
+ 11.691121 0 1 sctp 1500 -------D 0 0.0 1.0 1 69 146 0 34
- 11.691121 0 1 sctp 1500 -------D 0 0.0 1.0 1 69 146 0 34
r 11.715121 1 0 sctp 52 -------N 0 1.0 0.0 1 64 141 65535 65535
+ 11.715121 0 1 sctp 1500 -------D 0 0.0 1.0 1 70 147 1 34
+ 11.715121 0 1 sctp 1500 -------D 0 0.0 1.0 1 71 148 0 35
- 11.715121 0 1 sctp 1500 -------D 0 0.0 1.0 1 70 147 1 34
r 11.739121 1 0 sctp 52 -------N 0 1.0 0.0 1 65 142 65535 65535
+ 11.739121 0 1 sctp 1500 -------D 0 0.0 1.0 1 72 149 1 35
- 11.739121 0 1 sctp 1500 -------D 0 0.0 1.0 1 71 148 0 35
r 11.763121 1 0 sctp 52 -------N 0 1.0 0.0 1 66 143 65535 65535
+ 11.763121 0 1 sctp 1500 -------D 0 0.0 1.0 1 73 150 0 36
- 11.763121 0 1 sctp 1500 -------D 0 0.0 1.0 1 72 149 1 35
r 11.787121 1 0 sctp 52 -------N 0 1.0 0.0 1 67 144 65535 65535
+ 11.787121 0 1 sctp 1500 -------D 0 0.0 1.0 1 74 151 1 36
- 11.787121 0 1 sctp 1500 -------D 0 0.0 1.0 1 73 150 0 36
- 11.811121 0 1 sctp 1500 -------D 0 0.0 1.0 1 74 151 1 36
r 11.991121 0 1 sctp 1500 -------D 0 0.0 1.0 1 68 145 1 33
+ 11.991121 1 0 sctp 52 -------N 0 1.0 0.0 1 68 152 65535 65535
- 11.991121 1 0 sctp 52 -------N 0 1.0 0.0 1 68 152 65535 65535
r 12.015121 0 1 sctp 1500 -------D 0 0.0 1.0 1 69 146 0 34
+ 12.015121 1 0 sctp 52 -------N 0 1.0 0.0 1 69 153 65535 65535
- 12.015121 1 0 sctp 52 -------N 0 1.0 0.0 1 69 153 65535 65535
r 12.039121 0 1 sctp 1500 -------D 0 0.0 1.0 1 70 147 1 34
+ 12.039121 1 0 sctp 52 -------N 0 1.0 0.0 1 70 154 65535 65535
- 12.039121 1 0 sctp 52 -------N 0 1.0 0.0 1 70 154 65535 65535
r 12.063121 0 1 sctp 1500 -------D 0 0.0 1.0 1 71 148 0 35
+ 12.063121 1 0 sctp 52 -------N 0 1.0 0.0 1 71 155 65535 65535
- 12.063121 1 0 sctp 52 -------N 0 1.0 0.0 1 71 155 65535 65535
r 12.087121 0 1 sctp 1500 -------D 0 0.0 1.0 1 72 149 1 35
+ 12.087121 1 0 sctp 52 -------N 0 1.0 0.0 1 72 156 65535 65535
- 12.087121 1 0 sctp 52 -------N 0 1.0 0.0 1 72 156 65535 65535
r 12.111121 0 1 sctp 1500 -------D 0 0.0 1.0 1 73 150 0 36
+ 12.111121 1 0 sctp 52 -------N 0 1.0 0.0 1 73 157 65535 65535
- 12.111121 1 0 sctp 52 -------N 0 1.0 0.0 1 73 157 65535 65535
r 12.135121 0 1 sctp 1500 -------D 0 0.0 1.0 1 74 151 1 36
+ 12.135121 1 0 sctp 52 -------N 0 1.0 0.0 1 74 158 65535 65535
- 12.135121 1 0 sctp 52 -------N 0 1.0 0.0 1 74 158 65535 65535
r 12.291953 1 0 sctp 52 -------N 0 1.0 0.0 1 68 152 65535 65535
+ 12.291953 0 1 sctp 1500 -------D 0 0.0 1.0 1 75 159 0 37
- 12.291953 0 1 sctp 1500 -------D 0 0.0 1.0 1 75 159 0 37
r 12.315953 1 0 sctp 52 -------N 0 1.0 0.0 1 69 153 65535 65535
+ 12.315953 0 1 sctp 1500 -------D 0 0.0 1.0 1 76 160 1 37
- 12.315953 0 1 sctp 1500 -------D 0 0.0 1.0 1 76 160 1 37
r 12.339953 1 0 sctp 52 -------N 0 1.0 0.0 1 70 154 65535 65535
+ 12.339953 0 1 sctp 1500 -------D 0 0.0 1.0 1 77 161 0 38
- 12.339953 0 1 sctp 1500 -------D 0 0.0 1.0 1 77 161 0 38
r 12.363953 1 0 sctp 52 -------N 0 1.0 0.0 1 71 155 65535 65535
+ 12.363953 0 1 sctp 1500 -------D 0 0.0 1.0 1 78 162 1 38
+ 12.363953 0 1 sctp 1500 -------D 0 0.0 1.0 1 79 163 0 39
- 12.363953 0 1 sctp 1500 -------D 0 0.0 1.0 1 78 162 1 38
r 12.387953 1 0 sctp 52 -------N 0 1.0 0.0 1 72 156 65535 65535
+ 12.387953 0 1 sctp 1500 -------D 0 0.0 1.0 1 80 164 1 39
- 12.387953 0 1 sctp 1500 -------D 0 0.0 1.0 1 79 163 0 39
r 12.411953 1 0 sctp 52 -------N 0 1.0 0.0 1 73 157 65535 65535
+ 12.411953 0 1 sctp 1500 -------D 0 0.0 1.0 1 81 165 0 40
- 12.411953 0 1 sctp 1500 -------D 0 0.0 1.0 1 80 164 1 39
r 12.435953 1 0 sctp 52 -------N 0 1.0 0.0 1 74 158 65535 65535
+ 12.435953 0 1 sctp 1500 -------D 0 0.0 1.0 1 82 166 1 40
- 12.435953 0 1 sctp 1500 -------D 0 0.0 1.0 1 81 165 0 40
- 12.459953 0 1 sctp 1500 -------D 0 0.0 1.0 1 82 166 1 40
r 12.615953 0 1 sctp 1500 -------D 0 0.0 1.0 1 75 159 0 37
+ 12.615953 1 0 sctp 52 -------N 0 1.0 0.0 1 75 167 65535 65535
- 12.615953 1 0 sctp 52 -------N 0 1.0 0.0 1 75 167 65535 65535
r 12.639953 0 1 sctp 1500 -------D 0 0.0 1.0 1 76 160 1 37
+ 12.639953 1 0 sctp 52 -------N 0 1.0 0.0 1 76 168 65535 65535
- 12.639953 1 0 sctp 52 -------N 0 1.0 0.0 1 76 168 65535 65535
r 12.663953 0 1 sctp 1500 -------D 0 0.0 1.0 1 77 161 0 38
+ 12.663953 1 0 sctp 52 -------N 0 1.0 0.0 1 77 169 65535 65535
- 12.663953 1 0 sctp 52 -------N 0 1.0 0.0 1 77 169 65535 65535
r 12.687953 0 1 sctp 1500 -------D 0 0.0 1.0 1 78 162 1 38
+ 12.687953 1 0 sctp 52 -------N 0 1.0 0.0 1 78 170 65535 65535
- 12.687953 1 0 sctp 52 -------N 0 1.0 0.0 1 78 170 65535 65535
r 12.711953 0 1 sctp 1500 -------D 0 0.0 1.0 1 79 163 0 39
+ 12.711953 1 0 sctp 52 -------N 0 1.0 0.0 1 79 171 65535 65535
- 12.711953 1 0 sctp 52 -------N 0 1.0 0.0 1 79 171 65535 65535
r 12.735953 0 1 sctp 1500 -------D 0 0.0 1.0 1 80 164 1 39
+ 12.735953 1 0 sctp 52 -------N 0 1.0 0.0 1 80 172 65535 65535
- 12.735953 1 0 sctp 52 -------N 0 1.0 0.0 1 80 172 65535 65535
r 12.759953 0 1 sctp 1500 -------D 0 0.0 1.0 1 81 165 0 40
+ 12.759953 1 0 sctp 52 -------N 0 1.0 0.0 1 81 173 65535 65535
- 12.759953 1 0 sctp 52 -------N 0 1.0 0.0 1 81 173 65535 65535