+ 0.5 0 1 sctp 56 -------I 0 0.0 1.0 1 -1 2 65535 65535
- 0.5 0 1 sctp 56 -------I 0 0.0 1.0 1 -1 2 65535 65535
r 0.700896 0 1 sctp 56 -------I 0 0.0 1.0 1 -1 2 65535 65535
+ 0.700896 1 0 sctp 56 -------I 0 1.0 0.0 1 -1 3 65535 65535
- 0.700896 1 0 sctp 56 -------I 0 1.0 0.0 1 -1 3 65535 65535
r 0.901792 1 0 sctp 56 -------I 0 1.0 0.0 1 -1 3 65535 65535
+ 0.901792 0 1 sctp 36 -------I 0 0.0 1.0 1 -1 4 65535 65535
- 0.901792 0 1 sctp 36 -------I 0 0.0 1.0 1 -1 4 65535 65535
r 1.102368 0 1 sctp 36 -------I 0 0.0 1.0 1 -1 4 65535 65535
+ 1.102368 1 0 sctp 36 -------I 0 1.0 0.0 1 -1 5 65535 65535
- 1.102368 1 0 sctp 36 -------I 0 1.0 0.0 1 -1 5 65535 65535
r 1.302944 1 0 sctp 36 -------I 0 1.0 0.0 1 -1 5 65535 65535
+ 1.302944 0 1 sctp 56 -------H 0 0.0 1.0 1 -1 6 65535 65535
- 1.302944 0 1 sctp 56 -------H 0 0.0 1.0 1 -1 6 65535 65535
r 1.50384 0 1 sctp 56 -------H 0 0.0 1.0 1 -1 6 65535 65535
+ 1.50384 1 0 sctp 56 -------B 0 1.0 0.0 1 -1 7 65535 65535
- 1.50384 1 0 sctp 56 -------B 0 1.0 0.0 1 -1 7 65535 65535
r 1.704736 1 0 sctp 56 -------B 0 1.0 0.0 1 -1 7 65535 65535
+ 1.704736 0 1 sctp 1500 -------D 0 0.0 1.0 1 1 8 0 0
- 1.704736 0 1 sctp 1500 -------D 0 0.0 1.0 1 1 8 0 0
+ 1.704736 0 1 sctp 1500 -------D 0 0.0 1.0 1 2 9 0 1
+ 1.704736 0 1 sctp 1500 -------D 0 0.0 1.0 1 3 10 0 2
- 1.728736 0 1 sctp 1500 -------D 0 0.0 1.0 1 2 9 0 1
- 1.752736 0 1 sctp 1500 -------D 0 0.0 1.0 1 3 10 0 2
r 1.928736 0 1 sctp 1500 -------D 0 0.0 1.0 1 1 8 0 0
+ 1.928736 1 0 sctp 48 -------S 0 1.0 0.0 1 1 11 65535 65535
- 1.928736 1 0 sctp 48 -------S 0 1.0 0.0 1 1 11 65535 65535
r 1.952736 0 1 sctp 1500 -------D 0 0.0 1.0 1 2 9 0 1
+ 1.952736 1 0 sctp 48 -------S 0 1.0 0.0 1 2 12 65535 65535
- 1.952736 1 0 sctp 48 -------S 0 1.0 0.0 1 2 12 65535 65535
r 1.976736 0 1 sctp 1500 -------D 0 0.0 1.0 1 3 10 0 2
+ 1.976736 1 0 sctp 48 -------S 0 1.0 0.0 1 3 13 65535 65535
- 1.976736 1 0 sctp 48 -------S 0 1.0 0.0 1 3 13 65535 65535
r 2.129504 1 0 sctp 48 -------S 0 1.0 0.0 1 1 11 65535 65535
+ 2.129504 0 1 sctp 1500 -------D 0 0.0 1.0 1 4 14 0 3
- 2.129504 0 1 sctp 1500 -------D 0 0.0 1.0 1 4 14 0 3
+ 2.129504 0 1 sctp 1500 -------D 0 0.0 1.0 1 5 15 0 4
r 2.153504 1 0 sctp 48 -------S 0 1.0 0.0 1 2 12 65535 65535
+ 2.153504 0 1 sctp 1500 -------D 0 0.0 1.0 1 6 16 0 5
+ 2.153504 0 1 sctp 1500 -------D 0 0.0 1.0 1 7 17 0 6
- 2.153504 0 1 sctp 1500 -------D 0 0.0 1.0 1 5 15 0 4
r 2.177504 1 0 sctp 48 -------S 0 1.0 0.0 1 3 13 65535 65535
+ 2.177504 0 1 sctp 1500 -------D 0 0.0 1.0 1 8 18 0 7
+ 2.177504 0 1 sctp 1500 -------D 0 0.0 1.0 1 9 19 0 8
- 2.177504 0 1 sctp 1500 -------D 0 0.0 1.0 1 6 16 0 5
- 2.201504 0 1 sctp 1500 -------D 0 0.0 1.0 1 7 17 0 6
- 2.225504 0 1 sctp 1500 -------D 0 0.0 1.0 1 8 18 0 7
- 2.249504 0 1 sctp 1500 -------D 0 0.0 1.0 1 9 19 0 8
r 2.353504 0 1 sctp 1500 -------D 0 0.0 1.0 1 4 14 0 3
+ 2.353504 1 0 sctp 48 -------S 0 1.0 0.0 1 4 20 65535 65535
- 2.353504 1 0 sctp 48 -------S 0 1.0 0.0 1 4 20 65535 65535
r 2.377504 0 1 sctp 1500 -------D 0 0.0 1.0 1 5 15 0 4
+ 2.377504 1 0 sctp 48 -------S 0 1.0 0.0 1 5 21 65535 65535
- 2.377504 1 0 sctp 48 -------S 0 1.0 0.0 1 5 21 65535 65535
r 2.401504 0 1 sctp 1500 -------D 0 0.0 1.0 1 6 16 0 5
+ 2.401504 1 0 sctp 48 -------S 0 1.0 0.0 1 6 22 65535 65535
- 2.401504 1 0 sctp 48 -------S 0 1.0 0.0 1 6 22 65535 65535
r 2.425504 0 1 sctp 1500 -------D 0 0.0 1.0 1 7 17 0 6
+ 2.425504 1 0 sctp 48 -------S 0 1.0 0.0 1 7 23 65535 65535
- 2.425504 1 0 sctp 48 -------S 0 1.0 0.0 1 7 23 65535 65535
r 2.449504 0 1 sctp 1500 -------D 0 0.0 1.0 1 8 18 0 7
+ 2.449504 1 0 sctp 48 -------S 0 1.0 0.0 1 8 24 65535 65535
- 2.449504 1 0 sctp 48 -------S 0 1.0 0.0 1 8 24 65535 65535
r 2.473504 0 1 sctp 1500 -------D 0 0.0 1.0 1 9 19 0 8
+ 2.473504 1 0 sctp 48 -------S 0 1.0 0.0 1 9 25 65535 65535
- 2.473504 1 0 sctp 48 -------S 0 1.0 0.0 1 9 25 65535 65535
r 2.554272 1 0 sctp 48 -------S 0 1.0 0.0 1 4 20 65535 65535
+ 2.554272 0 1 sctp 1500 -------D 0 0.0 1.0 1 10 26 0 9
- 2.554272 0 1 sctp 1500 -------D 0 0.0 1.0 1 10 26 0 9
+ 2.554272 0 1 sctp 1500 -------D 0 0.0 1.0 1 11 27 0 10
r 2.578272 1 0 sctp 48 -------S 0 1.0 0.0 1 5 21 65535 65535
+ 2.578272 0 1 sctp 1500 -------D 0 0.0 1.0 1 12 28 0 11
+ 2.578272 0 1 sctp 1500 -------D 0 0.0 1.0 1 13 29 0 12
- 2.578272 0 1 sctp 1500 -------D 0 0.0 1.0 1 11 27 0 10
r 2.602272 1 0 sctp 48 -------S 0 1.0 0.0 1 6 22 65535 65535
+ 2.602272 0 1 sctp 1500 -------D 0 0.0 1.0 1 14 30 0 13
d 2.602272 0 1 sctp 1500 -------D 0 0.0 1.0 1 15 31 0 14
- 2.602272 0 1 sctp 1500 -------D 0 0.0 1.0 1 12 28 0 11
r 2.626272 1 0 sctp 48 -------S 0 1.0 0.0 1 7 23 65535 65535
+ 2.626272 0 1 sctp 1500 -------D 0 0.0 1.0 1 16 32 0 15
+ 2.626272 0 1 sctp 1500 -------D 0 0.0 1.0 1 17 33 0 16
- 2.626272 0 1 sctp 1500 -------D 0 0.0 1.0 1 13 29 0 12
r 2.650272 1 0 sctp 48 -------S 0 1.0 0.0 1 8 24 65535 65535
+ 2.650272 0 1 sctp 1500 -------D 0 0.0 1.0 1 18 34 0 17
+ 2.650272 0 1 sctp 1500 -------D 0 0.0 1.0 1 19 35 0 18
- 2.650272 0 1 sctp 1500 -------D 0 0.0 1.0 1 14 30 0 13
r 2.674272 1 0 sctp 48 -------S 0 1.0 0.0 1 9 25 65535 65535
+ 2.674272 0 1 sctp 1500 -------D 0 0.0 1.0 1 20 36 0 19
+ 2.674272 0 1 sctp 1500 -------D 0 0.0 1.0 1 21 37 0 20
- 2.674272 0 1 sctp 1500 -------D 0 0.0 1.0 1 16 32 0 15
- 2.698272 0 1 sctp 1500 -------D 0 0.0 1.0 1 17 33 0 16
- 2.722272 0 1 sctp 1500 -------D 0 0.0 1.0 1 18 34 0 17
- 2.746272 0 1 sctp 1500 -------D 0 0.0 1.0 1 19 35 0 18
- 2.770272 0 1 sctp 1500 -------D 0 0.0 1.0 1 20 36 0 19
r 2.778272 0 1 sctp 1500 -------D 0 0.0 1.0 1 10 26 0 9
+ 2.778272 1 0 sctp 48 -------S 0 1.0 0.0 1 10 38 65535 65535
- 2.778272 1 0 sctp 48 -------S 0 1.0 0.0 1 10 38 65535 65535
- 2.794272 0 1 sctp 1500 -------D 0 0.0 1.0 1 21 37 0 20
r 2.802272 0 1 sctp 1500 -------D 0 0.0 1.0 1 11 27 0 10
+ 2.802272 1 0 sctp 48 -------S 0 1.0 0.0 1 11 39 65535 65535
- 2.802272 1 0 sctp 48 -------S 0 1.0 0.0 1 11 39 65535 65535
r 2.826272 0 1 sctp 1500 -------D 0 0.0 1.0 1 12 28 0 11
+ 2.826272 1 0 sctp 48 -------S 0 1.0 0.0 1 12 40 65535 65535
- 2.826272 1 0 sctp 48 -------S 0 1.0 0.0 1 12 40 65535 65535
r 2.850272 0 1 sctp 1500 -------D 0 0.0 1.0 1 13 29 0 12
+ 2.850272 1 0 sctp 48 -------S 0 1.0 0.0 1 13 41 65535 65535
- 2.850272 1 0 sctp 48 -------S 0 1.0 0.0 1 13 41 65535 65535
r 2.874272 0 1 sctp 1500 -------D 0 0.0 1.0 1 14 30 0 13
+ 2.874272 1 0 sctp 48 -------S 0 1.0 0.0 1 14 42 65535 65535
- 2.874272 1 0 sctp 48 -------S 0 1.0 0.0 1 14 42 65535 65535
r 2.898272 0 1 sctp 1500 -------D 0 0.0 1.0 1 16 32 0 15
+ 2.898272 1 0 sctp 52 -------S 0 1.0 0.0 1 14 43 65535 65535
- 2.898272 1 0 sctp 52 -------S 0 1.0 0.0 1 14 43 65535 65535
r 2.922272 0 1 sctp 1500 -------D 0 0.0 1.0 1 17 33 0 16
+ 2.922272 1 0 sctp 52 -------S 0 1.0 0.0 1 14 44 65535 65535
- 2.922272 1 0 sctp 52 -------S 0 1.0 0.0 1 14 44 65535 65535
r 2.946272 0 1 sctp 1500 -------D 0 0.0 1.0 1 18 34 0 17
+ 2.946272 1 0 sctp 52 -------S 0 1.0 0.0 1 14 45 65535 65535
- 2.946272 1 0 sctp 52 -------S 0 1.0 0.0 1 14 45 65535 65535
r 2.970272 0 1 sctp 1500 -------D 0 0.0 1.0 1 19 35 0 18
+ 2.970272 1 0 sctp 52 -------S 0 1.0 0.0 1 14 46 65535 65535
- 2.970272 1 0 sctp 52 -------S 0 1.0 0.0 1 14 46 65535 65535
r 2.97904 1 0 sctp 48 -------S 0 1.0 0.0 1 10 38 65535 65535
+ 2.97904 0 1 sctp 1500 -------D 0 0.0 1.0 1 22 47 0 21
- 2.97904 0 1 sctp 1500 -------D 0 0.0 1.0 1 22 47 0 21
+ 2.97904 0 1 sctp 1500 -------D 0 0.0 1.0 1 23 48 0 22
r 2.994272 0 1 sctp 1500 -------D 0 0.0 1.0 1 20 36 0 19
+ 2.994272 1 0 sctp 52 -------S 0 1.0 0.0 1 14 49 65535 65535
- 2.994272 1 0 sctp 52 -------S 0 1.0 0.0 1 14 49 65535 65535
r 3.00304 1 0 sctp 48 -------S 0 1.0 0.0 1 11 39 65535 65535
+ 3.00304 0 1 sctp 1500 -------D 0 0.0 1.0 1 24 50 0 23
+ 3.00304 0 1 sctp 1500 -------D 0 0.0 1.0 1 25 51 0 24
- 3.00304 0 1 sctp 1500 -------D 0 0.0 1.0 1 23 48 0 22
r 3.018272 0 1 sctp 1500 -------D 0 0.0 1.0 1 21 37 0 20
+ 3.018272 1 0 sctp 52 -------S 0 1.0 0.0 1 14 52 65535 65535
- 3.018272 1 0 sctp 52 -------S 0 1.0 0.0 1 14 52 65535 65535
r 3.02704 1 0 sctp 48 -------S 0 1.0 0.0 1 12 40 65535 65535
+ 3.02704 0 1 sctp 1500 -------D 0 0.0 1.0 1 26 53 0 25
d 3.02704 0 1 sctp 1500 -------D 0 0.0 1.0 1 27 54 0 26
- 3.02704 0 1 sctp 1500 -------D 0 0.0 1.0 1 24 50 0 23
r 3.05104 1 0 sctp 48 -------S 0 1.0 0.0 1 13 41 65535 65535
+ 3.05104 0 1 sctp 1500 -------D 0 0.0 1.0 1 28 55 0 27
d 3.05104 0 1 sctp 1500 -------D 0 0.0 1.0 1 29 56 0 28
- 3.05104 0 1 sctp 1500 -------D 0 0.0 1.0 1 25 51 0 24
r 3.07504 1 0 sctp 48 -------S 0 1.0 0.0 1 14 42 65535 65535
+ 3.07504 0 1 sctp 1500 -------D 0 0.0 1.0 1 30 57 0 29
+ 3.07504 0 1 sctp 1500 -------D 0 0.0 1.0 1 31 58 0 30
- 3.07504 0 1 sctp 1500 -------D 0 0.0 1.0 1 26 53 0 25
- 3.09904 0 1 sctp 1500 -------D 0 0.0 1.0 1 28 55 0 27
r 3.099104 1 0 sctp 52 -------S 0 1.0 0.0 1 14 43 65535 65535
+ 3.099104 0 1 sctp 1500 -------D 0 0.0 1.0 1 32 59 0 31
- 3.12304 0 1 sctp 1500 -------D 0 0.0 1.0 1 30 57 0 29
r 3.123104 1 0 sctp 52 -------S 0 1.0 0.0 1 14 44 65535 65535
+ 3.123104 0 1 sctp 1500 -------D 0 0.0 1.0 1 33 60 0 32
- 3.14704 0 1 sctp 1500 -------D 0 0.0 1.0 1 31 58 0 30
r 3.147104 1 0 sctp 52 -------S 0 1.0 0.0 1 14 45 65535 65535
+ 3.147104 0 1 sctp 1500 -------D 0 0.0 1.0 1 15 61 0 14
- 3.17104 0 1 sctp 1500 -------D 0 0.0 1.0 1 32 59 0 31
r 3.171104 1 0 sctp 52 -------S 0 1.0 0.0 1 14 46 65535 65535
- 3.19504 0 1 sctp 1500 -------D 0 0.0 1.0 1 33 60 0 32
r 3.195104 1 0 sctp 52 -------S 0 1.0 0.0 1 14 49 65535 65535
r 3.20304 0 1 sctp 1500 -------D 0 0.0 1.0 1 22 47 0 21
+ 3.20304 1 0 sctp 52 -------S 0 1.0 0.0 1 14 62 65535 65535
- 3.20304 1 0 sctp 52 -------S 0 1.0 0.0 1 14 62 65535 65535
- 3.21904 0 1 sctp 1500 -------D 0 0.0 1.0 1 15 61 0 14
r 3.219104 1 0 sctp 52 -------S 0 1.0 0.0 1 14 52 65535 65535
r 3.22704 0 1 sctp 1500 -------D 0 0.0 1.0 1 23 48 0 22
+ 3.22704 1 0 sctp 52 -------S 0 1.0 0.0 1 14 63 65535 65535
- 3.22704 1 0 sctp 52 -------S 0 1.0 0.0 1 14 63 65535 65535
r 3.25104 0 1 sctp 1500 -------D 0 0.0 1.0 1 24 50 0 23
+ 3.25104 1 0 sctp 52 -------S 0 1.0 0.0 1 14 64 65535 65535
- 3.25104 1 0 sctp 52 -------S 0 1.0 0.0 1 14 64 65535 65535
r 3.27504 0 1 sctp 1500 -------D 0 0.0 1.0 1 25 51 0 24
+ 3.27504 1 0 sctp 52 -------S 0 1.0 0.0 1 14 65 65535 65535
- 3.27504 1 0 sctp 52 -------S 0 1.0 0.0 1 14 65 65535 65535
r 3.29904 0 1 sctp 1500 -------D 0 0.0 1.0 1 26 53 0 25
+ 3.29904 1 0 sctp 52 -------S 0 1.0 0.0 1 14 66 65535 65535
- 3.29904 1 0 sctp 52 -------S 0 1.0 0.0 1 14 66 65535 65535
r 3.32304 0 1 sctp 1500 -------D 0 0.0 1.0 1 28 55 0 27
+ 3.32304 1 0 sctp 56 -------S 0 1.0 0.0 1 14 67 65535 65535
- 3.32304 1 0 sctp 56 -------S 0 1.0 0.0 1 14 67 65535 65535
r 3.34704 0 1 sctp 1500 -------D 0 0.0 1.0 1 30 57 0 29
+ 3.34704 1 0 sctp 60 -------S 0 1.0 0.0 1 14 68 65535 65535
- 3.34704 1 0 sctp 60 -------S 0 1.0 0.0 1 14 68 65535 65535
r 3.37104 0 1 sctp 1500 -------D 0 0.0 1.0 1 31 58 0 30
+ 3.37104 1 0 sctp 60 -------S 0 1.0 0.0 1 14 69 65535 65535
- 3.37104 1 0 sctp 60 -------S 0 1.0 0.0 1 14 69 65535 65535
r 3.39504 0 1 sctp 1500 -------D 0 0.0 1.0 1 32 59 0 31
+ 3.39504 1 0 sctp 60 -------S 0 1.0 0.0 1 14 70 65535 65535
- 3.39504 1 0 sctp 60 -------S 0 1.0 0.0 1 14 70 65535 65535
r 3.403872 1 0 sctp 52 -------S 0 1.0 0.0 1 14 62 65535 65535
r 3.41904 0 1 sctp 1500 -------D 0 0.0 1.0 1 33 60 0 32
+ 3.41904 1 0 sctp 60 -------S 0 1.0 0.0 1 14 71 65535 65535
- 3.41904 1 0 sctp 60 -------S 0 1.0 0.0 1 14 71 65535 65535
r 3.427872 1 0 sctp 52 -------S 0 1.0 0.0 1 14 63 65535 65535
r 3.44304 0 1 sctp 1500 -------D 0 0.0 1.0 1 15 61 0 14
+ 3.44304 1 0 sctp 56 -------S 0 1.0 0.0 1 26 72 65535 65535
- 3.44304 1 0 sctp 56 -------S 0 1.0 0.0 1 26 72 65535 65535
r 3.451872 1 0 sctp 52 -------S 0 1.0 0.0 1 14 64 65535 65535
r 3.475872 1 0 sctp 52 -------S 0 1.0 0.0 1 14 65 65535 65535
r 3.499872 1 0 sctp 52 -------S 0 1.0 0.0 1 14 66 65535 65535
+ 3.499872 0 1 sctp 1500 -------D 0 0.0 1.0 1 34 73 0 33
- 3.499872 0 1 sctp 1500 -------D 0 0.0 1.0 1 34 73 0 33
r 3.523936 1 0 sctp 56 -------S 0 1.0 0.0 1 14 67 65535 65535
+ 3.523936 0 1 sctp 1500 -------D 0 0.0 1.0 1 35 74 0 34
- 3.523936 0 1 sctp 1500 -------D 0 0.0 1.0 1 35 74 0 34
r 3.548 1 0 sctp 60 -------S 0 1.0 0.0 1 14 68 65535 65535
+ 3.548 0 1 sctp 1500 -------D 0 0.0 1.0 1 36 75 0 35
- 3.548 0 1 sctp 1500 -------D 0 0.0 1.0 1 36 75 0 35
r 3.572 1 0 sctp 60 -------S 0 1.0 0.0 1 14 69 65535 65535
+ 3.572 0 1 sctp 1500 -------D 0 0.0 1.0 1 27 76 0 26
+ 3.572 0 1 sctp 1500 -------D 0 0.0 1.0 1 37 77 0 36
- 3.572 0 1 sctp 1500 -------D 0 0.0 1.0 1 27 76 0 26
r 3.596 1 0 sctp 60 -------S 0 1.0 0.0 1 14 70 65535 65535
+ 3.596 0 1 sctp 1500 -------D 0 0.0 1.0 1 29 78 0 28
+ 3.596 0 1 sctp 1500 -------D 0 0.0 1.0 1 38 79 0 37
- 3.596 0 1 sctp 1500 -------D 0 0.0 1.0 1 37 77 0 36
r 3.62 1 0 sctp 60 -------S 0 1.0 0.0 1 14 71 65535 65535
+ 3.62 0 1 sctp 1500 -------D 0 0.0 1.0 1 39 80 0 38
- 3.62 0 1 sctp 1500 -------D 0 0.0 1.0 1 29 78 0 28
r 3.643936 1 0 sctp 56 -------S 0 1.0 0.0 1 26 72 65535 65535
+ 3.643936 0 1 sctp 1500 -------D 0 0.0 1.0 1 40 81 0 39
- 3.644 0 1 sctp 1500 -------D 0 0.0 1.0 1 38 79 0 37
- 3.668 0 1 sctp 1500 -------D 0 0.0 1.0 1 39 80 0 38
- 3.692 0 1 sctp 1500 -------D 0 0.0 1.0 1 40 81 0 39
r 3.723872 0 1 sctp 1500 -------D 0 0.0 1.0 1 34 73 0 33
+ 3.723872 1 0 sctp 56 -------S 0 1.0 0.0 1 26 82 65535 65535
- 3.723872 1 0 sctp 56 -------S 0 1.0 0.0 1 26 82 65535 65535
r 3.747936 0 1 sctp 1500 -------D 0 0.0 1.0 1 35 74 0 34
+ 3.747936 1 0 sctp 56 -------S 0 1.0 0.0 1 26 83 65535 65535
- 3.747936 1 0 sctp 56 -------S 0 1.0 0.0 1 26 83 65535 65535
r 3.772 0 1 sctp 1500 -------D 0 0.0 1.0 1 36 75 0 35
+ 3.772 1 0 sctp 56 -------S 0 1.0 0.0 1 26 84 65535 65535
- 3.772 1 0 sctp 56 -------S 0 1.0 0.0 1 26 84 65535 65535
r 3.796 0 1 sctp 1500 -------D 0 0.0 1.0 1 27 76 0 26
+ 3.796 1 0 sctp 52 -------S 0 1.0 0.0 1 28 85 65535 65535
- 3.796 1 0 sctp 52 -------S 0 1.0 0.0 1 28 85 65535 65535
r 3.82 0 1 sctp 1500 -------D 0 0.0 1.0 1 37 77 0 36
+ 3.82 1 0 sctp 52 -------S 0 1.0 0.0 1 28 86 65535 65535
- 3.82 1 0 sctp 52 -------S 0 1.0 0.0 1 28 86 65535 65535
r 3.844 0 1 sctp 1500 -------D 0 0.0 1.0 1 29 78 0 28
+ 3.844 1 0 sctp 48 -------S 0 1.0 0.0 1 37 87 65535 65535
- 3.844 1 0 sctp 48 -------S 0 1.0 0.0 1 37 87 65535 65535
r 3.868 0 1 sctp 1500 -------D 0 0.0 1.0 1 38 79 0 37
+ 3.868 1 0 sctp 48 -------S 0 1.0 0.0 1 38 88 65535 65535
- 3.868 1 0 sctp 48 -------S 0 1.0 0.0 1 38 88 65535 65535
r 3.892 0 1 sctp 1500 -------D 0 0.0 1.0 1 39 80 0 38
+ 3.892 1 0 sctp 48 -------S 0 1.0 0.0 1 39 89 65535 65535
- 3.892 1 0 sctp 48 -------S 0 1.0 0.0 1 39 89 65535 65535
r 3.916 0 1 sctp 1500 -------D 0 0.0 1.0 1 40 81 0 39
+ 3.916 1 0 sctp 48 -------S 0 1.0 0.0 1 40 90 65535 65535
- 3.916 1 0 sctp 48 -------S 0 1.0 0.0 1 40 90 65535 65535
r 3.924768 1 0 sctp 56 -------S 0 1.0 0.0 1 26 82 65535 65535
+ 3.924768 0 1 sctp 1500 -------D 0 0.0 1.0 1 41 91 0 40
- 3.924768 0 1 sctp 1500 -------D 0 0.0 1.0 1 41 91 0 40
r 3.948832 1 0 sctp 56 -------S 0 1.0 0.0 1 26 83 65535 65535
+ 3.948832 0 1 sctp 1500 -------D 0 0.0 1.0 1 42 92 0 41
- 3.948832 0 1 sctp 1500 -------D 0 0.0 1.0 1 42 92 0 41
r 3.972896 1 0 sctp 56 -------S 0 1.0 0.0 1 26 84 65535 65535
+ 3.972896 0 1 sctp 1500 -------D 0 0.0 1.0 1 43 93 0 42
- 3.972896 0 1 sctp 1500 -------D 0 0.0 1.0 1 43 93 0 42
r 3.996832 1 0 sctp 52 -------S 0 1.0 0.0 1 28 85 65535 65535
+ 3.996832 0 1 sctp 1500 -------D 0 0.0 1.0 1 44 94 0 43
- 3.996896 0 1 sctp 1500 -------D 0 0.0 1.0 1 44 94 0 43
r 4.020832 1 0 sctp 52 -------S 0 1.0 0.0 1 28 86 65535 65535
+ 4.020832 0 1 sctp 1500 -------D 0 0.0 1.0 1 45 95 0 44
- 4.020896 0 1 sctp 1500 -------D 0 0.0 1.0 1 45 95 0 44
r 4.044768 1 0 sctp 48 -------S 0 1.0 0.0 1 37 87 65535 65535
+ 4.044768 0 1 sctp 1500 -------D 0 0.0 1.0 1 46 96 0 45
+ 4.044768 0 1 sctp 1500 -------D 0 0.0 1.0 1 47 97 0 46
- 4.044896 0 1 sctp 1500 -------D 0 0.0 1.0 1 46 96 0 45
r 4.068768 1 0 sctp 48 -------S 0 1.0 0.0 1 38 88 65535 65535
+ 4.068768 0 1 sctp 1500 -------D 0 0.0 1.0 1 48 98 0 47
- 4.068896 0 1 sctp 1500 -------D 0 0.0 1.0 1 47 97 0 46
r 4.092768 1 0 sctp 48 -------S 0 1.0 0.0 1 39 89 65535 65535
+ 4.092768 0 1 sctp 1500 -------D 0 0.0 1.0 1 49 99 0 48
- 4.092896 0 1 sctp 1500 -------D 0 0.0 1.0 1 48 98 0 47
r 4.116768 1 0 sctp 48 -------S 0 1.0 0.0 1 40 90 65535 65535
+ 4.116768 0 1 sctp 1500 -------D 0 0.0 1.0 1 50 100 0 49
- 4.116896 0 1 sctp 1500 -------D 0 0.0 1.0 1 49 99 0 48
- 4.140896 0 1 sctp 1500 -------D 0 0.0 1.0 1 50 100 0 49
r 4.148768 0 1 sctp 1500 -------D 0 0.0 1.0 1 41 91 0 40
+ 4.148768 1 0 sctp 48 -------S 0 1.0 0.0 1 41 101 65535 65535
- 4.148768 1 0 sctp 48 -------S 0 1.0 0.0 1 41 101 65535 65535
r 4.172832 0 1 sctp 1500 -------D 0 0.0 1.0 1 42 92 0 41
+ 4.172832 1 0 sctp 48 -------S 0 1.0 0.0 1 42 102 65535 65535
- 4.172832 1 0 sctp 48 -------S 0 1.0 0.0 1 42 102 65535 65535
r 4.196896 0 1 sctp 1500 -------D 0 0.0 1.0 1 43 93 0 42
+ 4.196896 1 0 sctp 48 -------S 0 1.0 0.0 1 43 103 65535 65535
- 4.196896 1 0 sctp 48 -------S 0 1.0 0.0 1 43 103 65535 65535
r 4.220896 0 1 sctp 1500 -------D 0 0.0 1.0 1 44 94 0 43
+ 4.220896 1 0 sctp 48 -------S 0 1.0 0.0 1 44 104 65535 65535
- 4.220896 1 0 sctp 48 -------S 0 1.0 0.0 1 44 104 65535 65535
r 4.244896 0 1 sctp 1500 -------D 0 0.0 1.0 1 45 95 0 44
+ 4.244896 1 0 sctp 48 -------S 0 1.0 0.0 1 45 105 65535 65535
- 4.244896 1 0 sctp 48 -------S 0 1.0 0.0 1 45 105 65535 65535
r 4.268896 0 1 sctp 1500 -------D 0 0.0 1.0 1 46 96 0 45
+ 4.268896 1 0 sctp 48 -------S 0 1.0 0.0 1 46 106 65535 65535
- 4.268896 1 0 sctp 48 -------S 0 1.0 0.0 1 46 106 65535 65535
r 4.292896 0 1 sctp 1500 -------D 0 0.0 1.0 1 47 97 0 46
+ 4.292896 1 0 sctp 48 -------S 0 1.0 0.0 1 47 107 65535 65535
- 4.292896 1 0 sctp 48 -------S 0 1.0 0.0 1 47 107 65535 65535
r 4.316896 0 1 sctp 1500 -------D 0 0.0 1.0 1 48 98 0 47
+ 4.316896 1 0 sctp 48 -------S 0 1.0 0.0 1 48 108 65535 65535
- 4.316896 1 0 sctp 48 -------S 0 1.0 0.0 1 48 108 65535 65535
r 4.340896 0 1 sctp 1500 -------D 0 0.0 1.0 1 49 99 0 48
+ 4.340896 1 0 sctp 48 -------S 0 1.0 0.0 1 49 109 65535 65535
- 4.340896 1 0 sctp 48 -------S 0 1.0 0.0 1 49 109 65535 65535
r 4.349536 1 0 sctp 48 -------S 0 1.0 0.0 1 41 101 65535 65535
+ 4.349536 0 1 sctp 1500 -------D 0 0.0 1.0 1 51 110 0 50
- 4.349536 0 1 sctp 1500 -------D 0 0.0 1.0 1 51 110 0 50
r 4.364896 0 1 sctp 1500 -------D 0 0.0 1.0 1 50 100 0 49
+ 4.364896 1 0 sctp 48 -------S 0 1.0 0.0 1 50 111 65535 65535
- 4.364896 1 0 sctp 48 -------S 0 1.0 0.0 1 50 111 65535 65535
r 4.3736 1 0 sctp 48 -------S 0 1.0 0.0 1 42 102 65535 65535
+ 4.3736 0 1 sctp 1500 -------D 0 0.0 1.0 1 52 112 0 51
- 4.3736 0 1 sctp 1500 -------D 0 0.0 1.0 1 52 112 0 51
r 4.397664 1 0 sctp 48 -------S 0 1.0 0.0 1 43 103 65535 65535
+ 4.397664 0 1 sctp 1500 -------D 0 0.0 1.0 1 53 113 0 52
- 4.397664 0 1 sctp 1500 -------D 0 0.0 1.0 1 53 113 0 52
r 4.421664 1 0 sctp 48 -------S 0 1.0 0.0 1 44 104 65535 65535
+ 4.421664 0 1 sctp 1500 -------D 0 0.0 1.0 1 54 114 0 53
- 4.421664 0 1 sctp 1500 -------D 0 0.0 1.0 1 54 114 0 53
r 4.445664 1 0 sctp 48 -------S 0 1.0 0.0 1 45 105 65535 65535
+ 4.445664 0 1 sctp 1500 -------D 0 0.0 1.0 1 55 115 0 54
- 4.445664 0 1 sctp 1500 -------D 0 0.0 1.0 1 55 115 0 54
r 4.469664 1 0 sctp 48 -------S 0 1.0 0.0 1 46 106 65535 65535
+ 4.469664 0 1 sctp 1500 -------D 0 0.0 1.0 1 56 116 0 55
- 4.469664 0 1 sctp 1500 -------D 0 0.0 1.0 1 56 116 0 55
r 4.493664 1 0 sctp 48 -------S 0 1.0 0.0 1 47 107 65535 65535
+ 4.493664 0 1 sctp 1500 -------D 0 0.0 1.0 1 57 117 0 56
+ 4.493664 0 1 sctp 1500 -------D 0 0.0 1.0 1 58 118 0 57
- 4.493664 0 1 sctp 1500 -------D 0 0.0 1.0 1 57 117 0 56
r 4.517664 1 0 sctp 48 -------S 0 1.0 0.0 1 48 108 65535 65535
+ 4.517664 0 1 sctp 1500 -------D 0 0.0 1.0 1 59 119 0 58
- 4.517664 0 1 sctp 1500 -------D 0 0.0 1.0 1 58 118 0 57
r 4.541664 1 0 sctp 48 -------S 0 1.0 0.0 1 49 109 65535 65535
+ 4.541664 0 1 sctp 1500 -------D 0 0.0 1.0 1 60 120 0 59
- 4.541664 0 1 sctp 1500 -------D 0 0.0 1.0 1 59 119 0 58
r 4.565664 1 0 sctp 48 -------S 0 1.0 0.0 1 50 111 65535 65535
+ 4.565664 0 1 sctp 1500 -------D 0 0.0 1.0 1 61 121 0 60
- 4.565664 0 1 sctp 1500 -------D 0 0.0 1.0 1 60 120 0 59
r 4.573536 0 1 sctp 1500 -------D 0 0.0 1.0 1 51 110 0 50
+ 4.573536 1 0 sctp 48 -------S 0 1.0 0.0 1 51 122 65535 65535
- 4.573536 1 0 sctp 48 -------S 0 1.0 0.0 1 51 122 65535 65535
- 4.589664 0 1 sctp 1500 -------D 0 0.0 1.0 1 61 121 0 60
r 4.5976 0 1 sctp 1500 -------D 0 0.0 1.0 1 52 112 0 51
+ 4.5976 1 0 sctp 48 -------S 0 1.0 0.0 1 52 123 65535 65535
- 4.5976 1 0 sctp 48 -------S 0 1.0 0.0 1 52 123 65535 65535
r 4.621664 0 1 sctp 1500 -------D 0 0.0 1.0 1 53 113 0 52
+ 4.621664 1 0 sctp 48 -------S 0 1.0 0.0 1 53 124 65535 65535
- 4.621664 1 0 sctp 48 -------S 0 1.0 0.0 1 53 124 65535 65535
r 4.645664 0 1 sctp 1500 -------D 0 0.0 1.0 1 54 114 0 53
+ 4.645664 1 0 sctp 48 -------S 0 1.0 0.0 1 54 125 65535 65535
- 4.645664 1 0 sctp 48 -------S 0 1.0 0.0 1 54 125 65535 65535
r 4.669664 0 1 sctp 1500 -------D 0 0.0 1.0 1 55 115 0 54
+ 4.669664 1 0 sctp 48 -------S 0 1.0 0.0 1 55 126 65535 65535
- 4.669664 1 0 sctp 48 -------S 0 1.0 0.0 1 55 126 65535 65535
r 4.693664 0 1 sctp 1500 -------D 0 0.0 1.0 1 56 116 0 55
+ 4.693664 1 0 sctp 48 -------S 0 1.0 0.0 1 56 127 65535 65535
- 4.693664 1 0 sctp 48 -------S 0 1.0 0.0 1 56 127 65535 65535
r 4.717664 0 1 sctp 1500 -------D 0 0.0 1.0 1 57 117 0 56
+ 4.717664 1 0 sctp 48 -------S 0 1.0 0.0 1 57 128 65535 65535
- 4.717664 1 0 sctp 48 -------S 0 1.0 0.0 1 57 128 65535 65535
r 4.741664 0 1 sctp 1500 -------D 0 0.0 1.0 1 58 118 0 57
+ 4.741664 1 0 sctp 48 -------S 0 1.0 0.0 1 58 129 65535 65535
- 4.741664 1 0 sctp 48 -------S 0 1.0 0.0 1 58 129 65535 65535
r 4.765664 0 1 sctp 1500 -------D 0 0.0 1.0 1 59 119 0 58
+ 4.765664 1 0 sctp 48 -------S 0 1.0 0.0 1 59 130 65535 65535
- 4.765664 1 0 sctp 48 -------S 0 1.0 0.0 1 59 130 65535 65535
r 4.774304 1 0 sctp 48 -------S 0 1.0 0.0 1 51 122 65535 65535
+ 4.774304 0 1 sctp 1500 -------D 0 0.0 1.0 1 62 131 0 61
- 4.774304 0 1 sctp 1500 -------D 0 0.0 1.0 1 62 131 0 61
r 4.789664 0 1 sctp 1500 -------D 0 0.0 1.0 1 60 120 0 59
+ 4.789664 1 0 sctp 48 -------S 0 1.0 0.0 1 60 132 65535 65535
- 4.789664 1 0 sctp 48 -------S 0 1.0 0.0 1 60 132 65535 65535
r 4.798368 1 0 sctp 48 -------S 0 1.0 0.0 1 52 123 65535 65535
+ 4.798368 0 1 sctp 1500 -------D 0 0.0 1.0 1 63 133 0 62
- 4.798368 0 1 sctp 1500 -------D 0 0.0 1.0 1 63 133 0 62
r 4.813664 0 1 sctp 1500 -------D 0 0.0 1.0 1 61 121 0 60
+ 4.813664 1 0 sctp 48 -------S 0 1.0 0.0 1 61 134 65535 65535
- 4.813664 1 0 sctp 48 -------S 0 1.0 0.0 1 61 134 65535 65535
r 4.822432 1 0 sctp 48 -------S 0 1.0 0.0 1 53 124 65535 65535
+ 4.822432 0 1 sctp 1500 -------D 0 0.0 1.0 1 64 135 0 63
- 4.822432 0 1 sctp 1500 -------D 0 0.0 1.0 1 64 135 0 63
r 4.846432 1 0 sctp 48 -------S 0 1.0 0.0 1 54 125 65535 65535
+ 4.846432 0 1 sctp 1500 -------D 0 0.0 1.0 1 65 136 0 64
- 4.846432 0 1 sctp 1500 -------D 0 0.0 1.0 1 65 136 0 64
r 4.870432 1 0 sctp 48 -------S 0 1.0 0.0 1 55 126 65535 65535
+ 4.870432 0 1 sctp 1500 -------D 0 0.0 1.0 1 66 137 0 65
- 4.870432 0 1 sctp 1500 -------D 0 0.0 1.0 1 66 137 0 65
r 4.894432 1 0 sctp 48 -------S 0 1.0 0.0 1 56 127 65535 65535
+ 4.894432 0 1 sctp 1500 -------D 0 0.0 1.0 1 67 138 0 66
- 4.894432 0 1 sctp 1500 -------D 0 0.0 1.0 1 67 138 0 66
r 4.918432 1 0 sctp 48 -------S 0 1.0 0.0 1 57 128 65535 65535
+ 4.918432 0 1 sctp 1500 -------D 0 0.0 1.0 1 68 139 0 67
+ 4.918432 0 1 sctp 1500 -------D 0 0.0 1.0 1 69 140 0 68
- 4.918432 0 1 sctp 1500 -------D 0 0.0 1.0 1 68 139 0 67
r 4.942432 1 0 sctp 48 -------S 0 1.0 0.0 1 58 129 65535 65535
+ 4.942432 0 1 sctp 1500 -------D 0 0.0 1.0 1 70 141 0 69
- 4.942432 0 1 sctp 1500 -------D 0 0.0 1.0 1 69 140 0 68
r 4.966432 1 0 sctp 48 -------S 0 1.0 0.0 1 59 130 65535 65535
+ 4.966432 0 1 sctp 1500 -------D 0 0.0 1.0 1 71 142 0 70
- 4.966432 0 1 sctp 1500 -------D 0 0.0 1.0 1 70 141 0 69
r 4.990432 1 0 sctp 48 -------S 0 1.0 0.0 1 60 132 65535 65535
+ 4.990432 0 1 sctp 1500 -------D 0 0.0 1.0 1 72 143 0 71
- 4.990432 0 1 sctp 1500 -------D 0 0.0 1.0 1 71 142 0 70
r 4.998304 0 1 sctp 1500 -------D 0 0.0 1.0 1 62 131 0 61
+ 4.998304 1 0 sctp 48 -------S 0 1.0 0.0 1 62 144 65535 65535
- 4.998304 1 0 sctp 48 -------S 0 1.0 0.0 1 62 144 65535 65535
r 5.014432 1 0 sctp 48 -------S 0 1.0 0.0 1 61 134 65535 65535
+ 5.014432 0 1 sctp 1500 -------D 0 0.0 1.0 1 73 145 0 72
- 5.014432 0 1 sctp 1500 -------D 0 0.0 1.0 1 72 143 0 71
r 5.022368 0 1 sctp 1500 -------D 0 0.0 1.0 1 63 133 0 62
+ 5.022368 1 0 sctp 48 -------S 0 1.0 0.0 1 63 146 65535 65535
- 5.022368 1 0 sctp 48 -------S 0 1.0 0.0 1 63 146 65535 65535
- 5.038432 0 1 sctp 1500 -------D 0 0.0 1.0 1 73 145 0 72
r 5.046432 0 1 sctp 1500 -------D 0 0.0 1.0 1 64 135 0 63
+ 5.046432 1 0 sctp 48 -------S 0 1.0 0.0 1 64 147 65535 65535
- 5.046432 1 0 sctp 48 -------S 0 1.0 0.0 1 64 147 65535 65535
r 5.070432 0 1 sctp 1500 -------D 0 0.0 1.0 1 65 136 0 64
+ 5.070432 1 0 sctp 48 -------S 0 1.0 0.0 1 65 148 65535 65535
- 5.070432 1 0 sctp 48 -------S 0 1.0 0.0 1 65 148 65535 65535
r 5.094432 0 1 sctp 1500 -------D 0 0.0 1.0 1 66 137 0 65
+ 5.094432 1 0 sctp 48 -------S 0 1.0 0.0 1 66 149 65535 65535
- 5.094432 1 0 sctp 48 -------S 0 1.0 0.0 1 66 149 65535 65535
r 5.118432 0 1 sctp 1500 -------D 0 0.0 1.0 1 67 138 0 66
+ 5.118432 1 0 sctp 48 -------S 0 1.0 0.0 1 67 150 65535 65535
- 5.118432 1 0 sctp 48 -------S 0 1.0 0.0 1 67 150 65535 65535
r 5.142432 0 1 sctp 1500 -------D 0 0.0 1.0 1 68 139 0 67
+ 5.142432 1 0 sctp 48 -------S 0 1.0 0.0 1 68 151 65535 65535
- 5.142432 1 0 sctp 48 -------S 0 1.0 0.0 1 68 151 65535 65535
r 5.166432 0 1 sctp 1500 -------D 0 0.0 1.0 1 69 140 0 68
+ 5.166432 1 0 sctp 48 -------S 0 1.0 0.0 1 69 152 65535 65535
- 5.166432 1 0 sctp 48 -------S 0 1.0 0.0 1 69 152 65535 65535
r 5.190432 0 1 sctp 1500 -------D 0 0.0 1.0 1 70 141 0 69
+ 5.190432 1 0 sctp 48 -------S 0 1.0 0.0 1 70 153 65535 65535
- 5.190432 1 0 sctp 48 -------S 0 1.0 0.0 1 70 153 65535 65535
r 5.199072 1 0 sctp 48 -------S 0 1.0 0.0 1 62 144 65535 65535
+ 5.199072 0 1 sctp 1500 -------D 0 0.0 1.0 1 74 154 0 73
- 5.199072 0 1 sctp 1500 -------D 0 0.0 1.0 1 74 154 0 73
r 5.214432 0 1 sctp 1500 -------D 0 0.0 1.0 1 71 142 0 70
+ 5.214432 1 0 sctp 48 -------S 0 1.0 0.0 1 71 155 65535 65535
- 5.214432 1 0 sctp 48 -------S 0 1.0 0.0 1 71 155 65535 65535
r 5.223136 1 0 sctp 48 -------S 0 1.0 0.0 1 63 146 65535 65535
+ 5.223136 0 1 sctp 1500 -------D 0 0.0 1.0 1 75 156 0 74
- 5.223136 0 1 sctp 1500 -------D 0 0.0 1.0 1 75 156 0 74
r 5.238432 0 1 sctp 1500 -------D 0 0.0 1.0 1 72 143 0 71
+ 5.238432 1 0 sctp 48 -------S 0 1.0 0.0 1 72 157 65535 65535
- 5.238432 1 0 sctp 48 -------S 0 1.0 0.0 1 72 157 65535 65535
r 5.2472 1 0 sctp 48 -------S 0 1.0 0.0 1 64 147 65535 65535
+ 5.2472 0 1 sctp 1500 -------D 0 0.0 1.0 1 76 158 0 75
- 5.2472 0 1 sctp 1500 -------D 0 0.0 1.0 1 76 158 0 75
r 5.262432 0 1 sctp 1500 -------D 0 0.0 1.0 1 73 145 0 72
+ 5.262432 1 0 sctp 48 -------S 0 1.0 0.0 1 73 159 65535 65535
- 5.262432 1 0 sctp 48 -------S 0 1.0 0.0 1 73 159 65535 65535
r 5.2712 1 0 sctp 48 -------S 0 1.0 0.0 1 65 148 65535 65535
+ 5.2712 0 1 sctp 1500 -------D 0 0.0 1.0 1 77 160 0 76
- 5.2712 0 1 sctp 1500 -------D 0 0.0 1.0 1 77 160 0 76
r 5.2952 1 0 sctp 48 -------S 0 1.0 0.0 1 66 149 65535 65535
+ 5.2952 0 1 sctp 1500 -------D 0 0.0 1.0 1 78 161 0 77
- 5.2952 0 1 sctp 1500 -------D 0 0.0 1.0 1 78 161 0 77
r 5.3192 1 0 sctp 48 -------S 0 1.0 0.0 1 67 150 65535 65535
+ 5.3192 0 1 sctp 1500 -------D 0 0.0 1.0 1 79 162 0 78
- 5.3192 0 1 sctp 1500 -------D 0 0.0 1.0 1 79 162 0 78
r 5.3432 1 0 sctp 48 -------S 0 1.0 0.0 1 68 151 65535 65535
+ 5.3432 0 1 sctp 1500 -------D 0 0.0 1.0 1 80 163 0 79
- 5.3432 0 1 sctp 1500 -------D 0 0.0 1.0 1 80 163 0 79
r 5.3672 1 0 sctp 48 -------S 0 1.0 0.0 1 69 152 65535 65535
+ 5.3672 0 1 sctp 1500 -------D 0 0.0 1.0 1 81 164 0 80
+ 5.3672 0 1 sctp 1500 -------D 0 0.0 1.0 1 82 165 0 81
- 5.3672 0 1 sctp 1500 -------D 0 0.0 1.0 1 81 164 0 80
r 5.3912 1 0 sctp 48 -------S 0 1.0 0.0 1 70 153 65535 65535
+ 5.3912 0 1 sctp 1500 -------D 0 0.0 1.0 1 83 166 0 82
- 5.3912 0 1 sctp 1500 -------D 0 0.0 1.0 1 82 165 0 81
r 5.4152 1 0 sctp 48 -------S 0 1.0 0.0 1 71 155 65535 65535
+ 5.4152 0 1 sctp 1500 -------D 0 0.0 1.0 1 84 167 0 83
- 5.4152 0 1 sctp 1500 -------D 0 0.0 1.0 1 83 166 0 82
r 5.423072 0 1 sctp 1500 -------D 0 0.0 1.0 1 74 154 0 73
+ 5.423072 1 0 sctp 48 -------S 0 1.0 0.0 1 74 168 65535 65535
- 5.423072 1 0 sctp 48 -------S 0 1.0 0.0 1 74 168 65535 65535
r 5.4392 1 0 sctp 48 -------S 0 1.0 0.0 1 72 157 65535 65535
+ 5.4392 0 1 sctp 1500 -------D 0 0.0 1.0 1 85 169 0 84
- 5.4392 0 1 sctp 1500 -------D 0 0.0 1.0 1 84 167 0 83
r 5.447136 0 1 sctp 1500 -------D 0 0.0 1.0 1 75 156 0 74
+ 5.447136 1 0 sctp 48 -------S 0 1.0 0.0 1 75 170 65535 65535
- 5.447136 1 0 sctp 48 -------S 0 1.0 0.0 1 75 170 65535 65535
r 5.4632 1 0 sctp 48 -------S 0 1.0 0.0 1 73 159 65535 65535
+ 5.4632 0 1 sctp 1500 -------D 0 0.0 1.0 1 86 171 0 85
- 5.4632 0 1 sctp 1500 -------D 0 0.0 1.0 1 85 169 0 84
r 5.4712 0 1 sctp 1500 -------D 0 0.0 1.0 1 76 158 0 75
+ 5.4712 1 0 sctp 48 -------S 0 1.0 0.0 1 76 172 65535 65535
- 5.4712 1 0 sctp 48 -------S 0 1.0 0.0 1 76 172 65535 65535
- 5.4872 0 1 sctp 1500 -------D 0 0.0 1.0 1 86 171 0 85
r 5.4952 0 1 sctp 1500 -------D 0 0.0 1.0 1 77 160 0 76
+ 5.4952 1 0 sctp 48 -------S 0 1.0 0.0 1 77 173 65535 65535
- 5.4952 1 0 sctp 48 -------S 0 1.0 0.0 1 77 173 65535 65535
r 5.5192 0 1 sctp 1500 -------D 0 0.0 1.0 1 78 161 0 77
+ 5.5192 1 0 sctp 48 -------S 0 1.0 0.0 1 78 174 65535 65535
- 5.5192 1 0 sctp 48 -------S 0 1.0 0.0 1 78 174 65535 65535
r 5.5432 0 1 sctp 1500 -------D 0 0.0 1.0 1 79 162 0 78
+ 5.5432 1 0 sctp 48 -------S 0 1.0 0.0 1 79 175 65535 65535
- 5.5432 1 0 sctp 48 -------S 0 1.0 0.0 1 79 175 65535 65535
r 5.5672 0 1 sctp 1500 -------D 0 0.0 1.0 1 80 163 0 79
+ 5.5672 1 0 sctp 48 -------S 0 1.0 0.0 1 80 176 65535 65535
- 5.5672 1 0 sctp 48 -------S 0 1.0 0.0 1 80 176 65535 65535
r 5.5912 0 1 sctp 1500 -------D 0 0.0 1.0 1 81 164 0 80