+ 0.5 1 4 sctp 56 -------I 0 1.0 4.0 1 -1 4 65535 65535
- 0.5 1 4 sctp 56 -------I 0 1.0 4.0 1 -1 4 65535 65535
r 0.700896 1 4 sctp 56 -------I 0 1.0 4.0 1 -1 4 65535 65535
+ 0.700896 4 1 sctp 56 -------I 0 4.0 1.0 1 -1 5 65535 65535
- 0.700896 4 1 sctp 56 -------I 0 4.0 1.0 1 -1 5 65535 65535
r 0.901792 4 1 sctp 56 -------I 0 4.0 1.0 1 -1 5 65535 65535
+ 0.901792 1 4 sctp 36 -------I 0 1.0 4.0 1 -1 6 65535 65535
- 0.901792 1 4 sctp 36 -------I 0 1.0 4.0 1 -1 6 65535 65535
r 1.102368 1 4 sctp 36 -------I 0 1.0 4.0 1 -1 6 65535 65535
+ 1.102368 4 1 sctp 36 -------I 0 4.0 1.0 1 -1 7 65535 65535
- 1.102368 4 1 sctp 36 -------I 0 4.0 1.0 1 -1 7 65535 65535
r 1.302944 4 1 sctp 36 -------I 0 4.0 1.0 1 -1 7 65535 65535
+ 1.302944 1 4 sctp 56 -------H 0 1.0 4.0 1 -1 8 65535 65535
- 1.302944 1 4 sctp 56 -------H 0 1.0 4.0 1 -1 8 65535 65535
+ 1.302944 2 5 sctp 56 -------H 0 2.0 5.0 1 -1 9 65535 65535
- 1.302944 2 5 sctp 56 -------H 0 2.0 5.0 1 -1 9 65535 65535
r 1.50384 1 4 sctp 56 -------H 0 1.0 4.0 1 -1 8 65535 65535
+ 1.50384 4 1 sctp 56 -------B 0 4.0 1.0 1 -1 10 65535 65535
- 1.50384 4 1 sctp 56 -------B 0 4.0 1.0 1 -1 10 65535 65535
r 1.50384 2 5 sctp 56 -------H 0 2.0 5.0 1 -1 9 65535 65535
+ 1.50384 5 2 sctp 56 -------B 0 5.0 2.0 1 -1 11 65535 65535
- 1.50384 5 2 sctp 56 -------B 0 5.0 2.0 1 -1 11 65535 65535
r 1.704736 4 1 sctp 56 -------B 0 4.0 1.0 1 -1 10 65535 65535
r 1.704736 5 2 sctp 56 -------B 0 5.0 2.0 1 -1 11 65535 65535
+ 1.704736 1 4 sctp 1500 -------D 0 1.0 4.0 1 1 12 0 0
- 1.704736 1 4 sctp 1500 -------D 0 1.0 4.0 1 1 12 0 0
+ 1.704736 1 4 sctp 1500 -------D 0 1.0 4.0 1 2 13 0 1
+ 1.704736 1 4 sctp 1500 -------D 0 1.0 4.0 1 3 14 0 2
- 1.728736 1 4 sctp 1500 -------D 0 1.0 4.0 1 2 13 0 1
- 1.752736 1 4 sctp 1500 -------D 0 1.0 4.0 1 3 14 0 2
r 1.928736 1 4 sctp 1500 -------D 0 1.0 4.0 1 1 12 0 0
+ 1.928736 4 1 sctp 48 -------S 0 4.0 1.0 1 1 15 65535 65535
- 1.928736 4 1 sctp 48 -------S 0 4.0 1.0 1 1 15 65535 65535
r 1.952736 1 4 sctp 1500 -------D 0 1.0 4.0 1 2 13 0 1
r 1.976736 1 4 sctp 1500 -------D 0 1.0 4.0 1 3 14 0 2
+ 1.976736 4 1 sctp 48 -------S 0 4.0 1.0 1 3 16 65535 65535
- 1.976736 4 1 sctp 48 -------S 0 4.0 1.0 1 3 16 65535 65535
r 2.129504 4 1 sctp 48 -------S 0 4.0 1.0 1 1 15 65535 65535
+ 2.129504 1 4 sctp 1500 -------D 0 1.0 4.0 1 4 17 0 3
- 2.129504 1 4 sctp 1500 -------D 0 1.0 4.0 1 4 17 0 3
+ 2.129504 1 4 sctp 1500 -------D 0 1.0 4.0 1 5 18 0 4
- 2.153504 1 4 sctp 1500 -------D 0 1.0 4.0 1 5 18 0 4
r 2.177504 4 1 sctp 48 -------S 0 4.0 1.0 1 3 16 65535 65535
+ 2.177504 1 4 sctp 1500 -------D 0 1.0 4.0 1 6 19 0 5
+ 2.177504 1 4 sctp 1500 -------D 0 1.0 4.0 1 7 20 0 6
+ 2.177504 1 4 sctp 1500 -------D 0 1.0 4.0 1 8 21 0 7
- 2.177504 1 4 sctp 1500 -------D 0 1.0 4.0 1 6 19 0 5
- 2.201504 1 4 sctp 1500 -------D 0 1.0 4.0 1 7 20 0 6
- 2.225504 1 4 sctp 1500 -------D 0 1.0 4.0 1 8 21 0 7
r 2.353504 1 4 sctp 1500 -------D 0 1.0 4.0 1 4 17 0 3
r 2.377504 1 4 sctp 1500 -------D 0 1.0 4.0 1 5 18 0 4
+ 2.377504 4 1 sctp 48 -------S 0 4.0 1.0 1 5 22 65535 65535
- 2.377504 4 1 sctp 48 -------S 0 4.0 1.0 1 5 22 65535 65535
r 2.401504 1 4 sctp 1500 -------D 0 1.0 4.0 1 6 19 0 5
r 2.425504 1 4 sctp 1500 -------D 0 1.0 4.0 1 7 20 0 6
+ 2.425504 4 1 sctp 48 -------S 0 4.0 1.0 1 7 23 65535 65535
- 2.425504 4 1 sctp 48 -------S 0 4.0 1.0 1 7 23 65535 65535
r 2.449504 1 4 sctp 1500 -------D 0 1.0 4.0 1 8 21 0 7
r 2.578272 4 1 sctp 48 -------S 0 4.0 1.0 1 5 22 65535 65535
+ 2.578272 1 4 sctp 1500 -------D 0 1.0 4.0 1 9 24 0 8
- 2.578272 1 4 sctp 1500 -------D 0 1.0 4.0 1 9 24 0 8
+ 2.578272 1 4 sctp 1500 -------D 0 1.0 4.0 1 10 25 0 9
+ 2.578272 1 4 sctp 1500 -------D 0 1.0 4.0 1 11 26 0 10
- 2.602272 1 4 sctp 1500 -------D 0 1.0 4.0 1 10 25 0 9
r 2.626272 4 1 sctp 48 -------S 0 4.0 1.0 1 7 23 65535 65535
+ 2.626272 1 4 sctp 1500 -------D 0 1.0 4.0 1 12 27 0 11
+ 2.626272 1 4 sctp 1500 -------D 0 1.0 4.0 1 13 28 0 12
d 2.626272 1 4 sctp 1500 -------D 0 1.0 4.0 1 14 29 0 13
- 2.626272 1 4 sctp 1500 -------D 0 1.0 4.0 1 11 26 0 10
+ 2.649504 4 1 sctp 48 -------S 0 4.0 1.0 1 8 30 65535 65535
- 2.649504 4 1 sctp 48 -------S 0 4.0 1.0 1 8 30 65535 65535
- 2.650272 1 4 sctp 1500 -------D 0 1.0 4.0 1 12 27 0 11
- 2.674272 1 4 sctp 1500 -------D 0 1.0 4.0 1 13 28 0 12
r 2.802272 1 4 sctp 1500 -------D 0 1.0 4.0 1 9 24 0 8
r 2.826272 1 4 sctp 1500 -------D 0 1.0 4.0 1 10 25 0 9
+ 2.826272 4 1 sctp 48 -------S 0 4.0 1.0 1 10 31 65535 65535
- 2.826272 4 1 sctp 48 -------S 0 4.0 1.0 1 10 31 65535 65535
r 2.850272 1 4 sctp 1500 -------D 0 1.0 4.0 1 11 26 0 10
r 2.850272 4 1 sctp 48 -------S 0 4.0 1.0 1 8 30 65535 65535
+ 2.850272 1 4 sctp 1500 -------D 0 1.0 4.0 1 15 32 0 14
- 2.850272 1 4 sctp 1500 -------D 0 1.0 4.0 1 15 32 0 14
+ 2.850272 1 4 sctp 1500 -------D 0 1.0 4.0 1 16 33 0 15
r 2.874272 1 4 sctp 1500 -------D 0 1.0 4.0 1 12 27 0 11
+ 2.874272 4 1 sctp 48 -------S 0 4.0 1.0 1 12 34 65535 65535
- 2.874272 4 1 sctp 48 -------S 0 4.0 1.0 1 12 34 65535 65535
- 2.874272 1 4 sctp 1500 -------D 0 1.0 4.0 1 16 33 0 15
r 2.898272 1 4 sctp 1500 -------D 0 1.0 4.0 1 13 28 0 12
r 3.02704 4 1 sctp 48 -------S 0 4.0 1.0 1 10 31 65535 65535
+ 3.02704 1 4 sctp 1500 -------D 0 1.0 4.0 1 17 35 0 16
- 3.02704 1 4 sctp 1500 -------D 0 1.0 4.0 1 17 35 0 16
+ 3.02704 1 4 sctp 1500 -------D 0 1.0 4.0 1 18 36 0 17
+ 3.02704 1 4 sctp 1500 -------D 0 1.0 4.0 1 19 37 0 18
- 3.05104 1 4 sctp 1500 -------D 0 1.0 4.0 1 18 36 0 17
r 3.074272 1 4 sctp 1500 -------D 0 1.0 4.0 1 15 32 0 14
+ 3.074272 4 1 sctp 52 -------S 0 4.0 1.0 1 13 38 65535 65535
- 3.074272 4 1 sctp 52 -------S 0 4.0 1.0 1 13 38 65535 65535
r 3.07504 4 1 sctp 48 -------S 0 4.0 1.0 1 12 34 65535 65535
+ 3.07504 1 4 sctp 1500 -------D 0 1.0 4.0 1 20 39 0 19
+ 3.07504 1 4 sctp 1500 -------D 0 1.0 4.0 1 21 40 0 20
+ 3.07504 1 4 sctp 1500 -------D 0 1.0 4.0 1 22 41 0 21
- 3.07504 1 4 sctp 1500 -------D 0 1.0 4.0 1 19 37 0 18
r 3.098272 1 4 sctp 1500 -------D 0 1.0 4.0 1 16 33 0 15
+ 3.098272 4 1 sctp 52 -------S 0 4.0 1.0 1 13 42 65535 65535
- 3.098272 4 1 sctp 52 -------S 0 4.0 1.0 1 13 42 65535 65535
- 3.09904 1 4 sctp 1500 -------D 0 1.0 4.0 1 20 39 0 19
- 3.12304 1 4 sctp 1500 -------D 0 1.0 4.0 1 21 40 0 20
- 3.14704 1 4 sctp 1500 -------D 0 1.0 4.0 1 22 41 0 21
r 3.25104 1 4 sctp 1500 -------D 0 1.0 4.0 1 17 35 0 16
+ 3.25104 4 1 sctp 52 -------S 0 4.0 1.0 1 13 43 65535 65535
- 3.25104 4 1 sctp 52 -------S 0 4.0 1.0 1 13 43 65535 65535
r 3.27504 1 4 sctp 1500 -------D 0 1.0 4.0 1 18 36 0 17
+ 3.27504 4 1 sctp 52 -------S 0 4.0 1.0 1 13 44 65535 65535
- 3.27504 4 1 sctp 52 -------S 0 4.0 1.0 1 13 44 65535 65535
r 3.275104 4 1 sctp 52 -------S 0 4.0 1.0 1 13 38 65535 65535
+ 3.275104 1 4 sctp 1500 -------D 0 1.0 4.0 1 23 45 0 22
- 3.275104 1 4 sctp 1500 -------D 0 1.0 4.0 1 23 45 0 22
+ 3.275104 1 4 sctp 1500 -------D 0 1.0 4.0 1 24 46 0 23
+ 3.275104 1 4 sctp 1500 -------D 0 1.0 4.0 1 25 47 0 24
r 3.29904 1 4 sctp 1500 -------D 0 1.0 4.0 1 19 37 0 18
+ 3.29904 4 1 sctp 52 -------S 0 4.0 1.0 1 13 48 65535 65535
- 3.29904 4 1 sctp 52 -------S 0 4.0 1.0 1 13 48 65535 65535
r 3.299104 4 1 sctp 52 -------S 0 4.0 1.0 1 13 42 65535 65535
+ 3.299104 1 4 sctp 1500 -------D 0 1.0 4.0 1 26 49 0 25
- 3.299104 1 4 sctp 1500 -------D 0 1.0 4.0 1 24 46 0 23
r 3.32304 1 4 sctp 1500 -------D 0 1.0 4.0 1 20 39 0 19
+ 3.32304 4 1 sctp 52 -------S 0 4.0 1.0 1 13 50 65535 65535
- 3.32304 4 1 sctp 52 -------S 0 4.0 1.0 1 13 50 65535 65535
- 3.323104 1 4 sctp 1500 -------D 0 1.0 4.0 1 25 47 0 24
r 3.34704 1 4 sctp 1500 -------D 0 1.0 4.0 1 21 40 0 20
+ 3.34704 4 1 sctp 52 -------S 0 4.0 1.0 1 13 51 65535 65535
- 3.34704 4 1 sctp 52 -------S 0 4.0 1.0 1 13 51 65535 65535
- 3.347104 1 4 sctp 1500 -------D 0 1.0 4.0 1 26 49 0 25
r 3.37104 1 4 sctp 1500 -------D 0 1.0 4.0 1 22 41 0 21
+ 3.37104 4 1 sctp 52 -------S 0 4.0 1.0 1 13 52 65535 65535
- 3.37104 4 1 sctp 52 -------S 0 4.0 1.0 1 13 52 65535 65535
r 3.451872 4 1 sctp 52 -------S 0 4.0 1.0 1 13 43 65535 65535
d 3.451872 2 5 sctp 1500 -------D 0 2.0 5.0 1 14 53 0 13
r 3.475872 4 1 sctp 52 -------S 0 4.0 1.0 1 13 44 65535 65535
r 3.499104 1 4 sctp 1500 -------D 0 1.0 4.0 1 23 45 0 22
+ 3.499104 4 1 sctp 52 -------S 0 4.0 1.0 1 13 54 65535 65535
- 3.499104 4 1 sctp 52 -------S 0 4.0 1.0 1 13 54 65535 65535
r 3.499872 4 1 sctp 52 -------S 0 4.0 1.0 1 13 48 65535 65535
r 3.523104 1 4 sctp 1500 -------D 0 1.0 4.0 1 24 46 0 23
+ 3.523104 4 1 sctp 52 -------S 0 4.0 1.0 1 13 55 65535 65535
- 3.523104 4 1 sctp 52 -------S 0 4.0 1.0 1 13 55 65535 65535
r 3.523872 4 1 sctp 52 -------S 0 4.0 1.0 1 13 50 65535 65535
r 3.547104 1 4 sctp 1500 -------D 0 1.0 4.0 1 25 47 0 24
+ 3.547104 4 1 sctp 52 -------S 0 4.0 1.0 1 13 56 65535 65535
- 3.547104 4 1 sctp 52 -------S 0 4.0 1.0 1 13 56 65535 65535
r 3.547872 4 1 sctp 52 -------S 0 4.0 1.0 1 13 51 65535 65535
+ 3.547872 1 4 sctp 1500 -------D 0 1.0 4.0 1 27 57 0 26
- 3.547872 1 4 sctp 1500 -------D 0 1.0 4.0 1 27 57 0 26
r 3.571104 1 4 sctp 1500 -------D 0 1.0 4.0 1 26 49 0 25
+ 3.571104 4 1 sctp 52 -------S 0 4.0 1.0 1 13 58 65535 65535
- 3.571104 4 1 sctp 52 -------S 0 4.0 1.0 1 13 58 65535 65535
r 3.571872 4 1 sctp 52 -------S 0 4.0 1.0 1 13 52 65535 65535
+ 3.571872 1 4 sctp 1500 -------D 0 1.0 4.0 1 28 59 0 27
- 3.571872 1 4 sctp 1500 -------D 0 1.0 4.0 1 28 59 0 27
r 3.699936 4 1 sctp 52 -------S 0 4.0 1.0 1 13 54 65535 65535
+ 3.699936 1 4 sctp 1500 -------D 0 1.0 4.0 1 29 60 0 28
- 3.699936 1 4 sctp 1500 -------D 0 1.0 4.0 1 29 60 0 28
r 3.723936 4 1 sctp 52 -------S 0 4.0 1.0 1 13 55 65535 65535
+ 3.723936 1 4 sctp 1500 -------D 0 1.0 4.0 1 30 61 0 29
- 3.723936 1 4 sctp 1500 -------D 0 1.0 4.0 1 30 61 0 29
r 3.747936 4 1 sctp 52 -------S 0 4.0 1.0 1 13 56 65535 65535
+ 3.747936 1 4 sctp 1500 -------D 0 1.0 4.0 1 31 62 0 30
- 3.747936 1 4 sctp 1500 -------D 0 1.0 4.0 1 31 62 0 30
r 3.771872 1 4 sctp 1500 -------D 0 1.0 4.0 1 27 57 0 26
+ 3.771872 4 1 sctp 52 -------S 0 4.0 1.0 1 13 63 65535 65535
- 3.771872 4 1 sctp 52 -------S 0 4.0 1.0 1 13 63 65535 65535
r 3.771936 4 1 sctp 52 -------S 0 4.0 1.0 1 13 58 65535 65535
+ 3.771936 1 4 sctp 1500 -------D 0 1.0 4.0 1 32 64 0 31
- 3.771936 1 4 sctp 1500 -------D 0 1.0 4.0 1 32 64 0 31
r 3.795872 1 4 sctp 1500 -------D 0 1.0 4.0 1 28 59 0 27
+ 3.795872 4 1 sctp 52 -------S 0 4.0 1.0 1 13 65 65535 65535
- 3.795872 4 1 sctp 52 -------S 0 4.0 1.0 1 13 65 65535 65535
r 3.923936 1 4 sctp 1500 -------D 0 1.0 4.0 1 29 60 0 28
+ 3.923936 4 1 sctp 52 -------S 0 4.0 1.0 1 13 66 65535 65535
- 3.923936 4 1 sctp 52 -------S 0 4.0 1.0 1 13 66 65535 65535
r 3.947936 1 4 sctp 1500 -------D 0 1.0 4.0 1 30 61 0 29
+ 3.947936 4 1 sctp 52 -------S 0 4.0 1.0 1 13 67 65535 65535
- 3.947936 4 1 sctp 52 -------S 0 4.0 1.0 1 13 67 65535 65535
r 3.971936 1 4 sctp 1500 -------D 0 1.0 4.0 1 31 62 0 30
+ 3.971936 4 1 sctp 52 -------S 0 4.0 1.0 1 13 68 65535 65535
- 3.971936 4 1 sctp 52 -------S 0 4.0 1.0 1 13 68 65535 65535
r 3.972704 4 1 sctp 52 -------S 0 4.0 1.0 1 13 63 65535 65535
+ 3.972704 1 4 sctp 1500 -------D 0 1.0 4.0 1 33 69 0 32
- 3.972704 1 4 sctp 1500 -------D 0 1.0 4.0 1 33 69 0 32
r 3.995936 1 4 sctp 1500 -------D 0 1.0 4.0 1 32 64 0 31
+ 3.995936 4 1 sctp 52 -------S 0 4.0 1.0 1 13 70 65535 65535
- 3.995936 4 1 sctp 52 -------S 0 4.0 1.0 1 13 70 65535 65535
r 3.996704 4 1 sctp 52 -------S 0 4.0 1.0 1 13 65 65535 65535
+ 3.996704 1 4 sctp 1500 -------D 0 1.0 4.0 1 34 71 0 33
- 3.996704 1 4 sctp 1500 -------D 0 1.0 4.0 1 34 71 0 33
r 4.124768 4 1 sctp 52 -------S 0 4.0 1.0 1 13 66 65535 65535
+ 4.124768 1 4 sctp 1500 -------D 0 1.0 4.0 1 14 72 0 13
- 4.124768 1 4 sctp 1500 -------D 0 1.0 4.0 1 14 72 0 13
r 4.148768 4 1 sctp 52 -------S 0 4.0 1.0 1 13 67 65535 65535
+ 4.148768 1 4 sctp 1500 -------D 0 1.0 4.0 1 35 73 0 34
- 4.148768 1 4 sctp 1500 -------D 0 1.0 4.0 1 35 73 0 34
r 4.172768 4 1 sctp 52 -------S 0 4.0 1.0 1 13 68 65535 65535
+ 4.172768 1 4 sctp 1500 -------D 0 1.0 4.0 1 36 74 0 35
- 4.172768 1 4 sctp 1500 -------D 0 1.0 4.0 1 36 74 0 35
r 4.196704 1 4 sctp 1500 -------D 0 1.0 4.0 1 33 69 0 32
+ 4.196704 4 1 sctp 52 -------S 0 4.0 1.0 1 13 75 65535 65535
- 4.196704 4 1 sctp 52 -------S 0 4.0 1.0 1 13 75 65535 65535
r 4.196768 4 1 sctp 52 -------S 0 4.0 1.0 1 13 70 65535 65535
+ 4.196768 1 4 sctp 1500 -------D 0 1.0 4.0 1 37 76 0 36
- 4.196768 1 4 sctp 1500 -------D 0 1.0 4.0 1 37 76 0 36
r 4.220704 1 4 sctp 1500 -------D 0 1.0 4.0 1 34 71 0 33
+ 4.220704 4 1 sctp 52 -------S 0 4.0 1.0 1 13 77 65535 65535
- 4.220704 4 1 sctp 52 -------S 0 4.0 1.0 1 13 77 65535 65535
r 4.348768 1 4 sctp 1500 -------D 0 1.0 4.0 1 14 72 0 13
r 4.372768 1 4 sctp 1500 -------D 0 1.0 4.0 1 35 73 0 34
+ 4.372768 4 1 sctp 48 -------S 0 4.0 1.0 1 35 78 65535 65535
- 4.372768 4 1 sctp 48 -------S 0 4.0 1.0 1 35 78 65535 65535
r 4.396768 1 4 sctp 1500 -------D 0 1.0 4.0 1 36 74 0 35
r 4.397536 4 1 sctp 52 -------S 0 4.0 1.0 1 13 75 65535 65535
+ 4.397536 1 4 sctp 1500 -------D 0 1.0 4.0 1 38 79 0 37
- 4.397536 1 4 sctp 1500 -------D 0 1.0 4.0 1 38 79 0 37
r 4.420768 1 4 sctp 1500 -------D 0 1.0 4.0 1 37 76 0 36
+ 4.420768 4 1 sctp 48 -------S 0 4.0 1.0 1 37 80 65535 65535
- 4.420768 4 1 sctp 48 -------S 0 4.0 1.0 1 37 80 65535 65535
r 4.421536 4 1 sctp 52 -------S 0 4.0 1.0 1 13 77 65535 65535
+ 4.421536 1 4 sctp 1500 -------D 0 1.0 4.0 1 39 81 0 38
- 4.421536 1 4 sctp 1500 -------D 0 1.0 4.0 1 39 81 0 38
r 4.573536 4 1 sctp 48 -------S 0 4.0 1.0 1 35 78 65535 65535
+ 4.573536 1 4 sctp 1500 -------D 0 1.0 4.0 1 40 82 0 39
- 4.573536 1 4 sctp 1500 -------D 0 1.0 4.0 1 40 82 0 39
+ 4.573536 1 4 sctp 1500 -------D 0 1.0 4.0 1 41 83 0 40
+ 4.573536 1 4 sctp 1500 -------D 0 1.0 4.0 1 42 84 0 41
- 4.597536 1 4 sctp 1500 -------D 0 1.0 4.0 1 41 83 0 40
r 4.621536 1 4 sctp 1500 -------D 0 1.0 4.0 1 38 79 0 37
r 4.621536 4 1 sctp 48 -------S 0 4.0 1.0 1 37 80 65535 65535
+ 4.621536 1 4 sctp 1500 -------D 0 1.0 4.0 1 43 85 0 42
+ 4.621536 1 4 sctp 1500 -------D 0 1.0 4.0 1 44 86 0 43
- 4.621536 1 4 sctp 1500 -------D 0 1.0 4.0 1 42 84 0 41
r 4.645536 1 4 sctp 1500 -------D 0 1.0 4.0 1 39 81 0 38
+ 4.645536 4 1 sctp 48 -------S 0 4.0 1.0 1 39 87 65535 65535
- 4.645536 4 1 sctp 48 -------S 0 4.0 1.0 1 39 87 65535 65535
- 4.645536 1 4 sctp 1500 -------D 0 1.0 4.0 1 43 85 0 42
- 4.669536 1 4 sctp 1500 -------D 0 1.0 4.0 1 44 86 0 43
r 4.797536 1 4 sctp 1500 -------D 0 1.0 4.0 1 40 82 0 39
r 4.821536 1 4 sctp 1500 -------D 0 1.0 4.0 1 41 83 0 40
+ 4.821536 4 1 sctp 48 -------S 0 4.0 1.0 1 41 88 65535 65535
- 4.821536 4 1 sctp 48 -------S 0 4.0 1.0 1 41 88 65535 65535
r 4.845536 1 4 sctp 1500 -------D 0 1.0 4.0 1 42 84 0 41
r 4.846304 4 1 sctp 48 -------S 0 4.0 1.0 1 39 87 65535 65535
+ 4.846304 1 4 sctp 1500 -------D 0 1.0 4.0 1 45 89 0 44
- 4.846304 1 4 sctp 1500 -------D 0 1.0 4.0 1 45 89 0 44
+ 4.846304 1 4 sctp 1500 -------D 0 1.0 4.0 1 46 90 0 45
r 4.869536 1 4 sctp 1500 -------D 0 1.0 4.0 1 43 85 0 42
+ 4.869536 4 1 sctp 48 -------S 0 4.0 1.0 1 43 91 65535 65535
- 4.869536 4 1 sctp 48 -------S 0 4.0 1.0 1 43 91 65535 65535
- 4.870304 1 4 sctp 1500 -------D 0 1.0 4.0 1 46 90 0 45
r 4.893536 1 4 sctp 1500 -------D 0 1.0 4.0 1 44 86 0 43
r 5.022304 4 1 sctp 48 -------S 0 4.0 1.0 1 41 88 65535 65535
+ 5.022304 1 4 sctp 1500 -------D 0 1.0 4.0 1 47 92 0 46
- 5.022304 1 4 sctp 1500 -------D 0 1.0 4.0 1 47 92 0 46
+ 5.022304 1 4 sctp 1500 -------D 0 1.0 4.0 1 48 93 0 47
- 5.046304 1 4 sctp 1500 -------D 0 1.0 4.0 1 48 93 0 47
r 5.070304 1 4 sctp 1500 -------D 0 1.0 4.0 1 45 89 0 44
+ 5.070304 4 1 sctp 48 -------S 0 4.0 1.0 1 45 94 65535 65535
- 5.070304 4 1 sctp 48 -------S 0 4.0 1.0 1 45 94 65535 65535
r 5.070304 4 1 sctp 48 -------S 0 4.0 1.0 1 43 91 65535 65535
+ 5.070304 1 4 sctp 1500 -------D 0 1.0 4.0 1 49 95 0 48
+ 5.070304 1 4 sctp 1500 -------D 0 1.0 4.0 1 50 96 0 49
+ 5.070304 1 4 sctp 1500 -------D 0 1.0 4.0 1 51 97 0 50
- 5.070304 1 4 sctp 1500 -------D 0 1.0 4.0 1 49 95 0 48
r 5.094304 1 4 sctp 1500 -------D 0 1.0 4.0 1 46 90 0 45
- 5.094304 1 4 sctp 1500 -------D 0 1.0 4.0 1 50 96 0 49
- 5.118304 1 4 sctp 1500 -------D 0 1.0 4.0 1 51 97 0 50
r 5.246304 1 4 sctp 1500 -------D 0 1.0 4.0 1 47 92 0 46
+ 5.246304 4 1 sctp 48 -------S 0 4.0 1.0 1 47 98 65535 65535
- 5.246304 4 1 sctp 48 -------S 0 4.0 1.0 1 47 98 65535 65535
r 5.270304 1 4 sctp 1500 -------D 0 1.0 4.0 1 48 93 0 47
r 5.271072 4 1 sctp 48 -------S 0 4.0 1.0 1 45 94 65535 65535
+ 5.271072 1 4 sctp 1500 -------D 0 1.0 4.0 1 52 99 0 51
- 5.271072 1 4 sctp 1500 -------D 0 1.0 4.0 1 52 99 0 51
+ 5.271072 1 4 sctp 1500 -------D 0 1.0 4.0 1 53 100 0 52
r 5.294304 1 4 sctp 1500 -------D 0 1.0 4.0 1 49 95 0 48
+ 5.294304 4 1 sctp 48 -------S 0 4.0 1.0 1 49 101 65535 65535
- 5.294304 4 1 sctp 48 -------S 0 4.0 1.0 1 49 101 65535 65535
- 5.295072 1 4 sctp 1500 -------D 0 1.0 4.0 1 53 100 0 52
r 5.318304 1 4 sctp 1500 -------D 0 1.0 4.0 1 50 96 0 49
r 5.342304 1 4 sctp 1500 -------D 0 1.0 4.0 1 51 97 0 50
+ 5.342304 4 1 sctp 48 -------S 0 4.0 1.0 1 51 102 65535 65535
- 5.342304 4 1 sctp 48 -------S 0 4.0 1.0 1 51 102 65535 65535
r 5.447072 4 1 sctp 48 -------S 0 4.0 1.0 1 47 98 65535 65535
+ 5.447072 1 4 sctp 1500 -------D 0 1.0 4.0 1 54 103 0 53
- 5.447072 1 4 sctp 1500 -------D 0 1.0 4.0 1 54 103 0 53
+ 5.447072 1 4 sctp 1500 -------D 0 1.0 4.0 1 55 104 0 54
- 5.471072 1 4 sctp 1500 -------D 0 1.0 4.0 1 55 104 0 54
r 5.495072 1 4 sctp 1500 -------D 0 1.0 4.0 1 52 99 0 51
r 5.495072 4 1 sctp 48 -------S 0 4.0 1.0 1 49 101 65535 65535
+ 5.495072 1 4 sctp 1500 -------D 0 1.0 4.0 1 56 105 0 55
+ 5.495072 1 4 sctp 1500 -------D 0 1.0 4.0 1 57 106 0 56
+ 5.495072 1 4 sctp 1500 -------D 0 1.0 4.0 1 58 107 0 57
- 5.495072 1 4 sctp 1500 -------D 0 1.0 4.0 1 56 105 0 55
r 5.519072 1 4 sctp 1500 -------D 0 1.0 4.0 1 53 100 0 52
+ 5.519072 4 1 sctp 48 -------S 0 4.0 1.0 1 53 108 65535 65535
- 5.519072 4 1 sctp 48 -------S 0 4.0 1.0 1 53 108 65535 65535
- 5.519072 1 4 sctp 1500 -------D 0 1.0 4.0 1 57 106 0 56
r 5.543072 4 1 sctp 48 -------S 0 4.0 1.0 1 51 102 65535 65535
+ 5.543072 1 4 sctp 1500 -------D 0 1.0 4.0 1 59 109 0 58
+ 5.543072 1 4 sctp 1500 -------D 0 1.0 4.0 1 60 110 0 59
- 5.543072 1 4 sctp 1500 -------D 0 1.0 4.0 1 58 107 0 57
- 5.567072 1 4 sctp 1500 -------D 0 1.0 4.0 1 59 109 0 58
- 5.591072 1 4 sctp 1500 -------D 0 1.0 4.0 1 60 110 0 59
r 5.671072 1 4 sctp 1500 -------D 0 1.0 4.0 1 54 103 0 53
r 5.695072 1 4 sctp 1500 -------D 0 1.0 4.0 1 55 104 0 54
+ 5.695072 4 1 sctp 48 -------S 0 4.0 1.0 1 55 111 65535 65535
- 5.695072 4 1 sctp 48 -------S 0 4.0 1.0 1 55 111 65535 65535
r 5.719072 1 4 sctp 1500 -------D 0 1.0 4.0 1 56 105 0 55
r 5.71984 4 1 sctp 48 -------S 0 4.0 1.0 1 53 108 65535 65535
+ 5.71984 1 4 sctp 1500 -------D 0 1.0 4.0 1 61 112 0 60
- 5.71984 1 4 sctp 1500 -------D 0 1.0 4.0 1 61 112 0 60
+ 5.71984 1 4 sctp 1500 -------D 0 1.0 4.0 1 62 113 0 61
r 5.743072 1 4 sctp 1500 -------D 0 1.0 4.0 1 57 106 0 56
+ 5.743072 4 1 sctp 48 -------S 0 4.0 1.0 1 57 114 65535 65535
- 5.743072 4 1 sctp 48 -------S 0 4.0 1.0 1 57 114 65535 65535
- 5.74384 1 4 sctp 1500 -------D 0 1.0 4.0 1 62 113 0 61
r 5.767072 1 4 sctp 1500 -------D 0 1.0 4.0 1 58 107 0 57
r 5.791072 1 4 sctp 1500 -------D 0 1.0 4.0 1 59 109 0 58
+ 5.791072 4 1 sctp 48 -------S 0 4.0 1.0 1 59 115 65535 65535
- 5.791072 4 1 sctp 48 -------S 0 4.0 1.0 1 59 115 65535 65535
r 5.815072 1 4 sctp 1500 -------D 0 1.0 4.0 1 60 110 0 59
r 5.89584 4 1 sctp 48 -------S 0 4.0 1.0 1 55 111 65535 65535
+ 5.89584 1 4 sctp 1500 -------D 0 1.0 4.0 1 63 116 0 62
- 5.89584 1 4 sctp 1500 -------D 0 1.0 4.0 1 63 116 0 62
+ 5.89584 1 4 sctp 1500 -------D 0 1.0 4.0 1 64 117 0 63
- 5.91984 1 4 sctp 1500 -------D 0 1.0 4.0 1 64 117 0 63
r 5.94384 1 4 sctp 1500 -------D 0 1.0 4.0 1 61 112 0 60
+ 5.94384 4 1 sctp 48 -------S 0 4.0 1.0 1 61 118 65535 65535
- 5.94384 4 1 sctp 48 -------S 0 4.0 1.0 1 61 118 65535 65535
r 5.94384 4 1 sctp 48 -------S 0 4.0 1.0 1 57 114 65535 65535
+ 5.94384 1 4 sctp 1500 -------D 0 1.0 4.0 1 65 119 0 64
+ 5.94384 1 4 sctp 1500 -------D 0 1.0 4.0 1 66 120 0 65
- 5.94384 1 4 sctp 1500 -------D 0 1.0 4.0 1 65 119 0 64
r 5.96784 1 4 sctp 1500 -------D 0 1.0 4.0 1 62 113 0 61
- 5.96784 1 4 sctp 1500 -------D 0 1.0 4.0 1 66 120 0 65
r 5.99184 4 1 sctp 48 -------S 0 4.0 1.0 1 59 115 65535 65535
+ 5.99184 1 4 sctp 1500 -------D 0 1.0 4.0 1 67 121 0 66
+ 5.99184 1 4 sctp 1500 -------D 0 1.0 4.0 1 68 122 0 67
+ 5.99184 1 4 sctp 1500 -------D 0 1.0 4.0 1 69 123 0 68
- 5.99184 1 4 sctp 1500 -------D 0 1.0 4.0 1 67 121 0 66
- 6.01584 1 4 sctp 1500 -------D 0 1.0 4.0 1 68 122 0 67
- 6.03984 1 4 sctp 1500 -------D 0 1.0 4.0 1 69 123 0 68
r 6.11984 1 4 sctp 1500 -------D 0 1.0 4.0 1 63 116 0 62
+ 6.11984 4 1 sctp 48 -------S 0 4.0 1.0 1 63 124 65535 65535
- 6.11984 4 1 sctp 48 -------S 0 4.0 1.0 1 63 124 65535 65535
r 6.14384 1 4 sctp 1500 -------D 0 1.0 4.0 1 64 117 0 63
r 6.144608 4 1 sctp 48 -------S 0 4.0 1.0 1 61 118 65535 65535
+ 6.144608 1 4 sctp 1500 -------D 0 1.0 4.0 1 70 125 0 69
- 6.144608 1 4 sctp 1500 -------D 0 1.0 4.0 1 70 125 0 69
+ 6.144608 1 4 sctp 1500 -------D 0 1.0 4.0 1 71 126 0 70
r 6.16784 1 4 sctp 1500 -------D 0 1.0 4.0 1 65 119 0 64
+ 6.16784 4 1 sctp 48 -------S 0 4.0 1.0 1 65 127 65535 65535
- 6.16784 4 1 sctp 48 -------S 0 4.0 1.0 1 65 127 65535 65535
- 6.168608 1 4 sctp 1500 -------D 0 1.0 4.0 1 71 126 0 70
r 6.19184 1 4 sctp 1500 -------D 0 1.0 4.0 1 66 120 0 65
r 6.21584 1 4 sctp 1500 -------D 0 1.0 4.0 1 67 121 0 66
+ 6.21584 4 1 sctp 48 -------S 0 4.0 1.0 1 67 128 65535 65535
- 6.21584 4 1 sctp 48 -------S 0 4.0 1.0 1 67 128 65535 65535
r 6.23984 1 4 sctp 1500 -------D 0 1.0 4.0 1 68 122 0 67
r 6.26384 1 4 sctp 1500 -------D 0 1.0 4.0 1 69 123 0 68
+ 6.26384 4 1 sctp 48 -------S 0 4.0 1.0 1 69 129 65535 65535
- 6.26384 4 1 sctp 48 -------S 0 4.0 1.0 1 69 129 65535 65535
r 6.320608 4 1 sctp 48 -------S 0 4.0 1.0 1 63 124 65535 65535
+ 6.320608 1 4 sctp 1500 -------D 0 1.0 4.0 1 72 130 0 71
- 6.320608 1 4 sctp 1500 -------D 0 1.0 4.0 1 72 130 0 71
+ 6.320608 1 4 sctp 1500 -------D 0 1.0 4.0 1 73 131 0 72
- 6.344608 1 4 sctp 1500 -------D 0 1.0 4.0 1 73 131 0 72
r 6.368608 1 4 sctp 1500 -------D 0 1.0 4.0 1 70 125 0 69
r 6.368608 4 1 sctp 48 -------S 0 4.0 1.0 1 65 127 65535 65535
+ 6.368608 1 4 sctp 1500 -------D 0 1.0 4.0 1 74 132 0 73
+ 6.368608 1 4 sctp 1500 -------D 0 1.0 4.0 1 75 133 0 74
- 6.368608 1 4 sctp 1500 -------D 0 1.0 4.0 1 74 132 0 73
r 6.392608 1 4 sctp 1500 -------D 0 1.0 4.0 1 71 126 0 70
+ 6.392608 4 1 sctp 48 -------S 0 4.0 1.0 1 71 134 65535 65535
- 6.392608 4 1 sctp 48 -------S 0 4.0 1.0 1 71 134 65535 65535
- 6.392608 1 4 sctp 1500 -------D 0 1.0 4.0 1 75 133 0 74
r 6.416608 4 1 sctp 48 -------S 0 4.0 1.0 1 67 128 65535 65535
+ 6.416608 1 4 sctp 1500 -------D 0 1.0 4.0 1 76 135 0 75
+ 6.416608 1 4 sctp 1500 -------D 0 1.0 4.0 1 77 136 0 76
+ 6.416608 1 4 sctp 1500 -------D 0 1.0 4.0 1 78 137 0 77
- 6.416608 1 4 sctp 1500 -------D 0 1.0 4.0 1 76 135 0 75
- 6.440608 1 4 sctp 1500 -------D 0 1.0 4.0 1 77 136 0 76
r 6.464608 4 1 sctp 48 -------S 0 4.0 1.0 1 69 129 65535 65535
+ 6.464608 1 4 sctp 1500 -------D 0 1.0 4.0 1 79 138 0 78
+ 6.464608 1 4 sctp 1500 -------D 0 1.0 4.0 1 80 139 0 79
- 6.464608 1 4 sctp 1500 -------D 0 1.0 4.0 1 78 137 0 77
- 6.488608 1 4 sctp 1500 -------D 0 1.0 4.0 1 79 138 0 78
- 6.512608 1 4 sctp 1500 -------D 0 1.0 4.0 1 80 139 0 79
r 6.544608 1 4 sctp 1500 -------D 0 1.0 4.0 1 72 130 0 71
r 6.568608 1 4 sctp 1500 -------D 0 1.0 4.0 1 73 131 0 72
+ 6.568608 4 1 sctp 48 -------S 0 4.0 1.0 1 73 140 65535 65535
- 6.568608 4 1 sctp 48 -------S 0 4.0 1.0 1 73 140 65535 65535
r 6.592608 1 4 sctp 1500 -------D 0 1.0 4.0 1 74 132 0 73
r 6.593376 4 1 sctp 48 -------S 0 4.0 1.0 1 71 134 65535 65535
+ 6.593376 1 4 sctp 1500 -------D 0 1.0 4.0 1 81 141 0 80
- 6.593376 1 4 sctp 1500 -------D 0 1.0 4.0 1 81 141 0 80
+ 6.593376 1 4 sctp 1500 -------D 0 1.0 4.0 1 82 142 0 81
r 6.616608 1 4 sctp 1500 -------D 0 1.0 4.0 1 75 133 0 74
+ 6.616608 4 1 sctp 48 -------S 0 4.0 1.0 1 75 143 65535 65535
- 6.616608 4 1 sctp 48 -------S 0 4.0 1.0 1 75 143 65535 65535
- 6.617376 1 4 sctp 1500 -------D 0 1.0 4.0 1 82 142 0 81
r 6.640608 1 4 sctp 1500 -------D 0 1.0 4.0 1 76 135 0 75
r 6.664608 1 4 sctp 1500 -------D 0 1.0 4.0 1 77 136 0 76
+ 6.664608 4 1 sctp 48 -------S 0 4.0 1.0 1 77 144 65535 65535
- 6.664608 4 1 sctp 48 -------S 0 4.0 1.0 1 77 144 65535 65535
r 6.688608 1 4 sctp 1500 -------D 0 1.0 4.0 1 78 137 0 77
r 6.712608 1 4 sctp 1500 -------D 0 1.0 4.0 1 79 138 0 78
+ 6.712608 4 1 sctp 48 -------S 0 4.0 1.0 1 79 145 65535 65535
- 6.712608 4 1 sctp 48 -------S 0 4.0 1.0 1 79 145 65535 65535
r 6.736608 1 4 sctp 1500 -------D 0 1.0 4.0 1 80 139 0 79
r 6.769376 4 1 sctp 48 -------S 0 4.0 1.0 1 73 140 65535 65535
+ 6.769376 1 4 sctp 1500 -------D 0 1.0 4.0 1 83 146 0 82
- 6.769376 1 4 sctp 1500 -------D 0 1.0 4.0 1 83 146 0 82
+ 6.769376 1 4 sctp 1500 -------D 0 1.0 4.0 1 84 147 0 83
- 6.793376 1 4 sctp 1500 -------D 0 1.0 4.0 1 84 147 0 83
r 6.817376 1 4 sctp 1500 -------D 0 1.0 4.0 1 81 141 0 80
+ 6.817376 4 1 sctp 48 -------S 0 4.0 1.0 1 81 148 65535 65535
- 6.817376 4 1 sctp 48 -------S 0 4.0 1.0 1 81 148 65535 65535
r 6.817376 4 1 sctp 48 -------S 0 4.0 1.0 1 75 143 65535 65535
+ 6.817376 1 4 sctp 1500 -------D 0 1.0 4.0 1 85 149 0 84
+ 6.817376 1 4 sctp 1500 -------D 0 1.0 4.0 1 86 150 0 85
- 6.817376 1 4 sctp 1500 -------D 0 1.0 4.0 1 85 149 0 84
r 6.841376 1 4 sctp 1500 -------D 0 1.0 4.0 1 82 142 0 81
- 6.841376 1 4 sctp 1500 -------D 0 1.0 4.0 1 86 150 0 85
r 6.865376 4 1 sctp 48 -------S 0 4.0 1.0 1 77 144 65535 65535
+ 6.865376 1 4 sctp 1500 -------D 0 1.0 4.0 1 87 151 0 86
+ 6.865376 1 4 sctp 1500 -------D 0 1.0 4.0 1 88 152 0 87
- 6.865376 1 4 sctp 1500 -------D 0 1.0 4.0 1 87 151 0 86
- 6.889376 1 4 sctp 1500 -------D 0 1.0 4.0 1 88 152 0 87
r 6.913376 4 1 sctp 48 -------S 0 4.0 1.0 1 79 145 65535 65535
+ 6.913376 1 4 sctp 1500 -------D 0 1.0 4.0 1 89 153 0 88
+ 6.913376 1 4 sctp 1500 -------D 0 1.0 4.0 1 90 154 0 89
+ 6.913376 1 4 sctp 1500 -------D 0 1.0 4.0 1 91 155 0 90
- 6.913376 1 4 sctp 1500 -------D 0 1.0 4.0 1 89 153 0 88
- 6.937376 1 4 sctp 1500 -------D 0 1.0 4.0 1 90 154 0 89
- 6.961376 1 4 sctp 1500 -------D 0 1.0 4.0 1 91 155 0 90
r 6.993376 1 4 sctp 1500 -------D 0 1.0 4.0 1 83 146 0 82
+ 6.993376 4 1 sctp 48 -------S 0 4.0 1.0 1 83 156 65535 65535
- 6.993376 4 1 sctp 48 -------S 0 4.0 1.0 1 83 156 65535 65535
r 7.017376 1 4 sctp 1500 -------D 0 1.0 4.0 1 84 147 0 83
r 7.018144 4 1 sctp 48 -------S 0 4.0 1.0 1 81 148 65535 65535
+ 7.018144 1 4 sctp 1500 -------D 0 1.0 4.0 1 92 157 0 91
- 7.018144 1 4 sctp 1500 -------D 0 1.0 4.0 1 92 157 0 91
+ 7.018144 1 4 sctp 1500 -------D 0 1.0 4.0 1 93 158 0 92
r 7.041376 1 4 sctp 1500 -------D 0 1.0 4.0 1 85 149 0 84
+ 7.041376 4 1 sctp 48 -------S 0 4.0 1.0 1 85 159 65535 65535
- 7.041376 4 1 sctp 48 -------S 0 4.0 1.0 1 85 159 65535 65535
- 7.042144 1 4 sctp 1500 -------D 0 1.0 4.0 1 93 158 0 92
r 7.065376 1 4 sctp 1500 -------D 0 1.0 4.0 1 86 150 0 85
r 7.089376 1 4 sctp 1500 -------D 0 1.0 4.0 1 87 151 0 86
+ 7.089376 4 1 sctp 48 -------S 0 4.0 1.0 1 87 160 65535 65535
- 7.089376 4 1 sctp 48 -------S 0 4.0 1.0 1 87 160 65535 65535
r 7.113376 1 4 sctp 1500 -------D 0 1.0 4.0 1 88 152 0 87
r 7.137376 1 4 sctp 1500 -------D 0 1.0 4.0 1 89 153 0 88
+ 7.137376 4 1 sctp 48 -------S 0 4.0 1.0 1 89 161 65535 65535
- 7.137376 4 1 sctp 48 -------S 0 4.0 1.0 1 89 161 65535 65535
r 7.161376 1 4 sctp 1500 -------D 0 1.0 4.0 1 90 154 0 89
r 7.185376 1 4 sctp 1500 -------D 0 1.0 4.0 1 91 155 0 90
+ 7.185376 4 1 sctp 48 -------S 0 4.0 1.0 1 91 162 65535 65535
- 7.185376 4 1 sctp 48 -------S 0 4.0 1.0 1 91 162 65535 65535
r 7.194144 4 1 sctp 48 -------S 0 4.0 1.0 1 83 156 65535 65535
+ 7.194144 1 4 sctp 1500 -------D 0 1.0 4.0 1 94 163 0 93
- 7.194144 1 4 sctp 1500 -------D 0 1.0 4.0 1 94 163 0 93
+ 7.194144 1 4 sctp 1500 -------D 0 1.0 4.0 1 95 164 0 94
- 7.218144 1 4 sctp 1500 -------D 0 1.0 4.0 1 95 164 0 94
r 7.242144 1 4 sctp 1500 -------D 0 1.0 4.0 1 92 157 0 91
r 7.242144 4 1 sctp 48 -------S 0 4.0 1.0 1 85 159 65535 65535
+ 7.242144 1 4 sctp 1500 -------D 0 1.0 4.0 1 96 165 0 95
+ 7.242144 1 4 sctp 1500 -------D 0 1.0 4.0 1 97 166 0 96
- 7.242144 1 4 sctp 1500 -------D 0 1.0 4.0 1 96 165 0 95
r 7.266144 1 4 sctp 1500 -------D 0 1.0 4.0 1 93 158 0 92
+ 7.266144 4 1 sctp 48 -------S 0 4.0 1.0 1 93 167 65535 65535
- 7.266144 4 1 sctp 48 -------S 0 4.0 1.0 1 93 167 65535 65535
- 7.266144 1 4 sctp 1500 -------D 0 1.0 4.0 1 97 166 0 96
r 7.290144 4 1 sctp 48 -------S 0 4.0 1.0 1 87 160 65535 65535
+ 7.290144 1 4 sctp 1500 -------D 0 1.0 4.0 1 98 168 0 97
+ 7.290144 1 4 sctp 1500 -------D 0 1.0 4.0 1 99 169 0 98
- 7.290144 1 4 sctp 1500 -------D 0 1.0 4.0 1 98 168 0 97
- 7.314144 1 4 sctp 1500 -------D 0 1.0 4.0 1 99 169 0 98
r 7.338144 4 1 sctp 48 -------S 0 4.0 1.0 1 89 161 65535 65535
+ 7.338144 1 4 sctp 1500 -------D 0 1.0 4.0 1 100 170 0 99
+ 7.338144 1 4 sctp 1500 -------D 0 1.0 4.0 1 101 171 0 100
+ 7.338144 1 4 sctp 1500 -------D 0 1.0 4.0 1 102 172 0 101
- 7.338144 1 4 sctp 1500 -------D 0 1.0 4.0 1 100 170 0 99
- 7.362144 1 4 sctp 1500 -------D 0 1.0 4.0 1 101 171 0 100
r 7.386144 4 1 sctp 48 -------S 0 4.0 1.0 1 91 162 65535 65535
+ 7.386144 1 4 sctp 1500 -------D 0 1.0 4.0 1 103 173 0 102
+ 7.386144 1 4 sctp 1500 -------D 0 1.0 4.0 1 104 174 0 103
- 7.386144 1 4 sctp 1500 -------D 0 1.0 4.0 1 102 172 0 101
- 7.410144 1 4 sctp 1500 -------D 0 1.0 4.0 1 103 173 0 102
r 7.418144 1 4 sctp 1500 -------D 0 1.0 4.0 1 94 163 0 93
- 7.434144 1 4 sctp 1500 -------D 0 1.0 4.0 1 104 174 0 103
r 7.442144 1 4 sctp 1500 -------D 0 1.0 4.0 1 95 164 0 94
+ 7.442144 4 1 sctp 48 -------S 0 4.0 1.0 1 95 175 65535 65535
- 7.442144 4 1 sctp 48 -------S 0 4.0 1.0 1 95 175 65535 65535
r 7.466144 1 4 sctp 1500 -------D 0 1.0 4.0 1 96 165 0 95
r 7.466912 4 1 sctp 48 -------S 0 4.0 1.0 1 93 167 65535 65535
+ 7.466912 1 4 sctp 1500 -------D 0 1.0 4.0 1 105 176 0 104
- 7.466912 1 4 sctp 1500 -------D 0 1.0 4.0 1 105 176 0 104
+ 7.466912 1 4 sctp 1500 -------D 0 1.0 4.0 1 106 177 0 105
r 7.490144 1 4 sctp 1500 -------D 0 1.0 4.0 1 97 166 0 96