M 0.0 nn:50 x:670 y:670 rp:dsdv
M 0.0 sc:../mobility/scene/scen-670x670-50-600-20-0 cp:../mobility/scene/cbr-50-20-4-512 seed:0.0
M 0.0 prop:Propagation/TwoRayGround ant:Antenna/OmniAntenna
s 22.465028699 _18_ AGT  --- 238 cbr 512 [0 0 0 0] ------- [18:1 20:0 32 0] [0] 0 2
r 22.482896084 _20_ AGT  --- 238 cbr 532 [13a 14 8 800] ------- [18:1 20:0 31 20] [0] 2 2
s 23.789830405 _16_ AGT  --- 241 cbr 512 [0 0 0 0] ------- [16:0 17:0 32 0] [0] 0 1
r 23.798341491 _17_ AGT  --- 241 cbr 532 [13a 11 10 800] ------- [16:0 17:0 32 17] [0] 1 1
s 27.392145149 _18_ AGT  --- 433 cbr 512 [0 0 0 0] ------- [18:1 20:0 32 0] [1] 0 2
r 27.410291116 _20_ AGT  --- 433 cbr 532 [13a 14 19 800] ------- [18:1 20:0 31 20] [1] 2 2
s 28.517876199 _16_ AGT  --- 441 cbr 512 [0 0 0 0] ------- [16:0 17:0 32 0] [1] 0 1
r 28.523453950 _17_ AGT  --- 441 cbr 532 [13a 11 10 800] ------- [16:0 17:0 32 17] [1] 1 1
s 29.031284241 _9_ AGT  --- 443 cbr 512 [0 0 0 0] ------- [9:2 11:0 32 0] [0] 0 2
r 29.048569788 _11_ AGT  --- 443 cbr 532 [13a b 11 800] ------- [9:2 11:0 31 11] [0] 2 2
s 30.208176370 _13_ AGT  --- 447 cbr 512 [0 0 0 0] ------- [13:2 14:1 32 0] [0] 0 3
r 30.234460351 _14_ AGT  --- 447 cbr 532 [13a e 0 800] ------- [13:2 14:1 30 14] [0] 3 3
s 31.548860611 _16_ AGT  --- 448 cbr 512 [0 0 0 0] ------- [16:0 17:0 32 0] [2] 0 1
r 31.554718362 _17_ AGT  --- 448 cbr 532 [13a 11 10 800] ------- [16:0 17:0 32 17] [2] 1 1
s 32.684519882 _13_ AGT  --- 449 cbr 512 [0 0 0 0] ------- [13:2 14:1 32 0] [1] 0 3
r 32.701862303 _14_ AGT  --- 449 cbr 532 [13a e 0 800] ------- [13:2 14:1 30 14] [1] 3 3
s 32.781688682 _18_ AGT  --- 450 cbr 512 [0 0 0 0] ------- [18:1 20:0 32 0] [2] 0 2
r 32.793528097 _20_ AGT  --- 450 cbr 532 [13a 14 19 800] ------- [18:1 20:0 31 20] [2] 2 2
s 34.491492943 _16_ AGT  --- 451 cbr 512 [0 0 0 0] ------- [16:0 17:0 32 0] [3] 0 1
r 34.497030694 _17_ AGT  --- 451 cbr 532 [13a 11 10 800] ------- [16:0 17:0 32 17] [3] 1 1
s 34.880749940 _9_ AGT  --- 452 cbr 512 [0 0 0 0] ------- [9:2 11:0 32 0] [1] 0 2
r 34.892569174 _11_ AGT  --- 452 cbr 532 [13a b 11 800] ------- [9:2 11:0 31 11] [1] 2 2
s 37.452304716 _9_ AGT  --- 574 cbr 512 [0 0 0 0] ------- [9:2 11:0 32 0] [2] 0 2
r 37.463863950 _11_ AGT  --- 574 cbr 532 [13a b 11 800] ------- [9:2 11:0 31 11] [2] 2 2
s 37.722912742 _16_ AGT  --- 589 cbr 512 [0 0 0 0] ------- [16:0 17:0 32 0] [4] 0 1
r 37.728410493 _17_ AGT  --- 589 cbr 532 [13a 11 10 800] ------- [16:0 17:0 32 17] [4] 1 1
s 37.953153224 _8_ AGT  --- 590 cbr 512 [0 0 0 0] ------- [8:1 10:0 32 0] [0] 0 2
r 37.971222629 _10_ AGT  --- 590 cbr 532 [13a a 27 800] ------- [8:1 10:0 31 10] [0] 2 2
s 38.401436885 _13_ AGT  --- 629 cbr 512 [0 0 0 0] ------- [13:2 14:1 32 0] [2] 0 3
r 38.421469550 _14_ AGT  --- 629 cbr 532 [13a e a 800] ------- [13:2 14:1 30 14] [2] 3 3
s 38.435061130 _18_ AGT  --- 630 cbr 512 [0 0 0 0] ------- [18:1 20:0 32 0] [3] 0 2
r 38.453446787 _20_ AGT  --- 630 cbr 532 [13a 14 30 800] ------- [18:1 20:0 31 20] [3] 2 2
s 39.847929645 _9_ AGT  --- 656 cbr 512 [0 0 0 0] ------- [9:2 11:0 32 0] [3] 0 2
r 39.859848880 _11_ AGT  --- 656 cbr 532 [13a b 11 800] ------- [9:2 11:0 31 11] [3] 2 2
s 40.194295343 _8_ AGT  --- 661 cbr 512 [0 0 0 0] ------- [8:1 10:0 32 0] [1] 0 2
r 40.206116232 _10_ AGT  --- 661 cbr 532 [13a a 27 800] ------- [8:1 10:0 31 10] [1] 2 2
s 40.917940000 _12_ AGT  --- 667 cbr 512 [0 0 0 0] ------- [12:2 14:0 32 0] [0] 0 2
r 40.932650935 _14_ AGT  --- 667 cbr 532 [13a e 10 800] ------- [12:2 14:0 31 14] [0] 2 2
s 42.513152124 _16_ AGT  --- 671 cbr 512 [0 0 0 0] ------- [16:0 17:0 32 0] [5] 0 1
r 42.518689875 _17_ AGT  --- 671 cbr 532 [13a 11 10 800] ------- [16:0 17:0 32 17] [5] 1 1
s 42.793685005 _13_ AGT  --- 672 cbr 512 [0 0 0 0] ------- [13:2 14:1 32 0] [3] 0 3
r 42.811366036 _14_ AGT  --- 672 cbr 532 [13a e a 800] ------- [13:2 14:1 30 14] [3] 3 3
s 43.567479079 _9_ AGT  --- 673 cbr 512 [0 0 0 0] ------- [9:2 11:0 32 0] [4] 0 2
r 43.578898313 _11_ AGT  --- 673 cbr 532 [13a b 11 800] ------- [9:2 11:0 31 11] [4] 2 2
s 43.924116671 _18_ AGT  --- 675 cbr 512 [0 0 0 0] ------- [18:1 20:0 32 0] [4] 0 2
r 43.936275953 _20_ AGT  --- 675 cbr 532 [13a 14 30 800] ------- [18:1 20:0 31 20] [4] 2 2
s 44.170440962 _12_ AGT  --- 676 cbr 512 [0 0 0 0] ------- [12:2 14:0 32 0] [1] 0 2
r 44.182619818 _14_ AGT  --- 676 cbr 532 [13a e 10 800] ------- [12:2 14:0 31 14] [1] 2 2
s 44.828039506 _8_ AGT  --- 677 cbr 512 [0 0 0 0] ------- [8:1 10:0 32 0] [2] 0 2
r 44.839860394 _10_ AGT  --- 677 cbr 532 [13a a 27 800] ------- [8:1 10:0 31 10] [2] 2 2
s 45.576363713 _13_ AGT  --- 678 cbr 512 [0 0 0 0] ------- [13:2 14:1 32 0] [4] 0 3
r 45.594564744 _14_ AGT  --- 678 cbr 532 [13a e a 800] ------- [13:2 14:1 30 14] [4] 3 3
s 46.218638542 _18_ AGT  --- 679 cbr 512 [0 0 0 0] ------- [18:1 20:0 32 0] [5] 0 2
r 46.230657823 _20_ AGT  --- 679 cbr 532 [13a 14 30 800] ------- [18:1 20:0 31 20] [5] 2 2
s 46.594853335 _16_ AGT  --- 680 cbr 512 [0 0 0 0] ------- [16:0 17:0 32 0] [6] 0 1
r 46.600651086 _17_ AGT  --- 680 cbr 532 [13a 11 10 800] ------- [16:0 17:0 32 17] [6] 1 1
s 47.234370832 _8_ AGT  --- 685 cbr 512 [0 0 0 0] ------- [8:1 10:0 32 0] [3] 0 2
r 47.246151720 _10_ AGT  --- 685 cbr 532 [13a a 27 800] ------- [8:1 10:0 31 10] [3] 2 2
s 47.686832490 _13_ AGT  --- 730 cbr 512 [0 0 0 0] ------- [13:2 14:1 32 0] [5] 0 3
r 47.711019280 _14_ AGT  --- 730 cbr 532 [13a e 1d 800] ------- [13:2 14:1 30 14] [5] 3 3
s 48.349923099 _12_ AGT  --- 762 cbr 512 [0 0 0 0] ------- [12:2 14:0 32 0] [2] 0 2
r 48.380708551 _14_ AGT  --- 762 cbr 532 [13a e 10 800] ------- [12:2 14:0 31 14] [2] 2 2
s 48.521642525 _9_ AGT  --- 772 cbr 512 [0 0 0 0] ------- [9:2 11:0 32 0] [5] 0 2
r 48.533361759 _11_ AGT  --- 772 cbr 532 [13a b 11 800] ------- [9:2 11:0 31 11] [5] 2 2
s 49.793209131 _16_ AGT  --- 812 cbr 512 [0 0 0 0] ------- [16:0 17:0 32 0] [7] 0 1
r 49.798946882 _17_ AGT  --- 812 cbr 532 [13a 11 10 800] ------- [16:0 17:0 32 17] [7] 1 1
s 50.549413391 _18_ AGT  --- 827 cbr 512 [0 0 0 0] ------- [18:1 20:0 32 0] [6] 0 2
r 50.564346413 _20_ AGT  --- 827 cbr 532 [13a 14 d 800] ------- [18:1 20:0 31 20] [6] 2 2
s 50.660742627 _9_ AGT  --- 829 cbr 512 [0 0 0 0] ------- [9:2 11:0 32 0] [6] 0 2
r 50.678567652 _11_ AGT  --- 829 cbr 532 [13a b e 800] ------- [9:2 11:0 31 11] [6] 2 2
s 52.387042325 _8_ AGT  --- 838 cbr 512 [0 0 0 0] ------- [8:1 10:0 32 0] [4] 0 2
r 52.399223214 _10_ AGT  --- 838 cbr 532 [13a a 27 800] ------- [8:1 10:0 31 10] [4] 2 2
s 52.914197148 _18_ AGT  --- 839 cbr 512 [0 0 0 0] ------- [18:1 20:0 32 0] [7] 0 2
r 52.925916613 _20_ AGT  --- 839 cbr 532 [13a 14 d 800] ------- [18:1 20:0 31 20] [7] 2 2
s 52.946949730 _9_ AGT  --- 840 cbr 512 [0 0 0 0] ------- [9:2 11:0 32 0] [7] 0 2
r 52.958788741 _11_ AGT  --- 840 cbr 532 [13a b e 800] ------- [9:2 11:0 31 11] [7] 2 2
s 53.044907633 _13_ AGT  --- 841 cbr 512 [0 0 0 0] ------- [13:2 14:1 32 0] [6] 0 3
r 53.062628604 _14_ AGT  --- 841 cbr 532 [13a e 1d 800] ------- [13:2 14:1 30 14] [6] 3 3
s 53.322773646 _12_ AGT  --- 842 cbr 512 [0 0 0 0] ------- [12:2 14:0 32 0] [3] 0 2
r 53.334792502 _14_ AGT  --- 842 cbr 532 [13a e 10 800] ------- [12:2 14:0 31 14] [3] 2 2
s 54.918293623 _16_ AGT  --- 843 cbr 512 [0 0 0 0] ------- [16:0 17:0 32 0] [8] 0 1
r 54.924051374 _17_ AGT  --- 843 cbr 532 [13a 11 10 800] ------- [16:0 17:0 32 17] [8] 1 1
s 55.082901747 _13_ AGT  --- 844 cbr 512 [0 0 0 0] ------- [13:2 14:1 32 0] [7] 0 3
r 55.100662718 _14_ AGT  --- 844 cbr 532 [13a e 1d 800] ------- [13:2 14:1 30 14] [7] 3 3
s 56.828631784 _8_ AGT  --- 845 cbr 512 [0 0 0 0] ------- [8:1 10:0 32 0] [5] 0 2
r 56.840372672 _10_ AGT  --- 845 cbr 532 [13a a 27 800] ------- [8:1 10:0 31 10] [5] 2 2
s 56.866108809 _9_ AGT  --- 846 cbr 512 [0 0 0 0] ------- [9:2 11:0 32 0] [8] 0 2
r 56.877907820 _11_ AGT  --- 846 cbr 532 [13a b e 800] ------- [9:2 11:0 31 11] [8] 2 2
s 58.137780526 _18_ AGT  --- 847 cbr 512 [0 0 0 0] ------- [18:1 20:0 32 0] [8] 0 2
r 58.149839991 _20_ AGT  --- 847 cbr 532 [13a 14 d 800] ------- [18:1 20:0 31 20] [8] 2 2
s 58.679095386 _12_ AGT  --- 853 cbr 512 [0 0 0 0] ------- [12:2 14:0 32 0] [4] 0 2
r 58.690494242 _14_ AGT  --- 853 cbr 532 [13a e 10 800] ------- [12:2 14:0 31 14] [4] 2 2
s 60.234544720 _16_ AGT  --- 905 cbr 512 [0 0 0 0] ------- [16:0 17:0 32 0] [9] 0 1
r 60.240362471 _17_ AGT  --- 905 cbr 532 [13a 11 10 800] ------- [16:0 17:0 32 17] [9] 1 1
s 60.552413946 _13_ AGT  --- 927 cbr 512 [0 0 0 0] ------- [13:2 14:1 32 0] [8] 0 3
r 60.579908889 _14_ AGT  --- 927 cbr 532 [13a e a 800] ------- [13:2 14:1 29 14] [8] 4 3
s 60.917208464 _9_ AGT  --- 929 cbr 512 [0 0 0 0] ------- [9:2 11:0 32 0] [9] 0 2
r 60.928847475 _11_ AGT  --- 929 cbr 532 [13a b e 800] ------- [9:2 11:0 31 11] [9] 2 2
s 61.947476273 _8_ AGT  --- 953 cbr 512 [0 0 0 0] ------- [8:1 10:0 32 0] [6] 0 2
r 61.959237161 _10_ AGT  --- 953 cbr 532 [13a a 27 800] ------- [8:1 10:0 31 10] [6] 2 2
s 63.194897478 _9_ AGT  --- 957 cbr 512 [0 0 0 0] ------- [9:2 11:0 32 0] [10] 0 2
s 63.201029492 _13_ AGT  --- 958 cbr 512 [0 0 0 0] ------- [13:2 14:1 32 0] [9] 0 3
r 63.206936489 _11_ AGT  --- 957 cbr 532 [13a b e 800] ------- [9:2 11:0 31 11] [10] 2 2
r 63.224892851 _14_ AGT  --- 958 cbr 532 [13a e 2f 800] ------- [13:2 14:1 30 14] [9] 3 3
s 63.788677419 _12_ AGT  --- 959 cbr 512 [0 0 0 0] ------- [12:2 14:0 32 0] [5] 0 2
r 63.803991797 _14_ AGT  --- 959 cbr 532 [13a e 21 800] ------- [12:2 14:0 31 14] [5] 2 2
s 63.911122657 _18_ AGT  --- 960 cbr 512 [0 0 0 0] ------- [18:1 20:0 32 0] [9] 0 2
r 63.928849758 _20_ AGT  --- 960 cbr 532 [13a 14 18 800] ------- [18:1 20:0 31 20] [9] 2 2
s 63.989940861 _16_ AGT  --- 961 cbr 512 [0 0 0 0] ------- [16:0 17:0 32 0] [10] 0 1
r 63.996018612 _17_ AGT  --- 961 cbr 532 [13a 11 10 800] ------- [16:0 17:0 32 17] [10] 1 1
s 64.447415152 _8_ AGT  --- 962 cbr 512 [0 0 0 0] ------- [8:1 10:0 32 0] [7] 0 2
r 64.459536040 _10_ AGT  --- 962 cbr 532 [13a a 27 800] ------- [8:1 10:0 31 10] [7] 2 2
s 66.784503753 _8_ AGT  --- 963 cbr 512 [0 0 0 0] ------- [8:1 10:0 32 0] [8] 0 2
r 66.796444641 _10_ AGT  --- 963 cbr 532 [13a a 27 800] ------- [8:1 10:0 31 10] [8] 2 2
s 67.311110452 _13_ AGT  --- 964 cbr 512 [0 0 0 0] ------- [13:2 14:1 32 0] [10] 0 3
r 67.328731786 _14_ AGT  --- 964 cbr 532 [13a e 2f 800] ------- [13:2 14:1 30 14] [10] 3 3
s 67.722153863 _16_ AGT  --- 965 cbr 512 [0 0 0 0] ------- [16:0 17:0 32 0] [11] 0 1
r 67.728211614 _17_ AGT  --- 965 cbr 532 [13a 11 10 800] ------- [16:0 17:0 32 17] [11] 1 1
s 68.312549934 _9_ AGT  --- 966 cbr 512 [0 0 0 0] ------- [9:2 11:0 32 0] [11] 0 2
r 68.324188945 _11_ AGT  --- 966 cbr 532 [13a b e 800] ------- [9:2 11:0 31 11] [11] 2 2
s 68.998017735 _18_ AGT  --- 967 cbr 512 [0 0 0 0] ------- [18:1 20:0 32 0] [10] 0 2
r 69.009557635 _20_ AGT  --- 967 cbr 532 [13a 14 18 800] ------- [18:1 20:0 31 20] [10] 2 2
s 69.551136379 _12_ AGT  --- 968 cbr 512 [0 0 0 0] ------- [12:2 14:0 32 0] [6] 0 2
r 69.563416879 _14_ AGT  --- 968 cbr 532 [13a e 21 800] ------- [12:2 14:0 31 14] [6] 2 2
s 69.800899331 _8_ AGT  --- 969 cbr 512 [0 0 0 0] ------- [8:1 10:0 32 0] [9] 0 2
r 69.812660219 _10_ AGT  --- 969 cbr 532 [13a a 27 800] ------- [8:1 10:0 31 10] [9] 2 2
s 71.182540950 _16_ AGT  --- 977 cbr 512 [0 0 0 0] ------- [16:0 17:0 32 0] [12] 0 1
r 71.188478701 _17_ AGT  --- 977 cbr 532 [13a 11 10 800] ------- [16:0 17:0 32 17] [12] 1 1
s 71.359343606 _18_ AGT  --- 980 cbr 512 [0 0 0 0] ------- [18:1 20:0 32 0] [11] 0 2
r 71.376929838 _20_ AGT  --- 980 cbr 532 [13a 14 2a 800] ------- [18:1 20:0 31 20] [11] 2 2
s 71.877815719 _9_ AGT  --- 995 cbr 512 [0 0 0 0] ------- [9:2 11:0 32 0] [12] 0 2
r 71.889634730 _11_ AGT  --- 995 cbr 532 [13a b e 800] ------- [9:2 11:0 31 11] [12] 2 2
s 72.317142730 _13_ AGT  --- 1001 cbr 512 [0 0 0 0] ------- [13:2 14:1 32 0] [11] 0 3
r 72.335344065 _14_ AGT  --- 1001 cbr 532 [13a e 2f 800] ------- [13:2 14:1 30 14] [11] 3 3
s 74.336527295 _8_ AGT  --- 1022 cbr 512 [0 0 0 0] ------- [8:1 10:0 32 0] [10] 0 2
r 74.348228183 _10_ AGT  --- 1022 cbr 532 [13a a 27 800] ------- [8:1 10:0 31 10] [10] 2 2
s 74.786167360 _12_ AGT  --- 1024 cbr 512 [0 0 0 0] ------- [12:2 14:0 32 0] [7] 0 2
r 74.798407859 _14_ AGT  --- 1024 cbr 532 [13a e 21 800] ------- [12:2 14:0 31 14] [7] 2 2
s 75.081438749 _9_ AGT  --- 1026 cbr 512 [0 0 0 0] ------- [9:2 11:0 32 0] [13] 0 2
r 75.104788509 _11_ AGT  --- 1026 cbr 532 [13a b 24 800] ------- [9:2 11:0 30 11] [13] 3 2
s 75.477956243 _19_ AGT  --- 1028 cbr 512 [0 0 0 0] ------- [19:1 20:1 32 0] [0] 0 3
r 75.505498045 _20_ AGT  --- 1028 cbr 532 [13a 14 20 800] ------- [19:1 20:1 30 20] [0] 3 3
s 75.862966863 _16_ AGT  --- 1032 cbr 512 [0 0 0 0] ------- [16:0 17:0 32 0] [13] 0 1
r 75.868484614 _17_ AGT  --- 1032 cbr 532 [13a 11 10 800] ------- [16:0 17:0 32 17] [13] 1 1
s 75.950627668 _13_ AGT  --- 1033 cbr 512 [0 0 0 0] ------- [13:2 14:1 32 0] [12] 0 3
r 75.968349003 _14_ AGT  --- 1033 cbr 532 [13a e 2f 800] ------- [13:2 14:1 30 14] [12] 3 3
s 76.457423645 _18_ AGT  --- 1034 cbr 512 [0 0 0 0] ------- [18:1 20:0 32 0] [12] 0 2
r 76.469043173 _20_ AGT  --- 1034 cbr 532 [13a 14 2a 800] ------- [18:1 20:0 31 20] [12] 2 2
s 77.099827943 _9_ AGT  --- 1036 cbr 512 [0 0 0 0] ------- [9:2 11:0 32 0] [14] 0 2
r 77.116655084 _11_ AGT  --- 1036 cbr 532 [13a b 22 800] ------- [9:2 11:0 31 11] [14] 2 2
s 78.265885949 _8_ AGT  --- 1037 cbr 512 [0 0 0 0] ------- [8:1 10:0 32 0] [11] 0 2
r 78.277666837 _10_ AGT  --- 1037 cbr 532 [13a a 27 800] ------- [8:1 10:0 31 10] [11] 2 2
s 78.397037738 _16_ AGT  --- 1038 cbr 512 [0 0 0 0] ------- [16:0 17:0 32 0] [14] 0 1
r 78.402595489 _17_ AGT  --- 1038 cbr 532 [13a 11 10 800] ------- [16:0 17:0 32 17] [14] 1 1
s 78.990138961 _19_ AGT  --- 1039 cbr 512 [0 0 0 0] ------- [19:1 20:1 32 0] [1] 0 3
r 79.007860448 _20_ AGT  --- 1039 cbr 532 [13a 14 20 800] ------- [19:1 20:1 30 20] [1] 3 3
s 79.184981110 _12_ AGT  --- 1040 cbr 512 [0 0 0 0] ------- [12:2 14:0 32 0] [8] 0 2
r 79.196761610 _14_ AGT  --- 1040 cbr 532 [13a e 21 800] ------- [12:2 14:0 31 14] [8] 2 2
s 79.371595438 _2_ AGT  --- 1041 cbr 512 [0 0 0 0] ------- [2:1 3:1 32 0] [0] 0 3
r 79.395204244 _3_ AGT  --- 1041 cbr 532 [13a 3 15 800] ------- [2:1 3:1 30 3] [0] 3 3
s 79.652995588 _13_ AGT  --- 1042 cbr 512 [0 0 0 0] ------- [13:2 14:1 32 0] [13] 0 3
r 79.670916923 _14_ AGT  --- 1042 cbr 532 [13a e 2f 800] ------- [13:2 14:1 30 14] [13] 3 3
s 80.354797177 _9_ AGT  --- 1043 cbr 512 [0 0 0 0] ------- [9:2 11:0 32 0] [15] 0 2
r 80.366597095 _11_ AGT  --- 1043 cbr 532 [13a b 22 800] ------- [9:2 11:0 31 11] [15] 2 2
s 81.195429400 _8_ AGT  --- 1044 cbr 512 [0 0 0 0] ------- [8:1 10:0 32 0] [12] 0 2
r 81.207530288 _10_ AGT  --- 1044 cbr 532 [13a a 27 800] ------- [8:1 10:0 31 10] [12] 2 2
s 81.259319258 _16_ AGT  --- 1045 cbr 512 [0 0 0 0] ------- [16:0 17:0 32 0] [15] 0 1
r 81.265197009 _17_ AGT  --- 1045 cbr 532 [13a 11 10 800] ------- [16:0 17:0 32 17] [15] 1 1
s 82.430673356 _18_ AGT  --- 1048 cbr 512 [0 0 0 0] ------- [18:1 20:0 32 0] [13] 0 2
r 82.442892884 _20_ AGT  --- 1048 cbr 532 [13a 14 2a 800] ------- [18:1 20:0 31 20] [13] 2 2
s 82.544426348 _13_ AGT  --- 1049 cbr 512 [0 0 0 0] ------- [13:2 14:1 32 0] [14] 0 3
r 82.562627682 _14_ AGT  --- 1049 cbr 532 [13a e 2f 800] ------- [13:2 14:1 30 14] [14] 3 3
s 83.198877144 _12_ AGT  --- 1054 cbr 512 [0 0 0 0] ------- [12:2 14:0 32 0] [9] 0 2
r 83.210357643 _14_ AGT  --- 1054 cbr 532 [13a e 21 800] ------- [12:2 14:0 31 14] [9] 2 2
s 83.602217233 _18_ AGT  --- 1056 cbr 512 [0 0 0 0] ------- [18:0 19:0 32 0] [0] 0 3
r 83.623172523 _19_ AGT  --- 1056 cbr 532 [13a 13 28 800] ------- [18:0 19:0 30 19] [0] 3 3
s 83.644134711 _20_ AGT  --- 1059 cbr 512 [0 0 0 0] ------- [20:2 21:0 32 0] [0] 0 1
r 83.650033105 _21_ AGT  --- 1059 cbr 532 [13a 15 14 800] ------- [20:2 21:0 32 21] [0] 1 1
s 83.876777956 _19_ AGT  --- 1063 cbr 512 [0 0 0 0] ------- [19:1 20:1 32 0] [2] 0 3
r 83.894559443 _20_ AGT  --- 1063 cbr 532 [13a 14 20 800] ------- [19:1 20:1 30 20] [2] 3 3
s 84.765180311 _13_ AGT  --- 1068 cbr 512 [0 0 0 0] ------- [13:2 14:1 32 0] [15] 0 3
r 84.789067628 _14_ AGT  --- 1068 cbr 532 [13a e 2f 800] ------- [13:2 14:1 30 14] [15] 3 3
s 84.874609649 _9_ AGT  --- 1069 cbr 512 [0 0 0 0] ------- [9:2 11:0 32 0] [16] 0 2
r 84.886669566 _11_ AGT  --- 1069 cbr 532 [13a b 22 800] ------- [9:2 11:0 31 11] [16] 2 2
s 85.288776840 _2_ AGT  --- 1072 cbr 512 [0 0 0 0] ------- [2:1 3:1 32 0] [1] 0 3
r 85.306198222 _3_ AGT  --- 1072 cbr 532 [13a 3 15 800] ------- [2:1 3:1 30 3] [1] 3 3
s 85.606884870 _12_ AGT  --- 1078 cbr 512 [0 0 0 0] ------- [12:2 14:0 32 0] [10] 0 2
r 85.618325370 _14_ AGT  --- 1078 cbr 532 [13a e 21 800] ------- [12:2 14:0 31 14] [10] 2 2
s 85.642508799 _18_ AGT  --- 1080 cbr 512 [0 0 0 0] ------- [18:1 20:0 32 0] [14] 0 2
r 85.654228327 _20_ AGT  --- 1080 cbr 532 [13a 14 2a 800] ------- [18:1 20:0 31 20] [14] 2 2
s 86.137465894 _18_ AGT  --- 1082 cbr 512 [0 0 0 0] ------- [18:0 19:0 32 0] [1] 0 3
r 86.155287474 _19_ AGT  --- 1082 cbr 532 [13a 13 28 800] ------- [18:0 19:0 30 19] [1] 3 3
s 86.854279307 _16_ AGT  --- 1092 cbr 512 [0 0 0 0] ------- [16:0 17:0 32 0] [16] 0 1
r 86.860117058 _17_ AGT  --- 1092 cbr 532 [13a 11 10 800] ------- [16:0 17:0 32 17] [16] 1 1
s 86.944264131 _8_ AGT  --- 1094 cbr 512 [0 0 0 0] ------- [8:1 10:0 32 0] [13] 0 2
r 86.956305019 _10_ AGT  --- 1094 cbr 532 [13a a 27 800] ------- [8:1 10:0 31 10] [13] 2 2
s 88.169199058 _19_ AGT  --- 1104 cbr 512 [0 0 0 0] ------- [19:1 20:1 32 0] [3] 0 3
r 88.186960545 _20_ AGT  --- 1104 cbr 532 [13a 14 20 800] ------- [19:1 20:1 30 20] [3] 3 3
s 88.558936776 _20_ AGT  --- 1107 cbr 512 [0 0 0 0] ------- [20:2 21:0 32 0] [1] 0 1
r 88.564895170 _21_ AGT  --- 1107 cbr 532 [13a 15 14 800] ------- [20:2 21:0 32 21] [1] 1 1
s 89.201317789 _12_ AGT  --- 1111 cbr 512 [0 0 0 0] ------- [12:2 14:0 32 0] [11] 0 2
r 89.213158289 _14_ AGT  --- 1111 cbr 532 [13a e 21 800] ------- [12:2 14:0 31 14] [11] 2 2
s 89.467546306 _13_ AGT  --- 1113 cbr 512 [0 0 0 0] ------- [13:2 14:1 32 0] [16] 0 3
r 89.485667675 _14_ AGT  --- 1113 cbr 532 [13a e 2f 800] ------- [13:2 14:1 30 14] [16] 3 3
s 89.633312191 _9_ AGT  --- 1115 cbr 512 [0 0 0 0] ------- [9:2 11:0 32 0] [17] 0 2
r 89.647585221 _11_ AGT  --- 1115 cbr 532 [13a b a 800] ------- [9:2 11:0 31 11] [17] 2 2
s 90.007792342 _2_ AGT  --- 1116 cbr 512 [0 0 0 0] ------- [2:1 3:1 32 0] [2] 0 3
r 90.025613724 _3_ AGT  --- 1116 cbr 532 [13a 3 15 800] ------- [2:1 3:1 30 3] [2] 3 3
s 90.156499128 _16_ AGT  --- 1117 cbr 512 [0 0 0 0] ------- [16:0 17:0 32 0] [17] 0 1
r 90.162356879 _17_ AGT  --- 1117 cbr 532 [13a 11 10 800] ------- [16:0 17:0 32 17] [17] 1 1
s 90.847296192 _18_ AGT  --- 1118 cbr 512 [0 0 0 0] ------- [18:0 19:0 32 0] [2] 0 3
r 90.865277772 _19_ AGT  --- 1118 cbr 532 [13a 13 28 800] ------- [18:0 19:0 30 19] [2] 3 3
s 91.307673869 _18_ AGT  --- 1119 cbr 512 [0 0 0 0] ------- [18:1 20:0 32 0] [15] 0 2
r 91.319293397 _20_ AGT  --- 1119 cbr 532 [13a 14 2a 800] ------- [18:1 20:0 31 20] [15] 2 2
s 91.873785445 _9_ AGT  --- 1120 cbr 512 [0 0 0 0] ------- [9:2 11:0 32 0] [18] 0 2
r 91.885504643 _11_ AGT  --- 1120 cbr 532 [13a b a 800] ------- [9:2 11:0 31 11] [18] 2 2
s 92.190252687 _8_ AGT  --- 1121 cbr 512 [0 0 0 0] ------- [8:1 10:0 32 0] [14] 0 2
r 92.201873575 _10_ AGT  --- 1121 cbr 532 [13a a 27 800] ------- [8:1 10:0 31 10] [14] 2 2
s 92.703703820 _20_ AGT  --- 1122 cbr 512 [0 0 0 0] ------- [20:2 21:0 32 0] [2] 0 1
r 92.709782213 _21_ AGT  --- 1122 cbr 532 [13a 15 14 800] ------- [20:2 21:0 32 21] [2] 1 1
s 92.718603724 _19_ AGT  --- 1123 cbr 512 [0 0 0 0] ------- [19:1 20:1 32 0] [4] 0 3
r 92.736365211 _20_ AGT  --- 1123 cbr 532 [13a 14 20 800] ------- [19:1 20:1 30 20] [4] 3 3
s 93.046753274 _2_ AGT  --- 1124 cbr 512 [0 0 0 0] ------- [2:1 3:1 32 0] [3] 0 3
r 93.064614656 _3_ AGT  --- 1124 cbr 532 [13a 3 15 800] ------- [2:1 3:1 30 3] [3] 3 3
s 93.083615382 _12_ AGT  --- 1125 cbr 512 [0 0 0 0] ------- [12:2 14:0 32 0] [12] 0 2
r 93.095935882 _14_ AGT  --- 1125 cbr 532 [13a e 21 800] ------- [12:2 14:0 31 14] [12] 2 2
s 94.419126150 _13_ AGT  --- 1127 cbr 512 [0 0 0 0] ------- [13:2 14:1 32 0] [17] 0 3
r 94.437107519 _14_ AGT  --- 1127 cbr 532 [13a e 2f 800] ------- [13:2 14:1 30 14] [17] 3 3
s 95.246353434 _19_ AGT  --- 1128 cbr 512 [0 0 0 0] ------- [19:1 20:1 32 0] [5] 0 3
r 95.264294921 _20_ AGT  --- 1128 cbr 532 [13a 14 20 800] ------- [19:1 20:1 30 20] [5] 3 3
s 95.360874846 _18_ AGT  --- 1132 cbr 512 [0 0 0 0] ------- [18:1 20:0 32 0] [16] 0 2
r 95.373054374 _20_ AGT  --- 1132 cbr 532 [13a 14 2a 800] ------- [18:1 20:0 31 20] [16] 2 2
s 95.638129713 _12_ AGT  --- 1133 cbr 512 [0 0 0 0] ------- [12:2 14:0 32 0] [13] 0 2
r 95.650070213 _14_ AGT  --- 1133 cbr 532 [13a e 21 800] ------- [12:2 14:0 31 14] [13] 2 2
s 95.702742986 _18_ AGT  --- 1134 cbr 512 [0 0 0 0] ------- [18:0 19:0 32 0] [3] 0 3
r 95.720384567 _19_ AGT  --- 1134 cbr 532 [13a 13 28 800] ------- [18:0 19:0 30 19] [3] 3 3
s 95.906203271 _16_ AGT  --- 1135 cbr 512 [0 0 0 0] ------- [16:0 17:0 32 0] [18] 0 1
r 95.912281022 _17_ AGT  --- 1135 cbr 532 [13a 11 10 800] ------- [16:0 17:0 32 17] [18] 1 1
s 96.162377323 _2_ AGT  --- 1137 cbr 512 [0 0 0 0] ------- [2:1 3:1 32 0] [4] 0 3
r 96.179758705 _3_ AGT  --- 1137 cbr 532 [13a 3 15 800] ------- [2:1 3:1 30 3] [4] 3 3
s 96.479260376 _9_ AGT  --- 1139 cbr 512 [0 0 0 0] ------- [9:2 11:0 32 0] [19] 0 2
r 96.490899573 _11_ AGT  --- 1139 cbr 532 [13a b a 800] ------- [9:2 11:0 31 11] [19] 2 2
s 96.755592805 _8_ AGT  --- 1141 cbr 512 [0 0 0 0] ------- [8:1 10:0 32 0] [15] 0 2
r 96.767593693 _10_ AGT  --- 1141 cbr 532 [13a a 27 800] ------- [8:1 10:0 31 10] [15] 2 2
s 98.200452060 _20_ AGT  --- 1152 cbr 512 [0 0 0 0] ------- [20:2 21:0 32 0] [3] 0 1
r 98.206470454 _21_ AGT  --- 1152 cbr 532 [13a 15 14 800] ------- [20:2 21:0 32 21] [3] 1 1
s 98.328871319 _16_ AGT  --- 1154 cbr 512 [0 0 0 0] ------- [16:0 17:0 32 0] [19] 0 1
r 98.334549070 _17_ AGT  --- 1154 cbr 532 [13a 11 10 800] ------- [16:0 17:0 32 17] [19] 1 1
s 98.518038519 _9_ AGT  --- 1156 cbr 512 [0 0 0 0] ------- [9:2 11:0 32 0] [20] 0 2
r 98.533084028 _11_ AGT  --- 1156 cbr 532 [13a b a 800] ------- [9:2 11:0 31 11] [20] 2 2
s 98.718454734 _12_ AGT  --- 1158 cbr 512 [0 0 0 0] ------- [12:2 14:0 32 0] [14] 0 2
r 98.730273590 _14_ AGT  --- 1158 cbr 532 [13a e 10 800] ------- [12:2 14:0 31 14] [14] 2 2
s 99.129038646 _18_ AGT  --- 1162 cbr 512 [0 0 0 0] ------- [18:1 20:0 32 0] [17] 0 2
r 99.140658174 _20_ AGT  --- 1162 cbr 532 [13a 14 2a 800] ------- [18:1 20:0 31 20] [17] 2 2
s 99.526767661 _13_ AGT  --- 1164 cbr 512 [0 0 0 0] ------- [13:2 14:1 32 0] [18] 0 3
r 99.544269030 _14_ AGT  --- 1164 cbr 532 [13a e 2f 800] ------- [13:2 14:1 30 14] [18] 3 3
s 99.714608954 _19_ AGT  --- 1168 cbr 512 [0 0 0 0] ------- [19:1 20:1 32 0] [6] 0 3
r 99.732750441 _20_ AGT  --- 1168 cbr 532 [13a 14 20 800] ------- [19:1 20:1 30 20] [6] 3 3
s 99.768551816 _8_ AGT  --- 1169 cbr 512 [0 0 0 0] ------- [8:1 10:0 32 0] [16] 0 2
r 99.780072704 _10_ AGT  --- 1169 cbr 532 [13a a 27 800] ------- [8:1 10:0 31 10] [16] 2 2
s 100.078248516 _2_ AGT  --- 1175 cbr 512 [0 0 0 0] ------- [2:1 3:1 32 0] [5] 0 3
r 100.099283391 _3_ AGT  --- 1175 cbr 532 [13a 3 15 800] ------- [2:1 3:1 30 3] [5] 3 3
s 101.017724722 _18_ AGT  --- 1181 cbr 512 [0 0 0 0] ------- [18:0 19:0 32 0] [4] 0 3
r 101.035966302 _19_ AGT  --- 1181 cbr 532 [13a 13 28 800] ------- [18:0 19:0 30 19] [4] 3 3
s 101.066123721 _9_ AGT  --- 1182 cbr 512 [0 0 0 0] ------- [9:2 11:0 32 0] [21] 0 2
r 101.077662918 _11_ AGT  --- 1182 cbr 532 [13a b a 800] ------- [9:2 11:0 31 11] [21] 2 2
s 101.555558442 _16_ AGT  --- 1189 cbr 512 [0 0 0 0] ------- [16:0 17:0 32 0] [20] 0 1
r 101.561596193 _17_ AGT  --- 1189 cbr 532 [13a 11 10 800] ------- [16:0 17:0 32 17] [20] 1 1
s 103.037545903 _20_ AGT  --- 1196 cbr 512 [0 0 0 0] ------- [20:2 21:0 32 0] [4] 0 1
r 103.043424297 _21_ AGT  --- 1196 cbr 532 [13a 15 14 800] ------- [20:2 21:0 32 21] [4] 1 1
s 103.211655179 _2_ AGT  --- 1197 cbr 512 [0 0 0 0] ------- [2:1 3:1 32 0] [6] 0 3
r 103.235603877 _3_ AGT  --- 1197 cbr 532 [13a 3 1b 800] ------- [2:1 3:1 30 3] [6] 3 3
s 103.333167221 _18_ AGT  --- 1198 cbr 512 [0 0 0 0] ------- [18:1 20:0 32 0] [18] 0 2
s 103.342470404 _8_ AGT  --- 1199 cbr 512 [0 0 0 0] ------- [8:1 10:0 32 0] [17] 0 2
r 103.345427243 _20_ AGT  --- 1198 cbr 532 [13a 14 8 800] ------- [18:1 20:0 31 20] [18] 2 2
r 103.357592917 _10_ AGT  --- 1199 cbr 532 [13a a 27 800] ------- [8:1 10:0 31 10] [17] 2 2
s 104.640331293 _12_ AGT  --- 1201 cbr 512 [0 0 0 0] ------- [12:2 14:0 32 0] [15] 0 2
r 104.652290150 _14_ AGT  --- 1201 cbr 532 [13a e 10 800] ------- [12:2 14:0 31 14] [15] 2 2
s 105.020013770 _19_ AGT  --- 1202 cbr 512 [0 0 0 0] ------- [19:1 20:1 32 0] [7] 0 3
r 105.046573178 _20_ AGT  --- 1202 cbr 532 [13a 14 8 800] ------- [19:1 20:1 29 20] [7] 4 3
s 105.093540981 _9_ AGT  --- 1203 cbr 512 [0 0 0 0] ------- [9:2 11:0 32 0] [22] 0 2
r 105.105120179 _11_ AGT  --- 1203 cbr 532 [13a b a 800] ------- [9:2 11:0 31 11] [22] 2 2
s 105.141084420 _13_ AGT  --- 1204 cbr 512 [0 0 0 0] ------- [13:2 14:1 32 0] [19] 0 3
r 105.162020465 _14_ AGT  --- 1204 cbr 532 [13a e 2f 800] ------- [13:2 14:1 30 14] [19] 3 3
s 105.434817030 _16_ AGT  --- 1205 cbr 512 [0 0 0 0] ------- [16:0 17:0 32 0] [21] 0 1
r 105.440814781 _17_ AGT  --- 1205 cbr 532 [13a 11 10 800] ------- [16:0 17:0 32 17] [21] 1 1
s 105.981804437 _18_ AGT  --- 1207 cbr 512 [0 0 0 0] ------- [18:0 19:0 32 0] [5] 0 3
r 105.999866017 _19_ AGT  --- 1207 cbr 532 [13a 13 28 800] ------- [18:0 19:0 30 19] [5] 3 3
s 106.010700148 _18_ AGT  --- 1208 cbr 512 [0 0 0 0] ------- [18:1 20:0 32 0] [19] 0 2
r 106.022400170 _20_ AGT  --- 1208 cbr 532 [13a 14 8 800] ------- [18:1 20:0 31 20] [19] 2 2
s 106.083234244 _12_ AGT  --- 1209 cbr 512 [0 0 0 0] ------- [12:1 13:1 32 0] [0] 0 2
r 106.095134716 _13_ AGT  --- 1209 cbr 532 [13a d 2e 800] ------- [12:1 13:1 31 13] [0] 2 2
s 107.157923580 _2_ AGT  --- 1210 cbr 512 [0 0 0 0] ------- [2:1 3:1 32 0] [7] 0 3
r 107.176005504 _3_ AGT  --- 1210 cbr 532 [13a 3 1b 800] ------- [2:1 3:1 30 3] [7] 3 3
s 107.456815245 _9_ AGT  --- 1211 cbr 512 [0 0 0 0] ------- [9:2 11:0 32 0] [23] 0 2
r 107.468534443 _11_ AGT  --- 1211 cbr 532 [13a b a 800] ------- [9:2 11:0 31 11] [23] 2 2
s 107.488862404 _13_ AGT  --- 1212 cbr 512 [0 0 0 0] ------- [13:2 14:1 32 0] [20] 0 3
r 107.506484932 _14_ AGT  --- 1212 cbr 532 [13a e 2f 800] ------- [13:2 14:1 30 14] [20] 3 3
s 107.876933158 _8_ AGT  --- 1213 cbr 512 [0 0 0 0] ------- [8:1 10:0 32 0] [18] 0 2
r 107.888294046 _10_ AGT  --- 1213 cbr 532 [13a a 27 800] ------- [8:1 10:0 31 10] [18] 2 2
s 107.995884264 _16_ AGT  --- 1215 cbr 512 [0 0 0 0] ------- [16:0 17:0 32 0] [22] 0 1
r 108.001602015 _17_ AGT  --- 1215 cbr 532 [13a 11 10 800] ------- [16:0 17:0 32 17] [22] 1 1
s 108.067605532 _20_ AGT  --- 1217 cbr 512 [0 0 0 0] ------- [20:2 21:0 32 0] [5] 0 1
r 108.073363925 _21_ AGT  --- 1217 cbr 532 [13a 15 14 800] ------- [20:2 21:0 32 21] [5] 1 1
s 108.313294705 _18_ AGT  --- 1218 cbr 512 [0 0 0 0] ------- [18:1 20:0 32 0] [20] 0 2
r 108.325054728 _20_ AGT  --- 1218 cbr 532 [13a 14 8 800] ------- [18:1 20:0 31 20] [20] 2 2
s 108.722907766 _12_ AGT  --- 1220 cbr 512 [0 0 0 0] ------- [12:2 14:0 32 0] [16] 0 2
r 108.736536267 _14_ AGT  --- 1220 cbr 532 [13a e 10 800] ------- [12:2 14:0 31 14] [16] 2 2
s 109.002632585 _18_ AGT  --- 1223 cbr 512 [0 0 0 0] ------- [18:0 19:0 32 0] [6] 0 3
r 109.021034165 _19_ AGT  --- 1223 cbr 532 [13a 13 28 800] ------- [18:0 19:0 30 19] [6] 3 3
s 109.811505380 _13_ AGT  --- 1226 cbr 512 [0 0 0 0] ------- [13:2 14:1 32 0] [21] 0 3
r 109.832733047 _14_ AGT  --- 1226 cbr 532 [13a e 2f 800] ------- [13:2 14:1 30 14] [21] 3 3
s 109.882228920 _2_ AGT  --- 1228 cbr 512 [0 0 0 0] ------- [2:1 3:1 32 0] [8] 0 3
r 109.900590844 _3_ AGT  --- 1228 cbr 532 [13a 3 1b 800] ------- [2:1 3:1 30 3] [8] 3 3
s 110.052417605 _11_ AGT  --- 1231 cbr 512 [0 0 0 0] ------- [11:3 13:0 32 0] [0] 0 3
r 110.070000572 _13_ AGT  --- 1231 cbr 532 [13a d 1b 800] ------- [11:3 13:0 30 13] [0] 3 3
s 110.798740846 _19_ AGT  --- 1235 cbr 512 [0 0 0 0] ------- [19:1 20:1 32 0] [8] 0 3
r 110.822326013 _20_ AGT  --- 1235 cbr 532 [13a 14 8 800] ------- [19:1 20:1 29 20] [8] 4 3
s 110.924711194 _18_ AGT  --- 1237 cbr 512 [0 0 0 0] ------- [18:1 20:0 32 0] [21] 0 2
r 110.936551216 _20_ AGT  --- 1237 cbr 532 [13a 14 8 800] ------- [18:1 20:0 31 20] [21] 2 2
s 111.080310254 _9_ AGT  --- 1238 cbr 512 [0 0 0 0] ------- [9:2 11:0 32 0] [24] 0 2
r 111.091969452 _11_ AGT  --- 1238 cbr 532 [13a b a 800] ------- [9:2 11:0 31 11] [24] 2 2
s 111.294555985 _18_ AGT  --- 1240 cbr 512 [0 0 0 0] ------- [18:0 19:0 32 0] [7] 0 3
r 111.312097566 _19_ AGT  --- 1240 cbr 532 [13a 13 28 800] ------- [18:0 19:0 30 19] [7] 3 3
s 111.825271017 _12_ AGT  --- 1247 cbr 512 [0 0 0 0] ------- [12:1 13:1 32 0] [1] 0 2
r 111.837191488 _13_ AGT  --- 1247 cbr 532 [13a d 2e 800] ------- [12:1 13:1 31 13] [1] 2 2
s 111.979228817 _16_ AGT  --- 1249 cbr 512 [0 0 0 0] ------- [16:0 17:0 32 0] [23] 0 1
r 111.984846568 _17_ AGT  --- 1249 cbr 532 [13a 11 10 800] ------- [16:0 17:0 32 17] [23] 1 1
s 112.218757731 _2_ AGT  --- 1253 cbr 512 [0 0 0 0] ------- [2:1 3:1 32 0] [9] 0 3
r 112.238567304 _3_ AGT  --- 1253 cbr 532 [13a 3 1b 800] ------- [2:1 3:1 30 3] [9] 3 3
s 112.966294141 _12_ AGT  --- 1258 cbr 512 [0 0 0 0] ------- [12:2 14:0 32 0] [17] 0 2
r 112.978092997 _14_ AGT  --- 1258 cbr 532 [13a e 10 800] ------- [12:2 14:0 31 14] [17] 2 2
s 113.342781711 _8_ AGT  --- 1264 cbr 512 [0 0 0 0] ------- [8:1 10:0 32 0] [19] 0 2
r 113.354682599 _10_ AGT  --- 1264 cbr 532 [13a a 27 800] ------- [8:1 10:0 31 10] [19] 2 2
s 113.588500565 _20_ AGT  --- 1266 cbr 512 [0 0 0 0] ------- [20:2 21:0 32 0] [6] 0 1
r 113.594338958 _21_ AGT  --- 1266 cbr 532 [13a 15 14 800] ------- [20:2 21:0 32 21] [6] 1 1
s 113.922680929 _9_ AGT  --- 1268 cbr 512 [0 0 0 0] ------- [9:2 11:0 32 0] [25] 0 2
r 113.934360127 _11_ AGT  --- 1268 cbr 532 [13a b a 800] ------- [9:2 11:0 31 11] [25] 2 2
s 113.956887573 _13_ AGT  --- 1269 cbr 512 [0 0 0 0] ------- [13:2 14:1 32 0] [22] 0 3