M 0.0 nn:50 x:670 y:670 rp:dsr
M 0.0 sc:../mobility/scene/scen-670x670-50-600-20-0 cp:../mobility/scene/cbr-50-20-4-512 seed:0.0
M 0.0 prop:Propagation/TwoRayGround ant:Antenna/OmniAntenna
Sconfig 0.00000 tap: on snoop: rts? on errs? on
Sconfig 0.00000 salvage: on !bd replies? on
Sconfig 0.00000 grat error: on grat reply: on
Sconfig 0.00000 $reply for props: on ring 0 search: on
Sconfig 0.00000 using MOBICACHE
s 22.465028699 _18_ AGT  --- 0 cbr 512 [0 0 0 0] ------- [18:1 20:0 32 0] [0] 0 2
D 22.615814338 _13_ IFQ  ARP 10 DSR 60 [13a d d 800] ------- [20:255 18:255 252 18] 4 [0 2] [1 2 4 18->20] [0 0 0 0->0]
SFESTs 22.642334853 _18_ 0 [18 -> 20] 1(1) to 24 [18 |24 20 ]
r 22.667292193 _20_ AGT  --- 0 cbr 512 [13a 14 18 800] ------- [18:1 20:0 31 20] [0] 2 2
D 22.708858201 _21_ IFQ  ARP 16 DSR 60 [13a 15 15 800] ------- [20:255 18:255 252 18] 4 [0 2] [1 2 4 18->20] [0 0 0 0->0]
s 23.789830405 _16_ AGT  --- 18 cbr 512 [0 0 0 0] ------- [16:0 17:0 32 0] [0] 0 1
SFESTs 23.801593471 _16_ 18 [16 -> 17] 1(1) to 17 [16 |17 ]
r 23.807903222 _17_ AGT  --- 18 cbr 512 [13a 11 10 800] ------- [16:0 17:0 32 17] [0] 1 1
s 25.415462184 _18_ AGT  --- 21 cbr 512 [0 0 0 0] ------- [18:1 20:0 32 0] [1] 0 2
SFESTs 25.415462184 _18_ 21 [18 -> 20] 1(1) to 24 [18 |24 20 ]
r 25.427502085 _20_ AGT  --- 21 cbr 512 [13a 14 18 800] ------- [18:1 20:0 31 20] [1] 2 2
s 26.144503490 _16_ AGT  --- 22 cbr 512 [0 0 0 0] ------- [16:0 17:0 32 0] [1] 0 1
SFESTs 26.144503490 _16_ 22 [16 -> 17] 1(1) to 17 [16 |17 ]
r 26.150549242 _17_ AGT  --- 22 cbr 512 [13a 11 10 800] ------- [16:0 17:0 32 17] [1] 1 1
s 29.031284241 _9_ AGT  --- 23 cbr 512 [0 0 0 0] ------- [9:2 11:0 32 0] [0] 0 2
SFESTs 29.165620799 _9_ 23 [9 -> 11] 1(1) to 10 [9 |10 11 ]
r 29.184711897 _11_ AGT  --- 23 cbr 512 [13a b a 800] ------- [9:2 11:0 31 11] [0] 2 2
D 29.191994538 _34_ IFQ  ARP 31 DSR 60 [13a 22 22 800] ------- [11:255 9:255 252 9] 4 [0 2] [1 2 4 9->11] [0 0 0 0->0]
s 30.007243501 _18_ AGT  --- 33 cbr 512 [0 0 0 0] ------- [18:1 20:0 32 0] [2] 0 2
SFESTs 30.007243501 _18_ 33 [18 -> 20] 1(1) to 24 [18 |24 20 ]
r 30.019443402 _20_ AGT  --- 33 cbr 512 [13a 14 18 800] ------- [18:1 20:0 31 20] [2] 2 2
s 30.208176370 _13_ AGT  --- 34 cbr 512 [0 0 0 0] ------- [13:2 14:1 32 0] [0] 0 3
D 30.345157350 _22_ IFQ  ARP 43 DSR 68 [13a 16 16 800] ------- [14:255 13:255 252 4] 5 [0 2] [1 2 5 13->14] [0 0 0 0->0]
D 30.357751558 _22_ IFQ  ARP 39 DSR 68 [13a 16 16 800] ------- [14:255 13:255 252 4] 5 [0 2] [1 2 5 13->14] [0 0 0 0->0]
SSendFailure 30.361018398 _22_ 42 37 14:255 13:255 22->4 1 3 2 5 [14 17 |22 4 13 ]
Ssalv 30.36102 _22_ adding to SB --- 42 14 -> 13 [0]
SSendFailure 30.361018398 _22_ 50 37 14:255 13:255 22->4 1 3 2 5 [14 10 |22 4 13 ]
Ssalv 30.36102 _22_ adding to SB --- 50 14 -> 13 [0]
D 30.368344319 _22_ IFQ  ARP 44 DSR 76 [13a 16 16 800] ------- [14:255 13:255 251 4] 6 [0 2] [1 2 6 13->14] [0 0 0 0->0]
D 30.394625753 _22_ IFQ  ARP 38 DSR 60 [13a 16 16 800] ------- [14:255 13:255 253 4] 4 [0 2] [1 2 4 13->14] [0 0 0 0->0]
SSendFailure 30.397430019 _22_ 41 37 14:255 13:255 22->4 1 3 2 5 [14 9 |22 4 13 ]
D 30.397430019 _22_ RTR  CBK 41 DSR 68 [13a 16 16 800] ------- [14:255 13:255 252 4] 5 [0 2] [0 2 5 13->14] [0 0 0 0->0]
SSendFailure 30.397430019 _22_ 42 37 14:255 13:255 22->4 1 3 2 3 [|22 4 13 ]
D 30.397430019 _22_ RTR  CBK 42 DSR 108 [13a 16 16 800] ------- [14:255 13:255 252 4] 3 [0 2] [0 2 5 13->14] [0 0 0 0->0]
D 30.407810987 _22_ IFQ  ARP 50 DSR 108 [13a 16 16 800] ------- [14:255 13:255 252 4] 3 [0 2] [1 2 5 13->14] [0 0 0 0->0]
SFESTs 30.435094603 _13_ 34 [13 -> 14] 1(1) to 4 [13 |4 22 43 14 ]
r 30.505113399 _14_ AGT  --- 34 cbr 512 [13a e 2b 800] ------- [13:2 14:1 29 14] [0] 4 3
s 30.860185885 _16_ AGT  --- 58 cbr 512 [0 0 0 0] ------- [16:0 17:0 32 0] [2] 0 1
SFESTs 30.860185885 _16_ 58 [16 -> 17] 1(1) to 17 [16 |17 ]
r 30.865931637 _17_ AGT  --- 58 cbr 512 [13a 11 10 800] ------- [16:0 17:0 32 17] [2] 1 1
s 32.280826420 _9_ AGT  --- 59 cbr 512 [0 0 0 0] ------- [9:2 11:0 32 0] [1] 0 2
SFESTs 32.280826420 _9_ 59 [9 -> 11] 1(1) to 10 [9 |10 11 ]
r 32.292865618 _11_ AGT  --- 59 cbr 512 [13a b a 800] ------- [9:2 11:0 31 11] [1] 2 2
s 33.344010176 _16_ AGT  --- 60 cbr 512 [0 0 0 0] ------- [16:0 17:0 32 0] [3] 0 1
SFs 33.344010176 _16_ 60 [16 -> 17] 1(0) to 17 
r 33.350027927 _17_ AGT  --- 60 cbr 512 [13a 11 10 800] ------- [16:0 17:0 32 17] [3] 1 1
s 33.542826167 _13_ AGT  --- 61 cbr 512 [0 0 0 0] ------- [13:2 14:1 32 0] [1] 0 3
SFESTs 33.542826167 _13_ 61 [13 -> 14] 3(1) to 4 [13 |4 47 14 ]
r 33.561324211 _14_ AGT  --- 61 cbr 512 [13a e 2f 800] ------- [13:2 14:1 30 14] [1] 3 3
s 35.282671409 _18_ AGT  --- 62 cbr 512 [0 0 0 0] ------- [18:1 20:0 32 0] [3] 0 2
SFESTs 35.282671409 _18_ 62 [18 -> 20] 1(1) to 24 [18 |24 20 ]
r 35.294311310 _20_ AGT  --- 62 cbr 512 [13a 14 18 800] ------- [18:1 20:0 31 20] [3] 2 2
s 35.771744676 _9_ AGT  --- 63 cbr 512 [0 0 0 0] ------- [9:2 11:0 32 0] [2] 0 2
SFESTs 35.771744676 _9_ 63 [9 -> 11] 1(1) to 10 [9 |10 11 ]
r 35.783483874 _11_ AGT  --- 63 cbr 512 [13a b a 800] ------- [9:2 11:0 31 11] [2] 2 2
s 35.797941361 _13_ AGT  --- 64 cbr 512 [0 0 0 0] ------- [13:2 14:1 32 0] [2] 0 3
SFESTs 35.797941361 _13_ 64 [13 -> 14] 3(1) to 4 [13 |4 47 14 ]
r 35.816759406 _14_ AGT  --- 64 cbr 512 [13a e 2f 800] ------- [13:2 14:1 30 14] [2] 3 3
s 36.822704808 _16_ AGT  --- 65 cbr 512 [0 0 0 0] ------- [16:0 17:0 32 0] [4] 0 1
SFESTs 36.822704808 _16_ 65 [16 -> 17] 1(1) to 17 [16 |17 ]
r 36.828450560 _17_ AGT  --- 65 cbr 512 [13a 11 10 800] ------- [16:0 17:0 32 17] [4] 1 1
s 37.953153224 _8_ AGT  --- 66 cbr 512 [0 0 0 0] ------- [8:1 10:0 32 0] [0] 0 2
SFESTs 37.960979462 _8_ 66 [8 -> 10] 1(1) to 46 [8 |46 9 10 ]
r 37.988983530 _10_ AGT  --- 66 cbr 512 [13a a 9 800] ------- [8:1 10:0 30 10] [0] 3 2
s 38.525285027 _9_ AGT  --- 71 cbr 512 [0 0 0 0] ------- [9:2 11:0 32 0] [3] 0 2
SFs 38.525285027 _9_ 71 [9 -> 11] 1(0) to 10 
SFf 38.531142100 _10_ 71 [9 -> 11] 1 to 11
r 38.537164225 _11_ AGT  --- 71 cbr 512 [13a b a 800] ------- [9:2 11:0 31 11] [3] 2 2
s 38.960615371 _13_ AGT  --- 72 cbr 512 [0 0 0 0] ------- [13:2 14:1 32 0] [3] 0 3
SFESTs 38.960615371 _13_ 72 [13 -> 14] 3(1) to 4 [13 |4 47 14 ]
r 38.978613415 _14_ AGT  --- 72 cbr 512 [13a e 2f 800] ------- [13:2 14:1 30 14] [3] 3 3
s 39.515216354 _18_ AGT  --- 73 cbr 512 [0 0 0 0] ------- [18:1 20:0 32 0] [4] 0 2
SFs 39.515216354 _18_ 73 [18 -> 20] 1(0) to 24 
SFf 39.520754758 _24_ 73 [18 -> 20] 1 to 20
r 39.527036255 _20_ AGT  --- 73 cbr 512 [13a 14 18 800] ------- [18:1 20:0 31 20] [4] 2 2
s 40.456727900 _8_ AGT  --- 74 cbr 512 [0 0 0 0] ------- [8:1 10:0 32 0] [1] 0 2
SFESTs 40.456727900 _8_ 74 [8 -> 10] 3(1) to 39 [8 |39 10 ]
r 40.472523039 _10_ AGT  --- 74 cbr 512 [13a a 27 800] ------- [8:1 10:0 31 10] [1] 2 2
s 40.689445157 _16_ AGT  --- 75 cbr 512 [0 0 0 0] ------- [16:0 17:0 32 0] [5] 0 1
SFs 40.689445157 _16_ 75 [16 -> 17] 1(0) to 17 
r 40.695342908 _17_ AGT  --- 75 cbr 512 [13a 11 10 800] ------- [16:0 17:0 32 17] [5] 1 1
s 40.917940000 _12_ AGT  --- 76 cbr 512 [0 0 0 0] ------- [12:2 14:0 32 0] [0] 0 2
SFESTs 40.917940000 _12_ 76 [12 -> 14] 1(1) to 9 [12 |9 14 ]
r 40.933031737 _14_ AGT  --- 76 cbr 512 [13a e 9 800] ------- [12:2 14:0 31 14] [0] 2 2
s 41.141648417 _9_ AGT  --- 77 cbr 512 [0 0 0 0] ------- [9:2 11:0 32 0] [4] 0 2
SFESTs 41.141648417 _9_ 77 [9 -> 11] 1(1) to 10 [9 |10 11 ]
r 41.153567614 _11_ AGT  --- 77 cbr 512 [13a b a 800] ------- [9:2 11:0 31 11] [4] 2 2
s 43.136614056 _8_ AGT  --- 78 cbr 512 [0 0 0 0] ------- [8:1 10:0 32 0] [2] 0 2
SFESTs 43.136614056 _8_ 78 [8 -> 10] 3(1) to 39 [8 |39 10 ]
r 43.148754944 _10_ AGT  --- 78 cbr 512 [13a a 27 800] ------- [8:1 10:0 31 10] [2] 2 2
s 43.152276300 _13_ AGT  --- 79 cbr 512 [0 0 0 0] ------- [13:2 14:1 32 0] [4] 0 3
SFs 43.152276300 _13_ 79 [13 -> 14] 3(0) to 4 
SFf 43.157934683 _4_ 79 [13 -> 14] 3 to 47
SFf 43.164095937 _47_ 79 [13 -> 14] 3 to 14
r 43.170418344 _14_ AGT  --- 79 cbr 512 [13a e 2f 800] ------- [13:2 14:1 30 14] [4] 3 3
s 43.484153333 _16_ AGT  --- 80 cbr 512 [0 0 0 0] ------- [16:0 17:0 32 0] [6] 0 1
SFESTs 43.484153333 _16_ 80 [16 -> 17] 1(1) to 17 [16 |17 ]
r 43.490139084 _17_ AGT  --- 80 cbr 512 [13a 11 10 800] ------- [16:0 17:0 32 17] [6] 1 1
s 44.415637040 _18_ AGT  --- 81 cbr 512 [0 0 0 0] ------- [18:1 20:0 32 0] [5] 0 2
SFESTs 44.415637040 _18_ 81 [18 -> 20] 1(1) to 24 [18 |24 20 ]
r 44.427936941 _20_ AGT  --- 81 cbr 512 [13a 14 18 800] ------- [18:1 20:0 31 20] [5] 2 2
s 46.349711674 _9_ AGT  --- 82 cbr 512 [0 0 0 0] ------- [9:2 11:0 32 0] [5] 0 2
SFESTs 46.349711674 _9_ 82 [9 -> 11] 1(1) to 10 [9 |10 11 ]
r 46.361670872 _11_ AGT  --- 82 cbr 512 [13a b a 800] ------- [9:2 11:0 31 11] [5] 2 2
s 46.775602220 _12_ AGT  --- 83 cbr 512 [0 0 0 0] ------- [12:2 14:0 32 0] [1] 0 2
SFESTs 46.775602220 _12_ 83 [12 -> 14] 1(1) to 9 [12 |9 14 ]
r 46.788040901 _14_ AGT  --- 83 cbr 512 [13a e 9 800] ------- [12:2 14:0 31 14] [1] 2 2
s 47.085531365 _13_ AGT  --- 84 cbr 512 [0 0 0 0] ------- [13:2 14:1 32 0] [5] 0 3
SFESTs 47.085531365 _13_ 84 [13 -> 14] 3(1) to 4 [13 |4 47 14 ]
r 47.104129409 _14_ AGT  --- 84 cbr 512 [13a e 2f 800] ------- [13:2 14:1 30 14] [5] 3 3
s 47.646612029 _18_ AGT  --- 85 cbr 512 [0 0 0 0] ------- [18:1 20:0 32 0] [6] 0 2
SFs 47.646612029 _18_ 85 [18 -> 20] 1(0) to 24 
SFf 47.652610433 _24_ 85 [18 -> 20] 1 to 20
r 47.658771930 _20_ AGT  --- 85 cbr 512 [13a 14 18 800] ------- [18:1 20:0 31 20] [6] 2 2
s 47.860175839 _8_ AGT  --- 86 cbr 512 [0 0 0 0] ------- [8:1 10:0 32 0] [3] 0 2
SFESTs 47.860175839 _8_ 86 [8 -> 10] 3(1) to 39 [8 |39 10 ]
r 47.871996727 _10_ AGT  --- 86 cbr 512 [13a a 27 800] ------- [8:1 10:0 31 10] [3] 2 2
s 48.391584099 _16_ AGT  --- 87 cbr 512 [0 0 0 0] ------- [16:0 17:0 32 0] [7] 0 1
SFs 48.391584099 _16_ 87 [16 -> 17] 1(0) to 17 
r 48.397261850 _17_ AGT  --- 87 cbr 512 [13a 11 10 800] ------- [16:0 17:0 32 17] [7] 1 1
s 49.602607401 _9_ AGT  --- 88 cbr 512 [0 0 0 0] ------- [9:2 11:0 32 0] [6] 0 2
SFs 49.602607401 _9_ 88 [9 -> 11] 1(0) to 10 
SFf 49.608584474 _10_ 88 [9 -> 11] 1 to 11
r 49.614926599 _11_ AGT  --- 88 cbr 512 [13a b a 800] ------- [9:2 11:0 31 11] [6] 2 2
s 49.689944682 _12_ AGT  --- 89 cbr 512 [0 0 0 0] ------- [12:2 14:0 32 0] [2] 0 2
SFESTs 49.689944682 _12_ 89 [12 -> 14] 1(1) to 9 [12 |9 14 ]
r 49.702343363 _14_ AGT  --- 89 cbr 512 [13a e 9 800] ------- [12:2 14:0 31 14] [2] 2 2
s 50.754075405 _13_ AGT  --- 90 cbr 512 [0 0 0 0] ------- [13:2 14:1 32 0] [6] 0 3
SFs 50.754075405 _13_ 90 [13 -> 14] 3(0) to 4 
SFf 50.759873787 _4_ 90 [13 -> 14] 3 to 47
SFf 50.766035042 _47_ 90 [13 -> 14] 3 to 14
r 50.771797449 _14_ AGT  --- 90 cbr 512 [13a e 2f 800] ------- [13:2 14:1 30 14] [6] 3 3
s 52.182434924 _8_ AGT  --- 91 cbr 512 [0 0 0 0] ------- [8:1 10:0 32 0] [4] 0 2
SFs 52.182434924 _8_ 91 [8 -> 10] 3(0) to 39 
SFf 52.187953362 _39_ 91 [8 -> 10] 3 to 10
r 52.193975812 _10_ AGT  --- 91 cbr 512 [13a a 27 800] ------- [8:1 10:0 31 10] [4] 2 2
s 52.516632335 _9_ AGT  --- 92 cbr 512 [0 0 0 0] ------- [9:2 11:0 32 0] [7] 0 2
SFESTs 52.516632335 _9_ 92 [9 -> 11] 1(1) to 10 [9 |10 11 ]
r 52.528491533 _11_ AGT  --- 92 cbr 512 [13a b a 800] ------- [9:2 11:0 31 11] [7] 2 2
s 53.052918750 _18_ AGT  --- 93 cbr 512 [0 0 0 0] ------- [18:1 20:0 32 0] [7] 0 2
SFESTs 53.052918750 _18_ 93 [18 -> 20] 1(1) to 24 [18 |24 20 ]
r 53.065258650 _20_ AGT  --- 93 cbr 512 [13a 14 18 800] ------- [18:1 20:0 31 20] [7] 2 2
s 53.315852708 _13_ AGT  --- 94 cbr 512 [0 0 0 0] ------- [13:2 14:1 32 0] [7] 0 3
SFESTs 53.315852708 _13_ 94 [13 -> 14] 3(1) to 4 [13 |4 47 14 ]
r 53.334470752 _14_ AGT  --- 94 cbr 512 [13a e 2f 800] ------- [13:2 14:1 30 14] [7] 3 3
s 53.760781249 _12_ AGT  --- 95 cbr 512 [0 0 0 0] ------- [12:2 14:0 32 0] [3] 0 2
SFs 53.760781249 _12_ 95 [12 -> 14] 1(0) to 9 
SFf 53.766338791 _9_ 95 [12 -> 14] 1 to 14
r 53.772599930 _14_ AGT  --- 95 cbr 512 [13a e 9 800] ------- [12:2 14:0 31 14] [3] 2 2
s 53.967701765 _16_ AGT  --- 96 cbr 512 [0 0 0 0] ------- [16:0 17:0 32 0] [8] 0 1
SFESTs 53.967701765 _16_ 96 [16 -> 17] 1(1) to 17 [16 |17 ]
r 53.973567516 _17_ AGT  --- 96 cbr 512 [13a 11 10 800] ------- [16:0 17:0 32 17] [8] 1 1
s 56.039096554 _8_ AGT  --- 97 cbr 512 [0 0 0 0] ------- [8:1 10:0 32 0] [5] 0 2
SFESTs 56.039096554 _8_ 97 [8 -> 10] 3(1) to 39 [8 |39 10 ]
r 56.051397442 _10_ AGT  --- 97 cbr 512 [13a a 27 800] ------- [8:1 10:0 31 10] [5] 2 2
s 56.381669943 _18_ AGT  --- 98 cbr 512 [0 0 0 0] ------- [18:1 20:0 32 0] [8] 0 2
SFs 56.381669943 _18_ 98 [18 -> 20] 1(0) to 24 
SFf 56.387648347 _24_ 98 [18 -> 20] 1 to 20
r 56.393609844 _20_ AGT  --- 98 cbr 512 [13a 14 18 800] ------- [18:1 20:0 31 20] [8] 2 2
s 57.626764482 _16_ AGT  --- 99 cbr 512 [0 0 0 0] ------- [16:0 17:0 32 0] [9] 0 1
SFs 57.626764482 _16_ 99 [16 -> 17] 1(0) to 17 
r 57.632702233 _17_ AGT  --- 99 cbr 512 [13a 11 10 800] ------- [16:0 17:0 32 17] [9] 1 1
s 57.665606689 _13_ AGT  --- 100 cbr 512 [0 0 0 0] ------- [13:2 14:1 32 0] [8] 0 3
SFs 57.665606689 _13_ 100 [13 -> 14] 3(0) to 4 
SFf 57.671585071 _4_ 100 [13 -> 14] 3 to 47
SFf 57.677646326 _47_ 100 [13 -> 14] 3 to 14
r 57.683608733 _14_ AGT  --- 100 cbr 512 [13a e 2f 800] ------- [13:2 14:1 30 14] [8] 3 3
s 58.329190223 _9_ AGT  --- 101 cbr 512 [0 0 0 0] ------- [9:2 11:0 32 0] [8] 0 2
SFESTs 58.329190223 _9_ 101 [9 -> 11] 1(1) to 10 [9 |10 11 ]
r 58.341889421 _11_ AGT  --- 101 cbr 512 [13a b a 800] ------- [9:2 11:0 31 11] [8] 2 2
s 58.702513159 _12_ AGT  --- 102 cbr 512 [0 0 0 0] ------- [12:2 14:0 32 0] [4] 0 2
SFESTs 58.702513159 _12_ 102 [12 -> 14] 1(1) to 9 [12 |9 14 ]
r 58.715131841 _14_ AGT  --- 102 cbr 512 [13a e 9 800] ------- [12:2 14:0 31 14] [4] 2 2
s 60.195563044 _8_ AGT  --- 103 cbr 512 [0 0 0 0] ------- [8:1 10:0 32 0] [6] 0 2
SFs 60.195563044 _8_ 103 [8 -> 10] 3(0) to 39 
SFf 60.201181482 _39_ 103 [8 -> 10] 3 to 10
r 60.206983932 _10_ AGT  --- 103 cbr 512 [13a a 27 800] ------- [8:1 10:0 31 10] [6] 2 2
s 60.376176594 _9_ AGT  --- 104 cbr 512 [0 0 0 0] ------- [9:2 11:0 32 0] [9] 0 2
SFs 60.376176594 _9_ 104 [9 -> 11] 1(0) to 10 
SFf 60.381733667 _10_ 104 [9 -> 11] 1 to 11
r 60.388015792 _11_ AGT  --- 104 cbr 512 [13a b a 800] ------- [9:2 11:0 31 11] [9] 2 2
s 60.667021509 _16_ AGT  --- 105 cbr 512 [0 0 0 0] ------- [16:0 17:0 32 0] [10] 0 1
SFESTs 60.667021509 _16_ 105 [16 -> 17] 1(1) to 17 [16 |17 ]
r 60.673207260 _17_ AGT  --- 105 cbr 512 [13a 11 10 800] ------- [16:0 17:0 32 17] [10] 1 1
s 61.263080897 _18_ AGT  --- 106 cbr 512 [0 0 0 0] ------- [18:1 20:0 32 0] [9] 0 2
SFESTs 61.263080897 _18_ 106 [18 -> 20] 1(1) to 24 [18 |24 20 ]
r 61.275540798 _20_ AGT  --- 106 cbr 512 [13a 14 18 800] ------- [18:1 20:0 31 20] [9] 2 2
s 61.951274402 _13_ AGT  --- 107 cbr 512 [0 0 0 0] ------- [13:2 14:1 32 0] [9] 0 3
SFESTs 61.951274402 _13_ 107 [13 -> 14] 3(1) to 4 [13 |4 47 14 ]
r 61.970252447 _14_ AGT  --- 107 cbr 512 [13a e 2f 800] ------- [13:2 14:1 30 14] [9] 3 3
s 62.148372705 _12_ AGT  --- 108 cbr 512 [0 0 0 0] ------- [12:2 14:0 32 0] [5] 0 2
SFs 62.148372705 _12_ 108 [12 -> 14] 1(0) to 9 
SFf 62.154270246 _9_ 108 [12 -> 14] 1 to 14
r 62.160251386 _14_ AGT  --- 108 cbr 512 [13a e 9 800] ------- [12:2 14:0 31 14] [5] 2 2
s 62.501841684 _8_ AGT  --- 109 cbr 512 [0 0 0 0] ------- [8:1 10:0 32 0] [7] 0 2
SFESTs 62.501841684 _8_ 109 [8 -> 10] 3(1) to 39 [8 |39 10 ]
r 62.513862572 _10_ AGT  --- 109 cbr 512 [13a a 27 800] ------- [8:1 10:0 31 10] [7] 2 2
s 62.521895601 _9_ AGT  --- 110 cbr 512 [0 0 0 0] ------- [9:2 11:0 32 0] [10] 0 2
SFs 62.521895601 _9_ 110 [9 -> 11] 1(0) to 10 
SFf 62.527992675 _10_ 110 [9 -> 11] 1 to 11
r 62.533954799 _11_ AGT  --- 110 cbr 512 [13a b a 800] ------- [9:2 11:0 31 11] [10] 2 2
s 62.945660957 _16_ AGT  --- 111 cbr 512 [0 0 0 0] ------- [16:0 17:0 32 0] [11] 0 1
SFs 62.945660957 _16_ 111 [16 -> 17] 1(0) to 17 
r 62.951498708 _17_ AGT  --- 111 cbr 512 [13a 11 10 800] ------- [16:0 17:0 32 17] [11] 1 1
s 64.261136877 _18_ AGT  --- 112 cbr 512 [0 0 0 0] ------- [18:1 20:0 32 0] [10] 0 2
SFs 64.261136877 _18_ 112 [18 -> 20] 1(0) to 24 
SFf 64.266955281 _24_ 112 [18 -> 20] 1 to 20
r 64.273236778 _20_ AGT  --- 112 cbr 512 [13a 14 18 800] ------- [18:1 20:0 31 20] [10] 2 2
s 65.715462219 _13_ AGT  --- 113 cbr 512 [0 0 0 0] ------- [13:2 14:1 32 0] [10] 0 3
SFs 65.715462219 _13_ 113 [13 -> 14] 3(0) to 4 
SFf 65.721300602 _4_ 113 [13 -> 14] 3 to 47
SFf 65.727141856 _47_ 113 [13 -> 14] 3 to 14
r 65.733224264 _14_ AGT  --- 113 cbr 512 [13a e 2f 800] ------- [13:2 14:1 30 14] [10] 3 3
s 65.929638989 _8_ AGT  --- 114 cbr 512 [0 0 0 0] ------- [8:1 10:0 32 0] [8] 0 2
SFs 65.929638989 _8_ 114 [8 -> 10] 3(0) to 39 
SFf 65.935497427 _39_ 114 [8 -> 10] 3 to 10
r 65.941739877 _10_ AGT  --- 114 cbr 512 [13a a 27 800] ------- [8:1 10:0 31 10] [8] 2 2
s 66.883949765 _16_ AGT  --- 115 cbr 512 [0 0 0 0] ------- [16:0 17:0 32 0] [12] 0 1
SFESTs 66.883949765 _16_ 115 [16 -> 17] 1(1) to 17 [16 |17 ]
r 66.889955516 _17_ AGT  --- 115 cbr 512 [13a 11 10 800] ------- [16:0 17:0 32 17] [12] 1 1
s 68.006008077 _8_ AGT  --- 116 cbr 512 [0 0 0 0] ------- [8:1 10:0 32 0] [9] 0 2
SFESTs 68.006008077 _8_ 116 [8 -> 10] 3(1) to 39 [8 |39 10 ]
r 68.018128965 _10_ AGT  --- 116 cbr 512 [13a a 27 800] ------- [8:1 10:0 31 10] [9] 2 2
s 68.082284394 _12_ AGT  --- 117 cbr 512 [0 0 0 0] ------- [12:2 14:0 32 0] [6] 0 2
SFESTs 68.082284394 _12_ 117 [12 -> 14] 1(1) to 9 [12 |9 14 ]
r 68.094343075 _14_ AGT  --- 117 cbr 512 [13a e 9 800] ------- [12:2 14:0 31 14] [6] 2 2
s 68.152897025 _9_ AGT  --- 118 cbr 512 [0 0 0 0] ------- [9:2 11:0 32 0] [11] 0 2
SFESTs 68.152897025 _9_ 118 [9 -> 11] 1(1) to 10 [9 |10 11 ]
r 68.165296223 _11_ AGT  --- 118 cbr 512 [13a b a 800] ------- [9:2 11:0 31 11] [11] 2 2
s 69.020098468 _16_ AGT  --- 119 cbr 512 [0 0 0 0] ------- [16:0 17:0 32 0] [13] 0 1
SFs 69.020098468 _16_ 119 [16 -> 17] 1(0) to 17 
r 69.026176219 _17_ AGT  --- 119 cbr 512 [13a 11 10 800] ------- [16:0 17:0 32 17] [13] 1 1
s 69.160089773 _18_ AGT  --- 120 cbr 512 [0 0 0 0] ------- [18:1 20:0 32 0] [11] 0 2
SFESTs 69.160089773 _18_ 120 [18 -> 20] 1(1) to 24 [18 |24 20 ]
r 69.171789673 _20_ AGT  --- 120 cbr 512 [13a 14 18 800] ------- [18:1 20:0 31 20] [11] 2 2
s 70.839287002 _8_ AGT  --- 121 cbr 512 [0 0 0 0] ------- [8:1 10:0 32 0] [10] 0 2
SFs 70.839287002 _8_ 121 [8 -> 10] 3(0) to 39 
SFf 70.844905440 _39_ 121 [8 -> 10] 3 to 10
r 70.850867890 _10_ AGT  --- 121 cbr 512 [13a a 27 800] ------- [8:1 10:0 31 10] [10] 2 2
s 70.882058330 _9_ AGT  --- 122 cbr 512 [0 0 0 0] ------- [9:2 11:0 32 0] [12] 0 2
SFs 70.882058330 _9_ 122 [9 -> 11] 1(0) to 10 
SFf 70.887935403 _10_ 122 [9 -> 11] 1 to 11
r 70.893877527 _11_ AGT  --- 122 cbr 512 [13a b a 800] ------- [9:2 11:0 31 11] [12] 2 2
s 71.662433035 _13_ AGT  --- 123 cbr 512 [0 0 0 0] ------- [13:2 14:1 32 0] [11] 0 3
SFESTs 71.662433035 _13_ 123 [13 -> 14] 3(1) to 4 [13 |4 47 14 ]
r 71.680571080 _14_ AGT  --- 123 cbr 512 [13a e 2f 800] ------- [13:2 14:1 30 14] [11] 3 3
s 73.364015048 _12_ AGT  --- 124 cbr 512 [0 0 0 0] ------- [12:2 14:0 32 0] [7] 0 2
SFESTs 73.364015048 _12_ 124 [12 -> 14] 1(1) to 9 [12 |9 14 ]
r 73.375653729 _14_ AGT  --- 124 cbr 512 [13a e 9 800] ------- [12:2 14:0 31 14] [7] 2 2
s 74.102750366 _9_ AGT  --- 125 cbr 512 [0 0 0 0] ------- [9:2 11:0 32 0] [13] 0 2
SFESTs 74.102750366 _9_ 125 [9 -> 11] 1(1) to 10 [9 |10 11 ]
r 74.115489564 _11_ AGT  --- 125 cbr 512 [13a b a 800] ------- [9:2 11:0 31 11] [13] 2 2
s 74.312672957 _16_ AGT  --- 126 cbr 512 [0 0 0 0] ------- [16:0 17:0 32 0] [14] 0 1
SFESTs 74.312672957 _16_ 126 [16 -> 17] 1(1) to 17 [16 |17 ]
r 74.318318708 _17_ AGT  --- 126 cbr 512 [13a 11 10 800] ------- [16:0 17:0 32 17] [14] 1 1
s 74.642434537 _18_ AGT  --- 127 cbr 512 [0 0 0 0] ------- [18:1 20:0 32 0] [12] 0 2
SFESTs 74.642434537 _18_ 127 [18 -> 20] 1(1) to 24 [18 |24 20 ]
r 74.654774437 _20_ AGT  --- 127 cbr 512 [13a 14 18 800] ------- [18:1 20:0 31 20] [12] 2 2
s 75.477956243 _19_ AGT  --- 128 cbr 512 [0 0 0 0] ------- [19:1 20:1 32 0] [0] 0 3
D 75.552205113 _12_ IFQ  ARP 136 DSR 64 [13a c c 800] ------- [46:255 19:255 254 19] 3 [0 2] [1 2 6 19->20] [0 0 0 0->0]
D 75.574505707 _9_ IFQ  ARP 142 DSR 80 [13a 9 9 800] ------- [6:255 19:255 253 33] 5 [0 2] [1 2 8 19->20] [0 0 0 0->0]
D 75.576711965 _9_ IFQ  ARP 137 DSR 72 [13a 9 9 800] ------- [0:255 19:255 254 33] 4 [0 2] [1 2 7 19->20] [0 0 0 0->0]
SFESTs 75.579588501 _19_ 128 [19 -> 20] 1(1) to 12 [19 |12 39 18 24 20 ]
SSendFailure 75.589957697 _9_ 141 37 37:255 19:255 9->33 1 3 2 5 [37 34 |9 33 19 ]
D 75.589957697 _9_ RTR  CBK 141 DSR 80 [13a 9 9 800] ------- [37:255 19:255 253 33] 5 [0 2] [0 2 8 19->20] [0 0 0 0->0]
SSendFailure 75.589957697 _9_ 138 37 47:255 19:255 9->33 1 3 2 4 [47 |9 33 19 ]
D 75.589957697 _9_ RTR  CBK 138 DSR 72 [13a 9 9 800] ------- [47:255 19:255 254 33] 4 [0 2] [0 2 7 19->20] [0 0 0 0->0]
D 75.594487209 _9_ IFQ  ARP 143 DSR 80 [13a 9 9 800] ------- [23:255 19:255 253 33] 5 [0 2] [1 2 8 19->20] [0 0 0 0->0]
D 75.626032698 _33_ IFQ  ARP 139 DSR 72 [13a 21 21 800] ------- [27:255 19:255 253 19] 4 [0 2] [1 2 7 19->20] [0 0 0 0->0]
D 75.639039368 _33_ IFQ  ARP 140 DSR 80 [13a 21 21 800] ------- [7:255 19:255 252 19] 5 [0 2] [1 2 8 19->20] [0 0 0 0->0]
r 75.715292654 _20_ AGT  --- 128 cbr 512 [13a 14 18 800] ------- [19:1 20:1 28 20] [0] 5 3
s 76.279046405 _13_ AGT  --- 148 cbr 512 [0 0 0 0] ------- [13:2 14:1 32 0] [12] 0 3
SFs 76.279046405 _13_ 148 [13 -> 14] 3(0) to 4 
SFf 76.284904788 _4_ 148 [13 -> 14] 3 to 47
SFf 76.291046042 _47_ 148 [13 -> 14] 3 to 14
r 76.297288449 _14_ AGT  --- 148 cbr 512 [13a e 2f 800] ------- [13:2 14:1 30 14] [12] 3 3
s 76.576299135 _8_ AGT  --- 149 cbr 512 [0 0 0 0] ------- [8:1 10:0 32 0] [11] 0 2
SFESTs 76.576299135 _8_ 149 [8 -> 10] 3(1) to 39 [8 |39 10 ]
r 76.588860023 _10_ AGT  --- 149 cbr 512 [13a a 27 800] ------- [8:1 10:0 31 10] [11] 2 2
s 77.602343626 _12_ AGT  --- 150 cbr 512 [0 0 0 0] ------- [12:2 14:0 32 0] [8] 0 2
SFs 77.602343626 _12_ 150 [12 -> 14] 1(0) to 9 
SFf 77.608021168 _9_ 150 [12 -> 14] 1 to 14
r 77.613942307 _14_ AGT  --- 150 cbr 512 [13a e 9 800] ------- [12:2 14:0 31 14] [8] 2 2
s 78.217919432 _9_ AGT  --- 151 cbr 512 [0 0 0 0] ------- [9:2 11:0 32 0] [14] 0 2
SFs 78.217919432 _9_ 151 [9 -> 11] 1(0) to 10 
SFf 78.223856505 _10_ 151 [9 -> 11] 1 to 11
r 78.229778630 _11_ AGT  --- 151 cbr 512 [13a b a 800] ------- [9:2 11:0 31 11] [14] 2 2
s 78.268033025 _16_ AGT  --- 152 cbr 512 [0 0 0 0] ------- [16:0 17:0 32 0] [15] 0 1
SFs 78.268033025 _16_ 152 [16 -> 17] 1(0) to 17 
r 78.274110776 _17_ AGT  --- 152 cbr 512 [13a 11 10 800] ------- [16:0 17:0 32 17] [15] 1 1
s 79.149773155 _18_ AGT  --- 153 cbr 512 [0 0 0 0] ------- [18:1 20:0 32 0] [13] 0 2
SFs 79.149773155 _18_ 153 [18 -> 20] 1(0) to 24 
SFf 79.155371559 _24_ 153 [18 -> 20] 1 to 20
r 79.161653056 _20_ AGT  --- 153 cbr 512 [13a 14 18 800] ------- [18:1 20:0 31 20] [13] 2 2
s 79.371595438 _2_ AGT  --- 154 cbr 512 [0 0 0 0] ------- [2:1 3:1 32 0] [0] 0 3
SFESTs 79.538558015 _2_ 154 [2 -> 3] 1(1) to 1 [2 |1 32 20 25 3 ]
D 79.550375414 _43_ IFQ  ARP 162 DSR 60 [13a 2b 2b 800] ------- [3:255 2:255 252 2] 4 [0 2] [1 2 4 2->3] [0 0 0 0->0]
D 79.552445715 _43_ IFQ  ARP 163 DSR 60 [13a 2b 2b 800] ------- [3:255 2:255 252 2] 4 [0 2] [1 2 4 2->3] [0 0 0 0->0]
SSendFailure 79.557099747 _43_ 166 37 3:255 2:255 43->2 1 3 1 5 [3 48 0 |43 2 ]
D 79.557099747 _43_ RTR  CBK 166 DSR 68 [13a 2b 2b 800] ------- [3:255 2:255 251 2] 5 [0 2] [0 2 5 2->3] [0 0 0 0->0]
SSendFailure 79.557099747 _43_ 167 37 3:255 2:255 43->2 1 3 1 4 [3 46 |43 2 ]
D 79.557099747 _43_ RTR  CBK 167 DSR 60 [13a 2b 2b 800] ------- [3:255 2:255 252 2] 4 [0 2] [0 2 4 2->3] [0 0 0 0->0]
r 79.633727656 _3_ AGT  --- 154 cbr 512 [13a 3 19 800] ------- [2:1 3:1 28 3] [0] 5 3
s 80.022745229 _13_ AGT  --- 177 cbr 512 [0 0 0 0] ------- [13:2 14:1 32 0] [13] 0 3
SFESTs 80.022745229 _13_ 177 [13 -> 14] 3(1) to 4 [13 |4 47 14 ]
r 80.041083273 _14_ AGT  --- 177 cbr 512 [13a e 2f 800] ------- [13:2 14:1 30 14] [13] 3 3
s 80.263696686 _8_ AGT  --- 178 cbr 512 [0 0 0 0] ------- [8:1 10:0 32 0] [12] 0 2
SFs 80.263696686 _8_ 178 [8 -> 10] 3(0) to 39 
SFf 80.269495125 _39_ 178 [8 -> 10] 3 to 10
r 80.275857575 _10_ AGT  --- 178 cbr 512 [13a a 27 800] ------- [8:1 10:0 31 10] [12] 2 2
s 80.499926905 _9_ AGT  --- 179 cbr 512 [0 0 0 0] ------- [9:2 11:0 32 0] [15] 0 2
SFESTs 80.499926905 _9_ 179 [9 -> 11] 1(1) to 10 [9 |10 11 ]
r 80.512026103 _11_ AGT  --- 179 cbr 512 [13a b a 800] ------- [9:2 11:0 31 11] [15] 2 2
s 81.332082384 _19_ AGT  --- 180 cbr 512 [0 0 0 0] ------- [19:1 20:1 32 0] [1] 0 3
SFESTs 81.332082384 _19_ 180 [19 -> 20] 3(1) to 12 [19 |12 21 20 ]
r 81.350480548 _20_ AGT  --- 180 cbr 512 [13a 14 15 800] ------- [19:1 20:1 30 20] [1] 3 3
s 81.700153382 _2_ AGT  --- 181 cbr 512 [0 0 0 0] ------- [2:1 3:1 32 0] [1] 0 3
SFESTs 81.700153382 _2_ 181 [2 -> 3] 3(1) to 43 [2 |43 27 3 ]
r 81.719111306 _3_ AGT  --- 181 cbr 512 [13a 3 1b 800] ------- [2:1 3:1 30 3] [1] 3 3
s 81.802240232 _12_ AGT  --- 182 cbr 512 [0 0 0 0] ------- [12:2 14:0 32 0] [9] 0 2
SFESTs 81.802240232 _12_ 182 [12 -> 14] 1(1) to 9 [12 |9 14 ]
r 81.814098913 _14_ AGT  --- 182 cbr 512 [13a e 9 800] ------- [12:2 14:0 31 14] [9] 2 2
s 81.893305857 _16_ AGT  --- 183 cbr 512 [0 0 0 0] ------- [16:0 17:0 32 0] [16] 0 1
SFESTs 81.893305857 _16_ 183 [16 -> 17] 1(1) to 17 [16 |17 ]
r 81.899351608 _17_ AGT  --- 183 cbr 512 [13a 11 10 800] ------- [16:0 17:0 32 17] [16] 1 1
s 82.825534146 _13_ AGT  --- 184 cbr 512 [0 0 0 0] ------- [13:2 14:1 32 0] [14] 0 3
SFs 82.825534146 _13_ 184 [13 -> 14] 3(0) to 4 
SFf 82.831052528 _4_ 184 [13 -> 14] 3 to 47
SFf 82.837253782 _47_ 184 [13 -> 14] 3 to 14
r 82.843416190 _14_ AGT  --- 184 cbr 512 [13a e 2f 800] ------- [13:2 14:1 30 14] [14] 3 3
s 83.602217233 _18_ AGT  --- 185 cbr 512 [0 0 0 0] ------- [18:0 19:0 32 0] [0] 0 3
SFESTs 83.602217233 _18_ 185 [18 -> 19] 3(1) to 46 [18 |46 12 19 ]
r 83.621194592 _19_ AGT  --- 185 cbr 512 [13a 13 c 800] ------- [18:0 19:0 30 19] [0] 3 3
s 83.644134711 _20_ AGT  --- 186 cbr 512 [0 0 0 0] ------- [20:2 21:0 32 0] [0] 0 1
SFESTs 83.644134711 _20_ 186 [20 -> 21] 1(1) to 21 [20 |21 ]
r 83.649901105 _21_ AGT  --- 186 cbr 512 [13a 15 14 800] ------- [20:2 21:0 32 21] [0] 1 1
s 83.714309880 _18_ AGT  --- 187 cbr 512 [0 0 0 0] ------- [18:1 20:0 32 0] [14] 0 2
SFESTs 83.714309880 _18_ 187 [18 -> 20] 1(1) to 24 [18 |24 20 ]
r 83.726209780 _20_ AGT  --- 187 cbr 512 [13a 14 18 800] ------- [18:1 20:0 31 20] [14] 2 2
s 83.906221584 _19_ AGT  --- 188 cbr 512 [0 0 0 0] ------- [19:1 20:1 32 0] [2] 0 3
SFESTs 83.906221584 _19_ 188 [19 -> 20] 3(1) to 12 [19 |12 21 20 ]
r 83.924579748 _20_ AGT  --- 188 cbr 512 [13a 14 15 800] ------- [19:1 20:1 30 20] [2] 3 3
s 84.877775207 _16_ AGT  --- 189 cbr 512 [0 0 0 0] ------- [16:0 17:0 32 0] [17] 0 1
SFs 84.877775207 _16_ 189 [16 -> 17] 1(0) to 17 
r 84.883432958 _17_ AGT  --- 189 cbr 512 [13a 11 10 800] ------- [16:0 17:0 32 17] [17] 1 1
s 84.918277939 _8_ AGT  --- 190 cbr 512 [0 0 0 0] ------- [8:1 10:0 32 0] [13] 0 2
SFESTs 84.918277939 _8_ 190 [8 -> 10] 3(1) to 39 [8 |39 10 ]
r 84.930058827 _10_ AGT  --- 190 cbr 512 [13a a 27 800] ------- [8:1 10:0 31 10] [13] 2 2
s 85.098659741 _13_ AGT  --- 191 cbr 512 [0 0 0 0] ------- [13:2 14:1 32 0] [15] 0 3
SFESTs 85.098659741 _13_ 191 [13 -> 14] 3(1) to 4 [13 |4 47 14 ]
r 85.117117786 _14_ AGT  --- 191 cbr 512 [13a e 2f 800] ------- [13:2 14:1 30 14] [15] 3 3
s 85.690983659 _9_ AGT  --- 192 cbr 512 [0 0 0 0] ------- [9:2 11:0 32 0] [16] 0 2
SFESTs 85.690983659 _9_ 192 [9 -> 11] 1(1) to 10 [9 |10 11 ]
r 85.703462857 _11_ AGT  --- 192 cbr 512 [13a b a 800] ------- [9:2 11:0 31 11] [16] 2 2
s 86.834185582 _2_ AGT  --- 193 cbr 512 [0 0 0 0] ------- [2:1 3:1 32 0] [2] 0 3
SFESTs 86.834185582 _2_ 193 [2 -> 3] 3(1) to 43 [2 |43 27 3 ]
r 86.852743506 _3_ AGT  --- 193 cbr 512 [13a 3 1b 800] ------- [2:1 3:1 30 3] [2] 3 3
s 87.321511119 _20_ AGT  --- 194 cbr 512 [0 0 0 0] ------- [20:2 21:0 32 0] [1] 0 1
SFESTs 87.321511119 _20_ 194 [20 -> 21] 1(1) to 21 [20 |21 ]
r 87.327177512 _21_ AGT  --- 194 cbr 512 [13a 15 14 800] ------- [20:2 21:0 32 21] [1] 1 1
s 87.665014243 _12_ AGT  --- 195 cbr 512 [0 0 0 0] ------- [12:2 14:0 32 0] [10] 0 2
SFESTs 87.665014243 _12_ 195 [12 -> 14] 1(1) to 9 [12 |9 14 ]
r 87.677632924 _14_ AGT  --- 195 cbr 512 [13a e 9 800] ------- [12:2 14:0 31 14] [10] 2 2
s 88.147591200 _18_ AGT  --- 196 cbr 512 [0 0 0 0] ------- [18:0 19:0 32 0] [1] 0 3
SFESTs 88.147591200 _18_ 196 [18 -> 19] 3(1) to 46 [18 |46 12 19 ]
s 88.157119136 _19_ AGT  --- 197 cbr 512 [0 0 0 0] ------- [19:1 20:1 32 0] [3] 0 3
SFESTs 88.157119136 _19_ 197 [19 -> 20] 3(1) to 12 [19 |12 21 20 ]
r 88.166168559 _19_ AGT  --- 196 cbr 512 [13a 13 c 800] ------- [18:0 19:0 30 19] [1] 3 3
r 88.185330722 _20_ AGT  --- 197 cbr 512 [13a 14 15 800] ------- [19:1 20:1 30 20] [3] 3 3
s 88.397430123 _18_ AGT  --- 198 cbr 512 [0 0 0 0] ------- [18:1 20:0 32 0] [15] 0 2
SFs 88.397430123 _18_ 198 [18 -> 20] 1(0) to 24 
SFf 88.403048527 _24_ 198 [18 -> 20] 1 to 20
r 88.409090024 _20_ AGT  --- 198 cbr 512 [13a 14 18 800] ------- [18:1 20:0 31 20] [15] 2 2
s 88.569898302 _16_ AGT  --- 199 cbr 512 [0 0 0 0] ------- [16:0 17:0 32 0] [18] 0 1
SFESTs 88.569898302 _16_ 199 [16 -> 17] 1(1) to 17 [16 |17 ]
r 88.576084053 _17_ AGT  --- 199 cbr 512 [13a 11 10 800] ------- [16:0 17:0 32 17] [18] 1 1
s 88.583997930 _8_ AGT  --- 200 cbr 512 [0 0 0 0] ------- [8:1 10:0 32 0] [14] 0 2
SFs 88.583997930 _8_ 200 [8 -> 10] 3(0) to 39 
SFf 88.589936368 _39_ 200 [8 -> 10] 3 to 10
r 88.595918818 _10_ AGT  --- 200 cbr 512 [13a a 27 800] ------- [8:1 10:0 31 10] [14] 2 2
s 89.369892953 _9_ AGT  --- 201 cbr 512 [0 0 0 0] ------- [9:2 11:0 32 0] [17] 0 2
SFs 89.369892953 _9_ 201 [9 -> 11] 1(0) to 10 
SFf 89.375410026 _10_ 201 [9 -> 11] 1 to 11
r 89.381652151 _11_ AGT  --- 201 cbr 512 [13a b a 800] ------- [9:2 11:0 31 11] [17] 2 2
s 89.742770238 _2_ AGT  --- 202 cbr 512 [0 0 0 0] ------- [2:1 3:1 32 0] [3] 0 3
SFESTs 89.742770238 _2_ 202 [2 -> 3] 3(1) to 43 [2 |43 27 3 ]
r 89.761228162 _3_ AGT  --- 202 cbr 512 [13a 3 1b 800] ------- [2:1 3:1 30 3] [3] 3 3