+ 0.1 0 1 tcp 40 ------- 0 0.0 3.0 0 0
- 0.1 0 1 tcp 40 ------- 0 0.0 3.0 0 0
r 0.105032 0 1 tcp 40 ------- 0 0.0 3.0 0 0
h 0.105032 1 4 tcp 40 ------- 0 0.0 3.0 0 0
+ 0.107032 1 4 tcp 40 ------- 0 0.0 3.0 0 0
- 0.107032 1 4 tcp 40 ------- 0 0.0 3.0 0 0
r 0.109083 4 2 tcp 40 ------- 0 0.0 3.0 0 0
d 0.109083 2 3 tcp 40 ------- 0 0.0 3.0 0 0
+ 1.207032 1 4 tcp 40 ------- 0 0.0 3.0 0 0
- 1.207032 1 4 tcp 40 ------- 0 0.0 3.0 0 0
r 1.209083 4 2 tcp 40 ------- 0 0.0 3.0 0 0
d 1.209083 2 3 tcp 40 ------- 0 0.0 3.0 0 0
