+ 0.1 1 0 encap 230 ------- 0 1.3 2.0 -1 1
- 0.1 1 0 encap 230 ------- 0 1.3 2.0 -1 1
v 0.1 eval {set sim_annotation {0.10000000000000001 1 join-group 1073741824}}
v 0.1 eval {set sim_annotation {0.10000000000000001 0 join-group 1073741824}}
v 0.1 eval {set sim_annotation {0.10000000000000001 2 join-group 1073741824}}
+ 0.10375 1 0 encap 230 ------- 0 1.3 2.0 -1 3
- 0.10375 1 0 encap 230 ------- 0 1.3 2.0 -1 3
+ 0.1075 1 0 encap 230 ------- 0 1.3 2.0 -1 5
- 0.1075 1 0 encap 230 ------- 0 1.3 2.0 -1 5
r 0.111227 1 0 encap 230 ------- 0 1.3 2.0 -1 1
+ 0.111227 0 2 encap 230 ------- 0 1.3 2.0 -1 1
- 0.111227 0 2 encap 230 ------- 0 1.3 2.0 -1 1
+ 0.11125 1 0 encap 230 ------- 0 1.3 2.0 -1 7
- 0.11125 1 0 encap 230 ------- 0 1.3 2.0 -1 7
r 0.114977 1 0 encap 230 ------- 0 1.3 2.0 -1 3
+ 0.114977 0 2 encap 230 ------- 0 1.3 2.0 -1 3
- 0.114977 0 2 encap 230 ------- 0 1.3 2.0 -1 3
+ 0.115 1 0 encap 230 ------- 0 1.3 2.0 -1 9
- 0.115 1 0 encap 230 ------- 0 1.3 2.0 -1 9
r 0.118727 1 0 encap 230 ------- 0 1.3 2.0 -1 5
+ 0.118727 0 2 encap 230 ------- 0 1.3 2.0 -1 5
- 0.118727 0 2 encap 230 ------- 0 1.3 2.0 -1 5
+ 0.11875 1 0 encap 230 ------- 0 1.3 2.0 -1 11
- 0.11875 1 0 encap 230 ------- 0 1.3 2.0 -1 11
r 0.122453 0 2 encap 230 ------- 0 1.3 2.0 -1 1
+ 0.122453 2 0 cbr 210 ------- 1 1.1 1073741824.0 0 0
- 0.122453 2 0 cbr 210 ------- 1 1.1 1073741824.0 0 0
r 0.122477 1 0 encap 230 ------- 0 1.3 2.0 -1 7
+ 0.122477 0 2 encap 230 ------- 0 1.3 2.0 -1 7
- 0.122477 0 2 encap 230 ------- 0 1.3 2.0 -1 7
+ 0.1225 1 0 encap 230 ------- 0 1.3 2.0 -1 13
- 0.1225 1 0 encap 230 ------- 0 1.3 2.0 -1 13
r 0.126203 0 2 encap 230 ------- 0 1.3 2.0 -1 3
+ 0.126203 2 0 cbr 210 ------- 1 1.1 1073741824.0 1 2
- 0.126203 2 0 cbr 210 ------- 1 1.1 1073741824.0 1 2
r 0.126227 1 0 encap 230 ------- 0 1.3 2.0 -1 9
+ 0.126227 0 2 encap 230 ------- 0 1.3 2.0 -1 9
- 0.126227 0 2 encap 230 ------- 0 1.3 2.0 -1 9
+ 0.12625 1 0 encap 230 ------- 0 1.3 2.0 -1 15
- 0.12625 1 0 encap 230 ------- 0 1.3 2.0 -1 15
r 0.129953 0 2 encap 230 ------- 0 1.3 2.0 -1 5
+ 0.129953 2 0 cbr 210 ------- 1 1.1 1073741824.0 2 4
- 0.129953 2 0 cbr 210 ------- 1 1.1 1073741824.0 2 4
r 0.129977 1 0 encap 230 ------- 0 1.3 2.0 -1 11
+ 0.129977 0 2 encap 230 ------- 0 1.3 2.0 -1 11
- 0.129977 0 2 encap 230 ------- 0 1.3 2.0 -1 11
+ 0.13 1 0 encap 230 ------- 0 1.3 2.0 -1 17
- 0.13 1 0 encap 230 ------- 0 1.3 2.0 -1 17
r 0.133573 2 0 cbr 210 ------- 1 1.1 1073741824.0 0 0
+ 0.133573 0 1 cbr 210 ------- 1 1.1 1073741824.0 0 0
- 0.133573 0 1 cbr 210 ------- 1 1.1 1073741824.0 0 0
r 0.133703 0 2 encap 230 ------- 0 1.3 2.0 -1 7
+ 0.133703 2 0 cbr 210 ------- 1 1.1 1073741824.0 3 6
- 0.133703 2 0 cbr 210 ------- 1 1.1 1073741824.0 3 6
r 0.133727 1 0 encap 230 ------- 0 1.3 2.0 -1 13
+ 0.133727 0 2 encap 230 ------- 0 1.3 2.0 -1 13
- 0.133727 0 2 encap 230 ------- 0 1.3 2.0 -1 13
+ 0.13375 1 0 encap 230 ------- 0 1.3 2.0 -1 19
- 0.13375 1 0 encap 230 ------- 0 1.3 2.0 -1 19
r 0.137323 2 0 cbr 210 ------- 1 1.1 1073741824.0 1 2
+ 0.137323 0 1 cbr 210 ------- 1 1.1 1073741824.0 1 2
- 0.137323 0 1 cbr 210 ------- 1 1.1 1073741824.0 1 2
r 0.137453 0 2 encap 230 ------- 0 1.3 2.0 -1 9
+ 0.137453 2 0 cbr 210 ------- 1 1.1 1073741824.0 4 8
- 0.137453 2 0 cbr 210 ------- 1 1.1 1073741824.0 4 8
r 0.137477 1 0 encap 230 ------- 0 1.3 2.0 -1 15
+ 0.137477 0 2 encap 230 ------- 0 1.3 2.0 -1 15
- 0.137477 0 2 encap 230 ------- 0 1.3 2.0 -1 15
+ 0.1375 1 0 encap 230 ------- 0 1.3 2.0 -1 21
- 0.1375 1 0 encap 230 ------- 0 1.3 2.0 -1 21
r 0.141073 2 0 cbr 210 ------- 1 1.1 1073741824.0 2 4
+ 0.141073 0 1 cbr 210 ------- 1 1.1 1073741824.0 2 4
- 0.141073 0 1 cbr 210 ------- 1 1.1 1073741824.0 2 4
r 0.141203 0 2 encap 230 ------- 0 1.3 2.0 -1 11
+ 0.141203 2 0 cbr 210 ------- 1 1.1 1073741824.0 5 10
- 0.141203 2 0 cbr 210 ------- 1 1.1 1073741824.0 5 10
r 0.141227 1 0 encap 230 ------- 0 1.3 2.0 -1 17
+ 0.141227 0 2 encap 230 ------- 0 1.3 2.0 -1 17
- 0.141227 0 2 encap 230 ------- 0 1.3 2.0 -1 17
+ 0.14125 1 0 encap 230 ------- 0 1.3 2.0 -1 23
- 0.14125 1 0 encap 230 ------- 0 1.3 2.0 -1 23
r 0.144693 0 1 cbr 210 ------- 1 1.1 1073741824.0 0 0
r 0.144823 2 0 cbr 210 ------- 1 1.1 1073741824.0 3 6
+ 0.144823 0 1 cbr 210 ------- 1 1.1 1073741824.0 3 6
- 0.144823 0 1 cbr 210 ------- 1 1.1 1073741824.0 3 6
r 0.144953 0 2 encap 230 ------- 0 1.3 2.0 -1 13
+ 0.144953 2 0 cbr 210 ------- 1 1.1 1073741824.0 6 12
- 0.144953 2 0 cbr 210 ------- 1 1.1 1073741824.0 6 12
r 0.144977 1 0 encap 230 ------- 0 1.3 2.0 -1 19
+ 0.144977 0 2 encap 230 ------- 0 1.3 2.0 -1 19
- 0.144977 0 2 encap 230 ------- 0 1.3 2.0 -1 19
+ 0.145 1 0 encap 230 ------- 0 1.3 2.0 -1 25
- 0.145 1 0 encap 230 ------- 0 1.3 2.0 -1 25
r 0.148443 0 1 cbr 210 ------- 1 1.1 1073741824.0 1 2
r 0.148573 2 0 cbr 210 ------- 1 1.1 1073741824.0 4 8
+ 0.148573 0 1 cbr 210 ------- 1 1.1 1073741824.0 4 8
- 0.148573 0 1 cbr 210 ------- 1 1.1 1073741824.0 4 8
r 0.148703 0 2 encap 230 ------- 0 1.3 2.0 -1 15
+ 0.148703 2 0 cbr 210 ------- 1 1.1 1073741824.0 7 14
- 0.148703 2 0 cbr 210 ------- 1 1.1 1073741824.0 7 14
r 0.148727 1 0 encap 230 ------- 0 1.3 2.0 -1 21
+ 0.148727 0 2 encap 230 ------- 0 1.3 2.0 -1 21
- 0.148727 0 2 encap 230 ------- 0 1.3 2.0 -1 21
+ 0.14875 1 0 encap 230 ------- 0 1.3 2.0 -1 27
- 0.14875 1 0 encap 230 ------- 0 1.3 2.0 -1 27
r 0.152193 0 1 cbr 210 ------- 1 1.1 1073741824.0 2 4
r 0.152323 2 0 cbr 210 ------- 1 1.1 1073741824.0 5 10
+ 0.152323 0 1 cbr 210 ------- 1 1.1 1073741824.0 5 10
- 0.152323 0 1 cbr 210 ------- 1 1.1 1073741824.0 5 10
r 0.152453 0 2 encap 230 ------- 0 1.3 2.0 -1 17
+ 0.152453 2 0 cbr 210 ------- 1 1.1 1073741824.0 8 16
- 0.152453 2 0 cbr 210 ------- 1 1.1 1073741824.0 8 16
r 0.152477 1 0 encap 230 ------- 0 1.3 2.0 -1 23
+ 0.152477 0 2 encap 230 ------- 0 1.3 2.0 -1 23
- 0.152477 0 2 encap 230 ------- 0 1.3 2.0 -1 23
+ 0.1525 1 0 encap 230 ------- 0 1.3 2.0 -1 29
- 0.1525 1 0 encap 230 ------- 0 1.3 2.0 -1 29
r 0.155943 0 1 cbr 210 ------- 1 1.1 1073741824.0 3 6
r 0.156073 2 0 cbr 210 ------- 1 1.1 1073741824.0 6 12
+ 0.156073 0 1 cbr 210 ------- 1 1.1 1073741824.0 6 12
- 0.156073 0 1 cbr 210 ------- 1 1.1 1073741824.0 6 12
r 0.156203 0 2 encap 230 ------- 0 1.3 2.0 -1 19
+ 0.156203 2 0 cbr 210 ------- 1 1.1 1073741824.0 9 18
- 0.156203 2 0 cbr 210 ------- 1 1.1 1073741824.0 9 18
r 0.156227 1 0 encap 230 ------- 0 1.3 2.0 -1 25
+ 0.156227 0 2 encap 230 ------- 0 1.3 2.0 -1 25
- 0.156227 0 2 encap 230 ------- 0 1.3 2.0 -1 25
+ 0.15625 1 0 encap 230 ------- 0 1.3 2.0 -1 31
- 0.15625 1 0 encap 230 ------- 0 1.3 2.0 -1 31
r 0.159693 0 1 cbr 210 ------- 1 1.1 1073741824.0 4 8
r 0.159823 2 0 cbr 210 ------- 1 1.1 1073741824.0 7 14
+ 0.159823 0 1 cbr 210 ------- 1 1.1 1073741824.0 7 14
- 0.159823 0 1 cbr 210 ------- 1 1.1 1073741824.0 7 14
r 0.159953 0 2 encap 230 ------- 0 1.3 2.0 -1 21
+ 0.159953 2 0 cbr 210 ------- 1 1.1 1073741824.0 10 20
- 0.159953 2 0 cbr 210 ------- 1 1.1 1073741824.0 10 20
r 0.159977 1 0 encap 230 ------- 0 1.3 2.0 -1 27
+ 0.159977 0 2 encap 230 ------- 0 1.3 2.0 -1 27
- 0.159977 0 2 encap 230 ------- 0 1.3 2.0 -1 27
+ 0.16 1 0 encap 230 ------- 0 1.3 2.0 -1 33
- 0.16 1 0 encap 230 ------- 0 1.3 2.0 -1 33
r 0.163443 0 1 cbr 210 ------- 1 1.1 1073741824.0 5 10
r 0.163573 2 0 cbr 210 ------- 1 1.1 1073741824.0 8 16
+ 0.163573 0 1 cbr 210 ------- 1 1.1 1073741824.0 8 16
- 0.163573 0 1 cbr 210 ------- 1 1.1 1073741824.0 8 16
r 0.163703 0 2 encap 230 ------- 0 1.3 2.0 -1 23
+ 0.163703 2 0 cbr 210 ------- 1 1.1 1073741824.0 11 22
- 0.163703 2 0 cbr 210 ------- 1 1.1 1073741824.0 11 22
r 0.163727 1 0 encap 230 ------- 0 1.3 2.0 -1 29
+ 0.163727 0 2 encap 230 ------- 0 1.3 2.0 -1 29
- 0.163727 0 2 encap 230 ------- 0 1.3 2.0 -1 29
+ 0.16375 1 0 encap 230 ------- 0 1.3 2.0 -1 35
- 0.16375 1 0 encap 230 ------- 0 1.3 2.0 -1 35
r 0.167193 0 1 cbr 210 ------- 1 1.1 1073741824.0 6 12
r 0.167323 2 0 cbr 210 ------- 1 1.1 1073741824.0 9 18
+ 0.167323 0 1 cbr 210 ------- 1 1.1 1073741824.0 9 18
- 0.167323 0 1 cbr 210 ------- 1 1.1 1073741824.0 9 18
r 0.167453 0 2 encap 230 ------- 0 1.3 2.0 -1 25
+ 0.167453 2 0 cbr 210 ------- 1 1.1 1073741824.0 12 24
- 0.167453 2 0 cbr 210 ------- 1 1.1 1073741824.0 12 24
r 0.167477 1 0 encap 230 ------- 0 1.3 2.0 -1 31
+ 0.167477 0 2 encap 230 ------- 0 1.3 2.0 -1 31
- 0.167477 0 2 encap 230 ------- 0 1.3 2.0 -1 31
+ 0.1675 1 0 encap 230 ------- 0 1.3 2.0 -1 37
- 0.1675 1 0 encap 230 ------- 0 1.3 2.0 -1 37
r 0.170943 0 1 cbr 210 ------- 1 1.1 1073741824.0 7 14
r 0.171073 2 0 cbr 210 ------- 1 1.1 1073741824.0 10 20
+ 0.171073 0 1 cbr 210 ------- 1 1.1 1073741824.0 10 20
- 0.171073 0 1 cbr 210 ------- 1 1.1 1073741824.0 10 20
r 0.171203 0 2 encap 230 ------- 0 1.3 2.0 -1 27
+ 0.171203 2 0 cbr 210 ------- 1 1.1 1073741824.0 13 26
- 0.171203 2 0 cbr 210 ------- 1 1.1 1073741824.0 13 26
r 0.171227 1 0 encap 230 ------- 0 1.3 2.0 -1 33
+ 0.171227 0 2 encap 230 ------- 0 1.3 2.0 -1 33
- 0.171227 0 2 encap 230 ------- 0 1.3 2.0 -1 33
+ 0.17125 1 0 encap 230 ------- 0 1.3 2.0 -1 39
- 0.17125 1 0 encap 230 ------- 0 1.3 2.0 -1 39
r 0.174693 0 1 cbr 210 ------- 1 1.1 1073741824.0 8 16
r 0.174823 2 0 cbr 210 ------- 1 1.1 1073741824.0 11 22
+ 0.174823 0 1 cbr 210 ------- 1 1.1 1073741824.0 11 22
- 0.174823 0 1 cbr 210 ------- 1 1.1 1073741824.0 11 22
r 0.174953 0 2 encap 230 ------- 0 1.3 2.0 -1 29
+ 0.174953 2 0 cbr 210 ------- 1 1.1 1073741824.0 14 28
- 0.174953 2 0 cbr 210 ------- 1 1.1 1073741824.0 14 28
r 0.174977 1 0 encap 230 ------- 0 1.3 2.0 -1 35
+ 0.174977 0 2 encap 230 ------- 0 1.3 2.0 -1 35
- 0.174977 0 2 encap 230 ------- 0 1.3 2.0 -1 35
+ 0.175 1 0 encap 230 ------- 0 1.3 2.0 -1 41
- 0.175 1 0 encap 230 ------- 0 1.3 2.0 -1 41
r 0.178443 0 1 cbr 210 ------- 1 1.1 1073741824.0 9 18
r 0.178573 2 0 cbr 210 ------- 1 1.1 1073741824.0 12 24
+ 0.178573 0 1 cbr 210 ------- 1 1.1 1073741824.0 12 24
- 0.178573 0 1 cbr 210 ------- 1 1.1 1073741824.0 12 24
r 0.178703 0 2 encap 230 ------- 0 1.3 2.0 -1 31
+ 0.178703 2 0 cbr 210 ------- 1 1.1 1073741824.0 15 30
- 0.178703 2 0 cbr 210 ------- 1 1.1 1073741824.0 15 30
r 0.178727 1 0 encap 230 ------- 0 1.3 2.0 -1 37
+ 0.178727 0 2 encap 230 ------- 0 1.3 2.0 -1 37
- 0.178727 0 2 encap 230 ------- 0 1.3 2.0 -1 37
+ 0.17875 1 0 encap 230 ------- 0 1.3 2.0 -1 43
- 0.17875 1 0 encap 230 ------- 0 1.3 2.0 -1 43
r 0.182193 0 1 cbr 210 ------- 1 1.1 1073741824.0 10 20
r 0.182323 2 0 cbr 210 ------- 1 1.1 1073741824.0 13 26
+ 0.182323 0 1 cbr 210 ------- 1 1.1 1073741824.0 13 26
- 0.182323 0 1 cbr 210 ------- 1 1.1 1073741824.0 13 26
r 0.182453 0 2 encap 230 ------- 0 1.3 2.0 -1 33
+ 0.182453 2 0 cbr 210 ------- 1 1.1 1073741824.0 16 32
- 0.182453 2 0 cbr 210 ------- 1 1.1 1073741824.0 16 32
r 0.182477 1 0 encap 230 ------- 0 1.3 2.0 -1 39
+ 0.182477 0 2 encap 230 ------- 0 1.3 2.0 -1 39
- 0.182477 0 2 encap 230 ------- 0 1.3 2.0 -1 39
+ 0.1825 1 0 encap 230 ------- 0 1.3 2.0 -1 45
- 0.1825 1 0 encap 230 ------- 0 1.3 2.0 -1 45
r 0.185943 0 1 cbr 210 ------- 1 1.1 1073741824.0 11 22
r 0.186073 2 0 cbr 210 ------- 1 1.1 1073741824.0 14 28
+ 0.186073 0 1 cbr 210 ------- 1 1.1 1073741824.0 14 28
- 0.186073 0 1 cbr 210 ------- 1 1.1 1073741824.0 14 28
r 0.186203 0 2 encap 230 ------- 0 1.3 2.0 -1 35
+ 0.186203 2 0 cbr 210 ------- 1 1.1 1073741824.0 17 34
- 0.186203 2 0 cbr 210 ------- 1 1.1 1073741824.0 17 34
r 0.186227 1 0 encap 230 ------- 0 1.3 2.0 -1 41
+ 0.186227 0 2 encap 230 ------- 0 1.3 2.0 -1 41
- 0.186227 0 2 encap 230 ------- 0 1.3 2.0 -1 41
+ 0.18625 1 0 encap 230 ------- 0 1.3 2.0 -1 47
- 0.18625 1 0 encap 230 ------- 0 1.3 2.0 -1 47
r 0.189693 0 1 cbr 210 ------- 1 1.1 1073741824.0 12 24
r 0.189823 2 0 cbr 210 ------- 1 1.1 1073741824.0 15 30
+ 0.189823 0 1 cbr 210 ------- 1 1.1 1073741824.0 15 30
- 0.189823 0 1 cbr 210 ------- 1 1.1 1073741824.0 15 30
r 0.189953 0 2 encap 230 ------- 0 1.3 2.0 -1 37
+ 0.189953 2 0 cbr 210 ------- 1 1.1 1073741824.0 18 36
- 0.189953 2 0 cbr 210 ------- 1 1.1 1073741824.0 18 36
r 0.189977 1 0 encap 230 ------- 0 1.3 2.0 -1 43
+ 0.189977 0 2 encap 230 ------- 0 1.3 2.0 -1 43
- 0.189977 0 2 encap 230 ------- 0 1.3 2.0 -1 43
+ 0.19 1 0 encap 230 ------- 0 1.3 2.0 -1 49
- 0.19 1 0 encap 230 ------- 0 1.3 2.0 -1 49
r 0.193443 0 1 cbr 210 ------- 1 1.1 1073741824.0 13 26
r 0.193573 2 0 cbr 210 ------- 1 1.1 1073741824.0 16 32
+ 0.193573 0 1 cbr 210 ------- 1 1.1 1073741824.0 16 32
- 0.193573 0 1 cbr 210 ------- 1 1.1 1073741824.0 16 32
r 0.193703 0 2 encap 230 ------- 0 1.3 2.0 -1 39
+ 0.193703 2 0 cbr 210 ------- 1 1.1 1073741824.0 19 38
- 0.193703 2 0 cbr 210 ------- 1 1.1 1073741824.0 19 38
r 0.193727 1 0 encap 230 ------- 0 1.3 2.0 -1 45
+ 0.193727 0 2 encap 230 ------- 0 1.3 2.0 -1 45
- 0.193727 0 2 encap 230 ------- 0 1.3 2.0 -1 45
+ 0.19375 1 0 encap 230 ------- 0 1.3 2.0 -1 51
- 0.19375 1 0 encap 230 ------- 0 1.3 2.0 -1 51
r 0.197193 0 1 cbr 210 ------- 1 1.1 1073741824.0 14 28
r 0.197323 2 0 cbr 210 ------- 1 1.1 1073741824.0 17 34
+ 0.197323 0 1 cbr 210 ------- 1 1.1 1073741824.0 17 34
- 0.197323 0 1 cbr 210 ------- 1 1.1 1073741824.0 17 34
r 0.197453 0 2 encap 230 ------- 0 1.3 2.0 -1 41
+ 0.197453 2 0 cbr 210 ------- 1 1.1 1073741824.0 20 40
- 0.197453 2 0 cbr 210 ------- 1 1.1 1073741824.0 20 40
r 0.197477 1 0 encap 230 ------- 0 1.3 2.0 -1 47
+ 0.197477 0 2 encap 230 ------- 0 1.3 2.0 -1 47
- 0.197477 0 2 encap 230 ------- 0 1.3 2.0 -1 47
+ 0.1975 1 0 encap 230 ------- 0 1.3 2.0 -1 53
- 0.1975 1 0 encap 230 ------- 0 1.3 2.0 -1 53
r 0.200943 0 1 cbr 210 ------- 1 1.1 1073741824.0 15 30
r 0.201073 2 0 cbr 210 ------- 1 1.1 1073741824.0 18 36
+ 0.201073 0 1 cbr 210 ------- 1 1.1 1073741824.0 18 36
- 0.201073 0 1 cbr 210 ------- 1 1.1 1073741824.0 18 36
r 0.201203 0 2 encap 230 ------- 0 1.3 2.0 -1 43
+ 0.201203 2 0 cbr 210 ------- 1 1.1 1073741824.0 21 42
- 0.201203 2 0 cbr 210 ------- 1 1.1 1073741824.0 21 42
r 0.201227 1 0 encap 230 ------- 0 1.3 2.0 -1 49
+ 0.201227 0 2 encap 230 ------- 0 1.3 2.0 -1 49
- 0.201227 0 2 encap 230 ------- 0 1.3 2.0 -1 49
+ 0.20125 1 0 encap 230 ------- 0 1.3 2.0 -1 55
- 0.20125 1 0 encap 230 ------- 0 1.3 2.0 -1 55
r 0.204693 0 1 cbr 210 ------- 1 1.1 1073741824.0 16 32
r 0.204823 2 0 cbr 210 ------- 1 1.1 1073741824.0 19 38
+ 0.204823 0 1 cbr 210 ------- 1 1.1 1073741824.0 19 38
- 0.204823 0 1 cbr 210 ------- 1 1.1 1073741824.0 19 38
r 0.204953 0 2 encap 230 ------- 0 1.3 2.0 -1 45
+ 0.204953 2 0 cbr 210 ------- 1 1.1 1073741824.0 22 44
- 0.204953 2 0 cbr 210 ------- 1 1.1 1073741824.0 22 44
r 0.204977 1 0 encap 230 ------- 0 1.3 2.0 -1 51
+ 0.204977 0 2 encap 230 ------- 0 1.3 2.0 -1 51
- 0.204977 0 2 encap 230 ------- 0 1.3 2.0 -1 51
+ 0.205 1 0 encap 230 ------- 0 1.3 2.0 -1 57
- 0.205 1 0 encap 230 ------- 0 1.3 2.0 -1 57
r 0.208443 0 1 cbr 210 ------- 1 1.1 1073741824.0 17 34
r 0.208573 2 0 cbr 210 ------- 1 1.1 1073741824.0 20 40
+ 0.208573 0 1 cbr 210 ------- 1 1.1 1073741824.0 20 40
- 0.208573 0 1 cbr 210 ------- 1 1.1 1073741824.0 20 40
r 0.208703 0 2 encap 230 ------- 0 1.3 2.0 -1 47
+ 0.208703 2 0 cbr 210 ------- 1 1.1 1073741824.0 23 46
- 0.208703 2 0 cbr 210 ------- 1 1.1 1073741824.0 23 46
r 0.208727 1 0 encap 230 ------- 0 1.3 2.0 -1 53
+ 0.208727 0 2 encap 230 ------- 0 1.3 2.0 -1 53
- 0.208727 0 2 encap 230 ------- 0 1.3 2.0 -1 53
+ 0.20875 1 0 encap 230 ------- 0 1.3 2.0 -1 59
- 0.20875 1 0 encap 230 ------- 0 1.3 2.0 -1 59
r 0.212193 0 1 cbr 210 ------- 1 1.1 1073741824.0 18 36
r 0.212323 2 0 cbr 210 ------- 1 1.1 1073741824.0 21 42
+ 0.212323 0 1 cbr 210 ------- 1 1.1 1073741824.0 21 42
- 0.212323 0 1 cbr 210 ------- 1 1.1 1073741824.0 21 42
r 0.212453 0 2 encap 230 ------- 0 1.3 2.0 -1 49
+ 0.212453 2 0 cbr 210 ------- 1 1.1 1073741824.0 24 48
- 0.212453 2 0 cbr 210 ------- 1 1.1 1073741824.0 24 48
r 0.212477 1 0 encap 230 ------- 0 1.3 2.0 -1 55
+ 0.212477 0 2 encap 230 ------- 0 1.3 2.0 -1 55
- 0.212477 0 2 encap 230 ------- 0 1.3 2.0 -1 55
+ 0.2125 1 0 encap 230 ------- 0 1.3 2.0 -1 61
- 0.2125 1 0 encap 230 ------- 0 1.3 2.0 -1 61
r 0.215943 0 1 cbr 210 ------- 1 1.1 1073741824.0 19 38
r 0.216073 2 0 cbr 210 ------- 1 1.1 1073741824.0 22 44
+ 0.216073 0 1 cbr 210 ------- 1 1.1 1073741824.0 22 44
- 0.216073 0 1 cbr 210 ------- 1 1.1 1073741824.0 22 44
r 0.216203 0 2 encap 230 ------- 0 1.3 2.0 -1 51
+ 0.216203 2 0 cbr 210 ------- 1 1.1 1073741824.0 25 50
- 0.216203 2 0 cbr 210 ------- 1 1.1 1073741824.0 25 50
r 0.216227 1 0 encap 230 ------- 0 1.3 2.0 -1 57
+ 0.216227 0 2 encap 230 ------- 0 1.3 2.0 -1 57
- 0.216227 0 2 encap 230 ------- 0 1.3 2.0 -1 57
+ 0.21625 1 0 encap 230 ------- 0 1.3 2.0 -1 63
- 0.21625 1 0 encap 230 ------- 0 1.3 2.0 -1 63
r 0.219693 0 1 cbr 210 ------- 1 1.1 1073741824.0 20 40
r 0.219823 2 0 cbr 210 ------- 1 1.1 1073741824.0 23 46
+ 0.219823 0 1 cbr 210 ------- 1 1.1 1073741824.0 23 46
- 0.219823 0 1 cbr 210 ------- 1 1.1 1073741824.0 23 46
r 0.219953 0 2 encap 230 ------- 0 1.3 2.0 -1 53
+ 0.219953 2 0 cbr 210 ------- 1 1.1 1073741824.0 26 52
- 0.219953 2 0 cbr 210 ------- 1 1.1 1073741824.0 26 52
r 0.219977 1 0 encap 230 ------- 0 1.3 2.0 -1 59
+ 0.219977 0 2 encap 230 ------- 0 1.3 2.0 -1 59
- 0.219977 0 2 encap 230 ------- 0 1.3 2.0 -1 59
+ 0.22 1 0 encap 230 ------- 0 1.3 2.0 -1 65
- 0.22 1 0 encap 230 ------- 0 1.3 2.0 -1 65
r 0.223443 0 1 cbr 210 ------- 1 1.1 1073741824.0 21 42
r 0.223573 2 0 cbr 210 ------- 1 1.1 1073741824.0 24 48
+ 0.223573 0 1 cbr 210 ------- 1 1.1 1073741824.0 24 48
- 0.223573 0 1 cbr 210 ------- 1 1.1 1073741824.0 24 48
r 0.223703 0 2 encap 230 ------- 0 1.3 2.0 -1 55
+ 0.223703 2 0 cbr 210 ------- 1 1.1 1073741824.0 27 54
- 0.223703 2 0 cbr 210 ------- 1 1.1 1073741824.0 27 54
r 0.223727 1 0 encap 230 ------- 0 1.3 2.0 -1 61
+ 0.223727 0 2 encap 230 ------- 0 1.3 2.0 -1 61
- 0.223727 0 2 encap 230 ------- 0 1.3 2.0 -1 61
+ 0.22375 1 0 encap 230 ------- 0 1.3 2.0 -1 67
- 0.22375 1 0 encap 230 ------- 0 1.3 2.0 -1 67
r 0.227193 0 1 cbr 210 ------- 1 1.1 1073741824.0 22 44
r 0.227323 2 0 cbr 210 ------- 1 1.1 1073741824.0 25 50
+ 0.227323 0 1 cbr 210 ------- 1 1.1 1073741824.0 25 50
- 0.227323 0 1 cbr 210 ------- 1 1.1 1073741824.0 25 50
r 0.227453 0 2 encap 230 ------- 0 1.3 2.0 -1 57
+ 0.227453 2 0 cbr 210 ------- 1 1.1 1073741824.0 28 56
- 0.227453 2 0 cbr 210 ------- 1 1.1 1073741824.0 28 56
r 0.227477 1 0 encap 230 ------- 0 1.3 2.0 -1 63
+ 0.227477 0 2 encap 230 ------- 0 1.3 2.0 -1 63
- 0.227477 0 2 encap 230 ------- 0 1.3 2.0 -1 63
+ 0.2275 1 0 encap 230 ------- 0 1.3 2.0 -1 69
- 0.2275 1 0 encap 230 ------- 0 1.3 2.0 -1 69
r 0.230943 0 1 cbr 210 ------- 1 1.1 1073741824.0 23 46
r 0.231073 2 0 cbr 210 ------- 1 1.1 1073741824.0 26 52
+ 0.231073 0 1 cbr 210 ------- 1 1.1 1073741824.0 26 52
- 0.231073 0 1 cbr 210 ------- 1 1.1 1073741824.0 26 52
r 0.231203 0 2 encap 230 ------- 0 1.3 2.0 -1 59
+ 0.231203 2 0 cbr 210 ------- 1 1.1 1073741824.0 29 58
- 0.231203 2 0 cbr 210 ------- 1 1.1 1073741824.0 29 58
r 0.231227 1 0 encap 230 ------- 0 1.3 2.0 -1 65
+ 0.231227 0 2 encap 230 ------- 0 1.3 2.0 -1 65
- 0.231227 0 2 encap 230 ------- 0 1.3 2.0 -1 65
+ 0.23125 1 0 encap 230 ------- 0 1.3 2.0 -1 71
- 0.23125 1 0 encap 230 ------- 0 1.3 2.0 -1 71
r 0.234693 0 1 cbr 210 ------- 1 1.1 1073741824.0 24 48
r 0.234823 2 0 cbr 210 ------- 1 1.1 1073741824.0 27 54
+ 0.234823 0 1 cbr 210 ------- 1 1.1 1073741824.0 27 54
- 0.234823 0 1 cbr 210 ------- 1 1.1 1073741824.0 27 54
r 0.234953 0 2 encap 230 ------- 0 1.3 2.0 -1 61
+ 0.234953 2 0 cbr 210 ------- 1 1.1 1073741824.0 30 60
- 0.234953 2 0 cbr 210 ------- 1 1.1 1073741824.0 30 60
r 0.234977 1 0 encap 230 ------- 0 1.3 2.0 -1 67
+ 0.234977 0 2 encap 230 ------- 0 1.3 2.0 -1 67
- 0.234977 0 2 encap 230 ------- 0 1.3 2.0 -1 67
+ 0.235 1 0 encap 230 ------- 0 1.3 2.0 -1 73
- 0.235 1 0 encap 230 ------- 0 1.3 2.0 -1 73
r 0.238443 0 1 cbr 210 ------- 1 1.1 1073741824.0 25 50
r 0.238573 2 0 cbr 210 ------- 1 1.1 1073741824.0 28 56
+ 0.238573 0 1 cbr 210 ------- 1 1.1 1073741824.0 28 56
- 0.238573 0 1 cbr 210 ------- 1 1.1 1073741824.0 28 56
r 0.238703 0 2 encap 230 ------- 0 1.3 2.0 -1 63
+ 0.238703 2 0 cbr 210 ------- 1 1.1 1073741824.0 31 62
- 0.238703 2 0 cbr 210 ------- 1 1.1 1073741824.0 31 62
r 0.238727 1 0 encap 230 ------- 0 1.3 2.0 -1 69
+ 0.238727 0 2 encap 230 ------- 0 1.3 2.0 -1 69
- 0.238727 0 2 encap 230 ------- 0 1.3 2.0 -1 69
+ 0.23875 1 0 encap 230 ------- 0 1.3 2.0 -1 75
- 0.23875 1 0 encap 230 ------- 0 1.3 2.0 -1 75
r 0.242193 0 1 cbr 210 ------- 1 1.1 1073741824.0 26 52
r 0.242323 2 0 cbr 210 ------- 1 1.1 1073741824.0 29 58
+ 0.242323 0 1 cbr 210 ------- 1 1.1 1073741824.0 29 58
- 0.242323 0 1 cbr 210 ------- 1 1.1 1073741824.0 29 58
r 0.242453 0 2 encap 230 ------- 0 1.3 2.0 -1 65
+ 0.242453 2 0 cbr 210 ------- 1 1.1 1073741824.0 32 64
- 0.242453 2 0 cbr 210 ------- 1 1.1 1073741824.0 32 64
r 0.242477 1 0 encap 230 ------- 0 1.3 2.0 -1 71
+ 0.242477 0 2 encap 230 ------- 0 1.3 2.0 -1 71
- 0.242477 0 2 encap 230 ------- 0 1.3 2.0 -1 71
+ 0.2425 1 0 encap 230 ------- 0 1.3 2.0 -1 77
- 0.2425 1 0 encap 230 ------- 0 1.3 2.0 -1 77
r 0.245943 0 1 cbr 210 ------- 1 1.1 1073741824.0 27 54
r 0.246073 2 0 cbr 210 ------- 1 1.1 1073741824.0 30 60
+ 0.246073 0 1 cbr 210 ------- 1 1.1 1073741824.0 30 60
- 0.246073 0 1 cbr 210 ------- 1 1.1 1073741824.0 30 60
r 0.246203 0 2 encap 230 ------- 0 1.3 2.0 -1 67
+ 0.246203 2 0 cbr 210 ------- 1 1.1 1073741824.0 33 66
- 0.246203 2 0 cbr 210 ------- 1 1.1 1073741824.0 33 66
r 0.246227 1 0 encap 230 ------- 0 1.3 2.0 -1 73
+ 0.246227 0 2 encap 230 ------- 0 1.3 2.0 -1 73
- 0.246227 0 2 encap 230 ------- 0 1.3 2.0 -1 73
+ 0.24625 1 0 encap 230 ------- 0 1.3 2.0 -1 79
- 0.24625 1 0 encap 230 ------- 0 1.3 2.0 -1 79
r 0.249693 0 1 cbr 210 ------- 1 1.1 1073741824.0 28 56
r 0.249823 2 0 cbr 210 ------- 1 1.1 1073741824.0 31 62
+ 0.249823 0 1 cbr 210 ------- 1 1.1 1073741824.0 31 62
- 0.249823 0 1 cbr 210 ------- 1 1.1 1073741824.0 31 62
r 0.249953 0 2 encap 230 ------- 0 1.3 2.0 -1 69
+ 0.249953 2 0 cbr 210 ------- 1 1.1 1073741824.0 34 68
- 0.249953 2 0 cbr 210 ------- 1 1.1 1073741824.0 34 68
r 0.249977 1 0 encap 230 ------- 0 1.3 2.0 -1 75
+ 0.249977 0 2 encap 230 ------- 0 1.3 2.0 -1 75
- 0.249977 0 2 encap 230 ------- 0 1.3 2.0 -1 75
+ 0.25 1 0 encap 230 ------- 0 1.3 2.0 -1 81
- 0.25 1 0 encap 230 ------- 0 1.3 2.0 -1 81
r 0.253443 0 1 cbr 210 ------- 1 1.1 1073741824.0 29 58
r 0.253573 2 0 cbr 210 ------- 1 1.1 1073741824.0 32 64
+ 0.253573 0 1 cbr 210 ------- 1 1.1 1073741824.0 32 64
- 0.253573 0 1 cbr 210 ------- 1 1.1 1073741824.0 32 64
r 0.253703 0 2 encap 230 ------- 0 1.3 2.0 -1 71
+ 0.253703 2 0 cbr 210 ------- 1 1.1 1073741824.0 35 70
- 0.253703 2 0 cbr 210 ------- 1 1.1 1073741824.0 35 70
r 0.253727 1 0 encap 230 ------- 0 1.3 2.0 -1 77
+ 0.253727 0 2 encap 230 ------- 0 1.3 2.0 -1 77
- 0.253727 0 2 encap 230 ------- 0 1.3 2.0 -1 77
+ 0.25375 1 0 encap 230 ------- 0 1.3 2.0 -1 83
- 0.25375 1 0 encap 230 ------- 0 1.3 2.0 -1 83
r 0.257193 0 1 cbr 210 ------- 1 1.1 1073741824.0 30 60
r 0.257323 2 0 cbr 210 ------- 1 1.1 1073741824.0 33 66
+ 0.257323 0 1 cbr 210 ------- 1 1.1 1073741824.0 33 66
- 0.257323 0 1 cbr 210 ------- 1 1.1 1073741824.0 33 66
r 0.257453 0 2 encap 230 ------- 0 1.3 2.0 -1 73
+ 0.257453 2 0 cbr 210 ------- 1 1.1 1073741824.0 36 72
- 0.257453 2 0 cbr 210 ------- 1 1.1 1073741824.0 36 72
r 0.257477 1 0 encap 230 ------- 0 1.3 2.0 -1 79
+ 0.257477 0 2 encap 230 ------- 0 1.3 2.0 -1 79
- 0.257477 0 2 encap 230 ------- 0 1.3 2.0 -1 79
+ 0.2575 1 0 encap 230 ------- 0 1.3 2.0 -1 85
- 0.2575 1 0 encap 230 ------- 0 1.3 2.0 -1 85
r 0.260943 0 1 cbr 210 ------- 1 1.1 1073741824.0 31 62
r 0.261073 2 0 cbr 210 ------- 1 1.1 1073741824.0 34 68
+ 0.261073 0 1 cbr 210 ------- 1 1.1 1073741824.0 34 68
- 0.261073 0 1 cbr 210 ------- 1 1.1 1073741824.0 34 68
r 0.261203 0 2 encap 230 ------- 0 1.3 2.0 -1 75
+ 0.261203 2 0 cbr 210 ------- 1 1.1 1073741824.0 37 74
- 0.261203 2 0 cbr 210 ------- 1 1.1 1073741824.0 37 74
r 0.261227 1 0 encap 230 ------- 0 1.3 2.0 -1 81
+ 0.261227 0 2 encap 230 ------- 0 1.3 2.0 -1 81
- 0.261227 0 2 encap 230 ------- 0 1.3 2.0 -1 81
+ 0.26125 1 0 encap 230 ------- 0 1.3 2.0 -1 87
- 0.26125 1 0 encap 230 ------- 0 1.3 2.0 -1 87
r 0.264693 0 1 cbr 210 ------- 1 1.1 1073741824.0 32 64
r 0.264823 2 0 cbr 210 ------- 1 1.1 1073741824.0 35 70
+ 0.264823 0 1 cbr 210 ------- 1 1.1 1073741824.0 35 70
- 0.264823 0 1 cbr 210 ------- 1 1.1 1073741824.0 35 70
r 0.264953 0 2 encap 230 ------- 0 1.3 2.0 -1 77
+ 0.264953 2 0 cbr 210 ------- 1 1.1 1073741824.0 38 76
- 0.264953 2 0 cbr 210 ------- 1 1.1 1073741824.0 38 76
r 0.264977 1 0 encap 230 ------- 0 1.3 2.0 -1 83
+ 0.264977 0 2 encap 230 ------- 0 1.3 2.0 -1 83
- 0.264977 0 2 encap 230 ------- 0 1.3 2.0 -1 83
+ 0.265 1 0 encap 230 ------- 0 1.3 2.0 -1 89
- 0.265 1 0 encap 230 ------- 0 1.3 2.0 -1 89
r 0.268443 0 1 cbr 210 ------- 1 1.1 1073741824.0 33 66
r 0.268573 2 0 cbr 210 ------- 1 1.1 1073741824.0 36 72
+ 0.268573 0 1 cbr 210 ------- 1 1.1 1073741824.0 36 72
- 0.268573 0 1 cbr 210 ------- 1 1.1 1073741824.0 36 72
r 0.268703 0 2 encap 230 ------- 0 1.3 2.0 -1 79
+ 0.268703 2 0 cbr 210 ------- 1 1.1 1073741824.0 39 78
- 0.268703 2 0 cbr 210 ------- 1 1.1 1073741824.0 39 78
r 0.268727 1 0 encap 230 ------- 0 1.3 2.0 -1 85
+ 0.268727 0 2 encap 230 ------- 0 1.3 2.0 -1 85
- 0.268727 0 2 encap 230 ------- 0 1.3 2.0 -1 85
+ 0.26875 1 0 encap 230 ------- 0 1.3 2.0 -1 91
- 0.26875 1 0 encap 230 ------- 0 1.3 2.0 -1 91
r 0.272193 0 1 cbr 210 ------- 1 1.1 1073741824.0 34 68
r 0.272323 2 0 cbr 210 ------- 1 1.1 1073741824.0 37 74
+ 0.272323 0 1 cbr 210 ------- 1 1.1 1073741824.0 37 74
- 0.272323 0 1 cbr 210 ------- 1 1.1 1073741824.0 37 74
r 0.272453 0 2 encap 230 ------- 0 1.3 2.0 -1 81
+ 0.272453 2 0 cbr 210 ------- 1 1.1 1073741824.0 40 80
- 0.272453 2 0 cbr 210 ------- 1 1.1 1073741824.0 40 80
r 0.272477 1 0 encap 230 ------- 0 1.3 2.0 -1 87
+ 0.272477 0 2 encap 230 ------- 0 1.3 2.0 -1 87
- 0.272477 0 2 encap 230 ------- 0 1.3 2.0 -1 87
+ 0.2725 1 0 encap 230 ------- 0 1.3 2.0 -1 93
- 0.2725 1 0 encap 230 ------- 0 1.3 2.0 -1 93
r 0.275943 0 1 cbr 210 ------- 1 1.1 1073741824.0 35 70
r 0.276073 2 0 cbr 210 ------- 1 1.1 1073741824.0 38 76
+ 0.276073 0 1 cbr 210 ------- 1 1.1 1073741824.0 38 76
- 0.276073 0 1 cbr 210 ------- 1 1.1 1073741824.0 38 76
r 0.276203 0 2 encap 230 ------- 0 1.3 2.0 -1 83
+ 0.276203 2 0 cbr 210 ------- 1 1.1 1073741824.0 41 82
- 0.276203 2 0 cbr 210 ------- 1 1.1 1073741824.0 41 82
r 0.276227 1 0 encap 230 ------- 0 1.3 2.0 -1 89
+ 0.276227 0 2 encap 230 ------- 0 1.3 2.0 -1 89
- 0.276227 0 2 encap 230 ------- 0 1.3 2.0 -1 89
+ 0.27625 1 0 encap 230 ------- 0 1.3 2.0 -1 95
- 0.27625 1 0 encap 230 ------- 0 1.3 2.0 -1 95
r 0.279693 0 1 cbr 210 ------- 1 1.1 1073741824.0 36 72
r 0.279823 2 0 cbr 210 ------- 1 1.1 1073741824.0 39 78
+ 0.279823 0 1 cbr 210 ------- 1 1.1 1073741824.0 39 78
- 0.279823 0 1 cbr 210 ------- 1 1.1 1073741824.0 39 78
r 0.279953 0 2 encap 230 ------- 0 1.3 2.0 -1 85
+ 0.279953 2 0 cbr 210 ------- 1 1.1 1073741824.0 42 84
- 0.279953 2 0 cbr 210 ------- 1 1.1 1073741824.0 42 84
r 0.279977 1 0 encap 230 ------- 0 1.3 2.0 -1 91
+ 0.279977 0 2 encap 230 ------- 0 1.3 2.0 -1 91
- 0.279977 0 2 encap 230 ------- 0 1.3 2.0 -1 91
+ 0.28 1 0 encap 230 ------- 0 1.3 2.0 -1 97
- 0.28 1 0 encap 230 ------- 0 1.3 2.0 -1 97
r 0.283443 0 1 cbr 210 ------- 1 1.1 1073741824.0 37 74
r 0.283573 2 0 cbr 210 ------- 1 1.1 1073741824.0 40 80
+ 0.283573 0 1 cbr 210 ------- 1 1.1 1073741824.0 40 80
- 0.283573 0 1 cbr 210 ------- 1 1.1 1073741824.0 40 80
r 0.283703 0 2 encap 230 ------- 0 1.3 2.0 -1 87
+ 0.283703 2 0 cbr 210 ------- 1 1.1 1073741824.0 43 86
- 0.283703 2 0 cbr 210 ------- 1 1.1 1073741824.0 43 86
r 0.283727 1 0 encap 230 ------- 0 1.3 2.0 -1 93
+ 0.283727 0 2 encap 230 ------- 0 1.3 2.0 -1 93
- 0.283727 0 2 encap 230 ------- 0 1.3 2.0 -1 93
+ 0.28375 1 0 encap 230 ------- 0 1.3 2.0 -1 99
- 0.28375 1 0 encap 230 ------- 0 1.3 2.0 -1 99
r 0.287193 0 1 cbr 210 ------- 1 1.1 1073741824.0 38 76
r 0.287323 2 0 cbr 210 ------- 1 1.1 1073741824.0 41 82
+ 0.287323 0 1 cbr 210 ------- 1 1.1 1073741824.0 41 82
- 0.287323 0 1 cbr 210 ------- 1 1.1 1073741824.0 41 82
r 0.287453 0 2 encap 230 ------- 0 1.3 2.0 -1 89
+ 0.287453 2 0 cbr 210 ------- 1 1.1 1073741824.0 44 88
- 0.287453 2 0 cbr 210 ------- 1 1.1 1073741824.0 44 88
r 0.287477 1 0 encap 230 ------- 0 1.3 2.0 -1 95
+ 0.287477 0 2 encap 230 ------- 0 1.3 2.0 -1 95
- 0.287477 0 2 encap 230 ------- 0 1.3 2.0 -1 95
+ 0.2875 1 0 encap 230 ------- 0 1.3 2.0 -1 101
- 0.2875 1 0 encap 230 ------- 0 1.3 2.0 -1 101
r 0.290943 0 1 cbr 210 ------- 1 1.1 1073741824.0 39 78
r 0.291073 2 0 cbr 210 ------- 1 1.1 1073741824.0 42 84
+ 0.291073 0 1 cbr 210 ------- 1 1.1 1073741824.0 42 84
- 0.291073 0 1 cbr 210 ------- 1 1.1 1073741824.0 42 84
r 0.291203 0 2 encap 230 ------- 0 1.3 2.0 -1 91
+ 0.291203 2 0 cbr 210 ------- 1 1.1 1073741824.0 45 90
- 0.291203 2 0 cbr 210 ------- 1 1.1 1073741824.0 45 90
r 0.291227 1 0 encap 230 ------- 0 1.3 2.0 -1 97
+ 0.291227 0 2 encap 230 ------- 0 1.3 2.0 -1 97
- 0.291227 0 2 encap 230 ------- 0 1.3 2.0 -1 97
+ 0.29125 1 0 encap 230 ------- 0 1.3 2.0 -1 103
- 0.29125 1 0 encap 230 ------- 0 1.3 2.0 -1 103
r 0.294693 0 1 cbr 210 ------- 1 1.1 1073741824.0 40 80
r 0.294823 2 0 cbr 210 ------- 1 1.1 1073741824.0 43 86
+ 0.294823 0 1 cbr 210 ------- 1 1.1 1073741824.0 43 86
- 0.294823 0 1 cbr 210 ------- 1 1.1 1073741824.0 43 86
r 0.294953 0 2 encap 230 ------- 0 1.3 2.0 -1 93
+ 0.294953 2 0 cbr 210 ------- 1 1.1 1073741824.0 46 92
- 0.294953 2 0 cbr 210 ------- 1 1.1 1073741824.0 46 92
r 0.294977 1 0 encap 230 ------- 0 1.3 2.0 -1 99
+ 0.294977 0 2 encap 230 ------- 0 1.3 2.0 -1 99
- 0.294977 0 2 encap 230 ------- 0 1.3 2.0 -1 99
+ 0.295 1 0 encap 230 ------- 0 1.3 2.0 -1 105
- 0.295 1 0 encap 230 ------- 0 1.3 2.0 -1 105
r 0.298443 0 1 cbr 210 ------- 1 1.1 1073741824.0 41 82
r 0.298573 2 0 cbr 210 ------- 1 1.1 1073741824.0 44 88
+ 0.298573 0 1 cbr 210 ------- 1 1.1 1073741824.0 44 88
- 0.298573 0 1 cbr 210 ------- 1 1.1 1073741824.0 44 88
r 0.298703 0 2 encap 230 ------- 0 1.3 2.0 -1 95