+ 1 3 1 cbr 210 ------- 0 3.0 0.1 0 0
- 1 3 1 cbr 210 ------- 0 3.0 0.1 0 0
+ 1.00375 3 1 cbr 210 ------- 0 3.0 0.1 1 1
- 1.00375 3 1 cbr 210 ------- 0 3.0 0.1 1 1
+ 1.0075 3 1 cbr 210 ------- 0 3.0 0.1 2 2
- 1.0075 3 1 cbr 210 ------- 0 3.0 0.1 2 2
r 1.01112 3 1 cbr 210 ------- 0 3.0 0.1 0 0
+ 1.01112 1 0 cbr 210 ------- 0 3.0 0.1 0 0
- 1.01112 1 0 cbr 210 ------- 0 3.0 0.1 0 0
+ 1.01125 3 1 cbr 210 ------- 0 3.0 0.1 3 3
- 1.01125 3 1 cbr 210 ------- 0 3.0 0.1 3 3
r 1.01487 3 1 cbr 210 ------- 0 3.0 0.1 1 1
+ 1.01487 1 0 cbr 210 ------- 0 3.0 0.1 1 1
- 1.01487 1 0 cbr 210 ------- 0 3.0 0.1 1 1
+ 1.015 3 1 cbr 210 ------- 0 3.0 0.1 4 4
- 1.015 3 1 cbr 210 ------- 0 3.0 0.1 4 4
r 1.01862 3 1 cbr 210 ------- 0 3.0 0.1 2 2
+ 1.01862 1 0 cbr 210 ------- 0 3.0 0.1 2 2
- 1.01862 1 0 cbr 210 ------- 0 3.0 0.1 2 2
+ 1.01875 3 1 cbr 210 ------- 0 3.0 0.1 5 5
- 1.01875 3 1 cbr 210 ------- 0 3.0 0.1 5 5
r 1.02224 1 0 cbr 210 ------- 0 3.0 0.1 0 0
r 1.02237 3 1 cbr 210 ------- 0 3.0 0.1 3 3
+ 1.02237 1 0 cbr 210 ------- 0 3.0 0.1 3 3
- 1.02237 1 0 cbr 210 ------- 0 3.0 0.1 3 3
+ 1.0225 3 1 cbr 210 ------- 0 3.0 0.1 6 6
- 1.0225 3 1 cbr 210 ------- 0 3.0 0.1 6 6
r 1.02599 1 0 cbr 210 ------- 0 3.0 0.1 1 1
r 1.02612 3 1 cbr 210 ------- 0 3.0 0.1 4 4
+ 1.02612 1 0 cbr 210 ------- 0 3.0 0.1 4 4
- 1.02612 1 0 cbr 210 ------- 0 3.0 0.1 4 4
+ 1.02625 3 1 cbr 210 ------- 0 3.0 0.1 7 7
- 1.02625 3 1 cbr 210 ------- 0 3.0 0.1 7 7
r 1.02974 1 0 cbr 210 ------- 0 3.0 0.1 2 2
r 1.02987 3 1 cbr 210 ------- 0 3.0 0.1 5 5
+ 1.02987 1 0 cbr 210 ------- 0 3.0 0.1 5 5
- 1.02987 1 0 cbr 210 ------- 0 3.0 0.1 5 5
+ 1.03 3 1 cbr 210 ------- 0 3.0 0.1 8 8
- 1.03 3 1 cbr 210 ------- 0 3.0 0.1 8 8
r 1.03349 1 0 cbr 210 ------- 0 3.0 0.1 3 3
r 1.03362 3 1 cbr 210 ------- 0 3.0 0.1 6 6
+ 1.03362 1 0 cbr 210 ------- 0 3.0 0.1 6 6
- 1.03362 1 0 cbr 210 ------- 0 3.0 0.1 6 6
+ 1.03375 3 1 cbr 210 ------- 0 3.0 0.1 9 9
- 1.03375 3 1 cbr 210 ------- 0 3.0 0.1 9 9
r 1.03724 1 0 cbr 210 ------- 0 3.0 0.1 4 4
r 1.03737 3 1 cbr 210 ------- 0 3.0 0.1 7 7
+ 1.03737 1 0 cbr 210 ------- 0 3.0 0.1 7 7
- 1.03737 1 0 cbr 210 ------- 0 3.0 0.1 7 7
+ 1.0375 3 1 cbr 210 ------- 0 3.0 0.1 10 10
- 1.0375 3 1 cbr 210 ------- 0 3.0 0.1 10 10
r 1.04099 1 0 cbr 210 ------- 0 3.0 0.1 5 5
r 1.04112 3 1 cbr 210 ------- 0 3.0 0.1 8 8
+ 1.04112 1 0 cbr 210 ------- 0 3.0 0.1 8 8
- 1.04112 1 0 cbr 210 ------- 0 3.0 0.1 8 8
+ 1.04125 3 1 cbr 210 ------- 0 3.0 0.1 11 11
- 1.04125 3 1 cbr 210 ------- 0 3.0 0.1 11 11
r 1.04474 1 0 cbr 210 ------- 0 3.0 0.1 6 6
r 1.04487 3 1 cbr 210 ------- 0 3.0 0.1 9 9
+ 1.04487 1 0 cbr 210 ------- 0 3.0 0.1 9 9
- 1.04487 1 0 cbr 210 ------- 0 3.0 0.1 9 9
+ 1.045 3 1 cbr 210 ------- 0 3.0 0.1 12 12
- 1.045 3 1 cbr 210 ------- 0 3.0 0.1 12 12
r 1.04849 1 0 cbr 210 ------- 0 3.0 0.1 7 7
r 1.04862 3 1 cbr 210 ------- 0 3.0 0.1 10 10
+ 1.04862 1 0 cbr 210 ------- 0 3.0 0.1 10 10
- 1.04862 1 0 cbr 210 ------- 0 3.0 0.1 10 10
+ 1.04875 3 1 cbr 210 ------- 0 3.0 0.1 13 13
- 1.04875 3 1 cbr 210 ------- 0 3.0 0.1 13 13
r 1.05224 1 0 cbr 210 ------- 0 3.0 0.1 8 8
r 1.05237 3 1 cbr 210 ------- 0 3.0 0.1 11 11
+ 1.05237 1 0 cbr 210 ------- 0 3.0 0.1 11 11
- 1.05237 1 0 cbr 210 ------- 0 3.0 0.1 11 11
+ 1.0525 3 1 cbr 210 ------- 0 3.0 0.1 14 14
- 1.0525 3 1 cbr 210 ------- 0 3.0 0.1 14 14
r 1.05599 1 0 cbr 210 ------- 0 3.0 0.1 9 9
r 1.05612 3 1 cbr 210 ------- 0 3.0 0.1 12 12
+ 1.05612 1 0 cbr 210 ------- 0 3.0 0.1 12 12
- 1.05612 1 0 cbr 210 ------- 0 3.0 0.1 12 12
+ 1.05625 3 1 cbr 210 ------- 0 3.0 0.1 15 15
- 1.05625 3 1 cbr 210 ------- 0 3.0 0.1 15 15
r 1.05974 1 0 cbr 210 ------- 0 3.0 0.1 10 10
r 1.05987 3 1 cbr 210 ------- 0 3.0 0.1 13 13
+ 1.05987 1 0 cbr 210 ------- 0 3.0 0.1 13 13
- 1.05987 1 0 cbr 210 ------- 0 3.0 0.1 13 13
+ 1.06 3 1 cbr 210 ------- 0 3.0 0.1 16 16
- 1.06 3 1 cbr 210 ------- 0 3.0 0.1 16 16
r 1.06349 1 0 cbr 210 ------- 0 3.0 0.1 11 11
r 1.06362 3 1 cbr 210 ------- 0 3.0 0.1 14 14
+ 1.06362 1 0 cbr 210 ------- 0 3.0 0.1 14 14
- 1.06362 1 0 cbr 210 ------- 0 3.0 0.1 14 14
+ 1.06375 3 1 cbr 210 ------- 0 3.0 0.1 17 17
- 1.06375 3 1 cbr 210 ------- 0 3.0 0.1 17 17
r 1.06724 1 0 cbr 210 ------- 0 3.0 0.1 12 12
r 1.06737 3 1 cbr 210 ------- 0 3.0 0.1 15 15
+ 1.06737 1 0 cbr 210 ------- 0 3.0 0.1 15 15
- 1.06737 1 0 cbr 210 ------- 0 3.0 0.1 15 15
+ 1.0675 3 1 cbr 210 ------- 0 3.0 0.1 18 18
- 1.0675 3 1 cbr 210 ------- 0 3.0 0.1 18 18
r 1.07099 1 0 cbr 210 ------- 0 3.0 0.1 13 13
r 1.07112 3 1 cbr 210 ------- 0 3.0 0.1 16 16
+ 1.07112 1 0 cbr 210 ------- 0 3.0 0.1 16 16
- 1.07112 1 0 cbr 210 ------- 0 3.0 0.1 16 16
+ 1.07125 3 1 cbr 210 ------- 0 3.0 0.1 19 19
- 1.07125 3 1 cbr 210 ------- 0 3.0 0.1 19 19
r 1.07474 1 0 cbr 210 ------- 0 3.0 0.1 14 14
r 1.07487 3 1 cbr 210 ------- 0 3.0 0.1 17 17
+ 1.07487 1 0 cbr 210 ------- 0 3.0 0.1 17 17
- 1.07487 1 0 cbr 210 ------- 0 3.0 0.1 17 17
+ 1.075 3 1 cbr 210 ------- 0 3.0 0.1 20 20
- 1.075 3 1 cbr 210 ------- 0 3.0 0.1 20 20
r 1.07849 1 0 cbr 210 ------- 0 3.0 0.1 15 15
r 1.07862 3 1 cbr 210 ------- 0 3.0 0.1 18 18
+ 1.07862 1 0 cbr 210 ------- 0 3.0 0.1 18 18
- 1.07862 1 0 cbr 210 ------- 0 3.0 0.1 18 18
+ 1.07875 3 1 cbr 210 ------- 0 3.0 0.1 21 21
- 1.07875 3 1 cbr 210 ------- 0 3.0 0.1 21 21
r 1.08224 1 0 cbr 210 ------- 0 3.0 0.1 16 16
r 1.08237 3 1 cbr 210 ------- 0 3.0 0.1 19 19
+ 1.08237 1 0 cbr 210 ------- 0 3.0 0.1 19 19
- 1.08237 1 0 cbr 210 ------- 0 3.0 0.1 19 19
+ 1.0825 3 1 cbr 210 ------- 0 3.0 0.1 22 22
- 1.0825 3 1 cbr 210 ------- 0 3.0 0.1 22 22
r 1.08599 1 0 cbr 210 ------- 0 3.0 0.1 17 17
r 1.08612 3 1 cbr 210 ------- 0 3.0 0.1 20 20
+ 1.08612 1 0 cbr 210 ------- 0 3.0 0.1 20 20
- 1.08612 1 0 cbr 210 ------- 0 3.0 0.1 20 20
+ 1.08625 3 1 cbr 210 ------- 0 3.0 0.1 23 23
- 1.08625 3 1 cbr 210 ------- 0 3.0 0.1 23 23
r 1.08974 1 0 cbr 210 ------- 0 3.0 0.1 18 18
r 1.08987 3 1 cbr 210 ------- 0 3.0 0.1 21 21
+ 1.08987 1 0 cbr 210 ------- 0 3.0 0.1 21 21
- 1.08987 1 0 cbr 210 ------- 0 3.0 0.1 21 21
+ 1.09 3 1 cbr 210 ------- 0 3.0 0.1 24 24
- 1.09 3 1 cbr 210 ------- 0 3.0 0.1 24 24
r 1.09349 1 0 cbr 210 ------- 0 3.0 0.1 19 19
r 1.09362 3 1 cbr 210 ------- 0 3.0 0.1 22 22
+ 1.09362 1 0 cbr 210 ------- 0 3.0 0.1 22 22
- 1.09362 1 0 cbr 210 ------- 0 3.0 0.1 22 22
+ 1.09375 3 1 cbr 210 ------- 0 3.0 0.1 25 25
- 1.09375 3 1 cbr 210 ------- 0 3.0 0.1 25 25
r 1.09724 1 0 cbr 210 ------- 0 3.0 0.1 20 20
r 1.09737 3 1 cbr 210 ------- 0 3.0 0.1 23 23
+ 1.09737 1 0 cbr 210 ------- 0 3.0 0.1 23 23
- 1.09737 1 0 cbr 210 ------- 0 3.0 0.1 23 23
+ 1.0975 3 1 cbr 210 ------- 0 3.0 0.1 26 26
- 1.0975 3 1 cbr 210 ------- 0 3.0 0.1 26 26
+ 1.1 0 1 cbr 210 ------- 1 0.0 2.0 0 27
- 1.1 0 1 cbr 210 ------- 1 0.0 2.0 0 27
r 1.10099 1 0 cbr 210 ------- 0 3.0 0.1 21 21
r 1.10112 3 1 cbr 210 ------- 0 3.0 0.1 24 24
+ 1.10112 1 0 cbr 210 ------- 0 3.0 0.1 24 24
- 1.10112 1 0 cbr 210 ------- 0 3.0 0.1 24 24
+ 1.10125 3 1 cbr 210 ------- 0 3.0 0.1 27 28
- 1.10125 3 1 cbr 210 ------- 0 3.0 0.1 27 28
+ 1.10375 0 1 cbr 210 ------- 1 0.0 2.0 1 29
- 1.10375 0 1 cbr 210 ------- 1 0.0 2.0 1 29
r 1.10474 1 0 cbr 210 ------- 0 3.0 0.1 22 22
r 1.10487 3 1 cbr 210 ------- 0 3.0 0.1 25 25
+ 1.10487 1 0 cbr 210 ------- 0 3.0 0.1 25 25
- 1.10487 1 0 cbr 210 ------- 0 3.0 0.1 25 25
+ 1.105 3 1 cbr 210 ------- 0 3.0 0.1 28 30
- 1.105 3 1 cbr 210 ------- 0 3.0 0.1 28 30
+ 1.1075 0 1 cbr 210 ------- 1 0.0 2.0 2 31
- 1.1075 0 1 cbr 210 ------- 1 0.0 2.0 2 31
r 1.10849 1 0 cbr 210 ------- 0 3.0 0.1 23 23
r 1.10862 3 1 cbr 210 ------- 0 3.0 0.1 26 26
+ 1.10862 1 0 cbr 210 ------- 0 3.0 0.1 26 26
- 1.10862 1 0 cbr 210 ------- 0 3.0 0.1 26 26
+ 1.10875 3 1 cbr 210 ------- 0 3.0 0.1 29 32
- 1.10875 3 1 cbr 210 ------- 0 3.0 0.1 29 32
r 1.11112 0 1 cbr 210 ------- 1 0.0 2.0 0 27
+ 1.11112 1 2 cbr 210 ------- 1 0.0 2.0 0 27
- 1.11112 1 2 cbr 210 ------- 1 0.0 2.0 0 27
+ 1.11125 0 1 cbr 210 ------- 1 0.0 2.0 3 33
- 1.11125 0 1 cbr 210 ------- 1 0.0 2.0 3 33
r 1.11224 1 0 cbr 210 ------- 0 3.0 0.1 24 24
r 1.11237 3 1 cbr 210 ------- 0 3.0 0.1 27 28
+ 1.11237 1 0 cbr 210 ------- 0 3.0 0.1 27 28
- 1.11237 1 0 cbr 210 ------- 0 3.0 0.1 27 28
+ 1.1125 3 1 cbr 210 ------- 0 3.0 0.1 30 34
- 1.1125 3 1 cbr 210 ------- 0 3.0 0.1 30 34
r 1.11487 0 1 cbr 210 ------- 1 0.0 2.0 1 29
+ 1.11487 1 2 cbr 210 ------- 1 0.0 2.0 1 29
- 1.11487 1 2 cbr 210 ------- 1 0.0 2.0 1 29
+ 1.115 0 1 cbr 210 ------- 1 0.0 2.0 4 35
- 1.115 0 1 cbr 210 ------- 1 0.0 2.0 4 35
r 1.11599 1 0 cbr 210 ------- 0 3.0 0.1 25 25
r 1.11612 3 1 cbr 210 ------- 0 3.0 0.1 28 30
+ 1.11612 1 0 cbr 210 ------- 0 3.0 0.1 28 30
- 1.11612 1 0 cbr 210 ------- 0 3.0 0.1 28 30
+ 1.11625 3 1 cbr 210 ------- 0 3.0 0.1 31 36
- 1.11625 3 1 cbr 210 ------- 0 3.0 0.1 31 36
r 1.11862 0 1 cbr 210 ------- 1 0.0 2.0 2 31
+ 1.11862 1 2 cbr 210 ------- 1 0.0 2.0 2 31
- 1.11862 1 2 cbr 210 ------- 1 0.0 2.0 2 31
+ 1.11875 0 1 cbr 210 ------- 1 0.0 2.0 5 37
- 1.11875 0 1 cbr 210 ------- 1 0.0 2.0 5 37
r 1.11974 1 0 cbr 210 ------- 0 3.0 0.1 26 26
r 1.11987 3 1 cbr 210 ------- 0 3.0 0.1 29 32
+ 1.11987 1 0 cbr 210 ------- 0 3.0 0.1 29 32
- 1.11987 1 0 cbr 210 ------- 0 3.0 0.1 29 32
+ 1.12 3 1 cbr 210 ------- 0 3.0 0.1 32 38
- 1.12 3 1 cbr 210 ------- 0 3.0 0.1 32 38
r 1.12224 1 2 cbr 210 ------- 1 0.0 2.0 0 27
r 1.12237 0 1 cbr 210 ------- 1 0.0 2.0 3 33
+ 1.12237 1 2 cbr 210 ------- 1 0.0 2.0 3 33
- 1.12237 1 2 cbr 210 ------- 1 0.0 2.0 3 33
+ 1.1225 0 1 cbr 210 ------- 1 0.0 2.0 6 39
- 1.1225 0 1 cbr 210 ------- 1 0.0 2.0 6 39
r 1.12349 1 0 cbr 210 ------- 0 3.0 0.1 27 28
r 1.12362 3 1 cbr 210 ------- 0 3.0 0.1 30 34
+ 1.12362 1 0 cbr 210 ------- 0 3.0 0.1 30 34
- 1.12362 1 0 cbr 210 ------- 0 3.0 0.1 30 34
+ 1.12375 3 1 cbr 210 ------- 0 3.0 0.1 33 40
- 1.12375 3 1 cbr 210 ------- 0 3.0 0.1 33 40
r 1.12599 1 2 cbr 210 ------- 1 0.0 2.0 1 29
r 1.12612 0 1 cbr 210 ------- 1 0.0 2.0 4 35
+ 1.12612 1 2 cbr 210 ------- 1 0.0 2.0 4 35
- 1.12612 1 2 cbr 210 ------- 1 0.0 2.0 4 35
+ 1.12625 0 1 cbr 210 ------- 1 0.0 2.0 7 41
- 1.12625 0 1 cbr 210 ------- 1 0.0 2.0 7 41
r 1.12724 1 0 cbr 210 ------- 0 3.0 0.1 28 30
r 1.12737 3 1 cbr 210 ------- 0 3.0 0.1 31 36
+ 1.12737 1 0 cbr 210 ------- 0 3.0 0.1 31 36
- 1.12737 1 0 cbr 210 ------- 0 3.0 0.1 31 36
+ 1.1275 3 1 cbr 210 ------- 0 3.0 0.1 34 42
- 1.1275 3 1 cbr 210 ------- 0 3.0 0.1 34 42
r 1.12974 1 2 cbr 210 ------- 1 0.0 2.0 2 31
r 1.12987 0 1 cbr 210 ------- 1 0.0 2.0 5 37
+ 1.12987 1 2 cbr 210 ------- 1 0.0 2.0 5 37
- 1.12987 1 2 cbr 210 ------- 1 0.0 2.0 5 37
+ 1.13 0 1 cbr 210 ------- 1 0.0 2.0 8 43
- 1.13 0 1 cbr 210 ------- 1 0.0 2.0 8 43
r 1.13099 1 0 cbr 210 ------- 0 3.0 0.1 29 32
r 1.13112 3 1 cbr 210 ------- 0 3.0 0.1 32 38
+ 1.13112 1 0 cbr 210 ------- 0 3.0 0.1 32 38
- 1.13112 1 0 cbr 210 ------- 0 3.0 0.1 32 38
+ 1.13125 3 1 cbr 210 ------- 0 3.0 0.1 35 44
- 1.13125 3 1 cbr 210 ------- 0 3.0 0.1 35 44
r 1.13349 1 2 cbr 210 ------- 1 0.0 2.0 3 33
r 1.13362 0 1 cbr 210 ------- 1 0.0 2.0 6 39
+ 1.13362 1 2 cbr 210 ------- 1 0.0 2.0 6 39
- 1.13362 1 2 cbr 210 ------- 1 0.0 2.0 6 39
+ 1.13375 0 1 cbr 210 ------- 1 0.0 2.0 9 45
- 1.13375 0 1 cbr 210 ------- 1 0.0 2.0 9 45
r 1.13474 1 0 cbr 210 ------- 0 3.0 0.1 30 34
r 1.13487 3 1 cbr 210 ------- 0 3.0 0.1 33 40
+ 1.13487 1 0 cbr 210 ------- 0 3.0 0.1 33 40
- 1.13487 1 0 cbr 210 ------- 0 3.0 0.1 33 40
+ 1.135 3 1 cbr 210 ------- 0 3.0 0.1 36 46
- 1.135 3 1 cbr 210 ------- 0 3.0 0.1 36 46
r 1.13724 1 2 cbr 210 ------- 1 0.0 2.0 4 35
r 1.13737 0 1 cbr 210 ------- 1 0.0 2.0 7 41
+ 1.13737 1 2 cbr 210 ------- 1 0.0 2.0 7 41
- 1.13737 1 2 cbr 210 ------- 1 0.0 2.0 7 41
+ 1.1375 0 1 cbr 210 ------- 1 0.0 2.0 10 47
- 1.1375 0 1 cbr 210 ------- 1 0.0 2.0 10 47
r 1.13849 1 0 cbr 210 ------- 0 3.0 0.1 31 36
r 1.13862 3 1 cbr 210 ------- 0 3.0 0.1 34 42
+ 1.13862 1 0 cbr 210 ------- 0 3.0 0.1 34 42
- 1.13862 1 0 cbr 210 ------- 0 3.0 0.1 34 42
+ 1.13875 3 1 cbr 210 ------- 0 3.0 0.1 37 48
- 1.13875 3 1 cbr 210 ------- 0 3.0 0.1 37 48
r 1.14099 1 2 cbr 210 ------- 1 0.0 2.0 5 37
r 1.14112 0 1 cbr 210 ------- 1 0.0 2.0 8 43
+ 1.14112 1 2 cbr 210 ------- 1 0.0 2.0 8 43
- 1.14112 1 2 cbr 210 ------- 1 0.0 2.0 8 43
+ 1.14125 0 1 cbr 210 ------- 1 0.0 2.0 11 49
- 1.14125 0 1 cbr 210 ------- 1 0.0 2.0 11 49
r 1.14224 1 0 cbr 210 ------- 0 3.0 0.1 32 38
r 1.14237 3 1 cbr 210 ------- 0 3.0 0.1 35 44
+ 1.14237 1 0 cbr 210 ------- 0 3.0 0.1 35 44
- 1.14237 1 0 cbr 210 ------- 0 3.0 0.1 35 44
+ 1.1425 3 1 cbr 210 ------- 0 3.0 0.1 38 50
- 1.1425 3 1 cbr 210 ------- 0 3.0 0.1 38 50
r 1.14474 1 2 cbr 210 ------- 1 0.0 2.0 6 39
r 1.14487 0 1 cbr 210 ------- 1 0.0 2.0 9 45
+ 1.14487 1 2 cbr 210 ------- 1 0.0 2.0 9 45
- 1.14487 1 2 cbr 210 ------- 1 0.0 2.0 9 45
+ 1.145 0 1 cbr 210 ------- 1 0.0 2.0 12 51
- 1.145 0 1 cbr 210 ------- 1 0.0 2.0 12 51
r 1.14599 1 0 cbr 210 ------- 0 3.0 0.1 33 40
r 1.14612 3 1 cbr 210 ------- 0 3.0 0.1 36 46
+ 1.14612 1 0 cbr 210 ------- 0 3.0 0.1 36 46
- 1.14612 1 0 cbr 210 ------- 0 3.0 0.1 36 46
+ 1.14625 3 1 cbr 210 ------- 0 3.0 0.1 39 52
- 1.14625 3 1 cbr 210 ------- 0 3.0 0.1 39 52
r 1.14849 1 2 cbr 210 ------- 1 0.0 2.0 7 41
r 1.14862 0 1 cbr 210 ------- 1 0.0 2.0 10 47
+ 1.14862 1 2 cbr 210 ------- 1 0.0 2.0 10 47
- 1.14862 1 2 cbr 210 ------- 1 0.0 2.0 10 47
+ 1.14875 0 1 cbr 210 ------- 1 0.0 2.0 13 53
- 1.14875 0 1 cbr 210 ------- 1 0.0 2.0 13 53
r 1.14974 1 0 cbr 210 ------- 0 3.0 0.1 34 42
r 1.14987 3 1 cbr 210 ------- 0 3.0 0.1 37 48
+ 1.14987 1 0 cbr 210 ------- 0 3.0 0.1 37 48
- 1.14987 1 0 cbr 210 ------- 0 3.0 0.1 37 48
+ 1.15 3 1 cbr 210 ------- 0 3.0 0.1 40 54
- 1.15 3 1 cbr 210 ------- 0 3.0 0.1 40 54
r 1.15224 1 2 cbr 210 ------- 1 0.0 2.0 8 43
r 1.15237 0 1 cbr 210 ------- 1 0.0 2.0 11 49
+ 1.15237 1 2 cbr 210 ------- 1 0.0 2.0 11 49
- 1.15237 1 2 cbr 210 ------- 1 0.0 2.0 11 49
+ 1.1525 0 1 cbr 210 ------- 1 0.0 2.0 14 55
- 1.1525 0 1 cbr 210 ------- 1 0.0 2.0 14 55
r 1.15349 1 0 cbr 210 ------- 0 3.0 0.1 35 44
r 1.15362 3 1 cbr 210 ------- 0 3.0 0.1 38 50
+ 1.15362 1 0 cbr 210 ------- 0 3.0 0.1 38 50
- 1.15362 1 0 cbr 210 ------- 0 3.0 0.1 38 50
+ 1.15375 3 1 cbr 210 ------- 0 3.0 0.1 41 56
- 1.15375 3 1 cbr 210 ------- 0 3.0 0.1 41 56
r 1.15599 1 2 cbr 210 ------- 1 0.0 2.0 9 45
r 1.15612 0 1 cbr 210 ------- 1 0.0 2.0 12 51
+ 1.15612 1 2 cbr 210 ------- 1 0.0 2.0 12 51
- 1.15612 1 2 cbr 210 ------- 1 0.0 2.0 12 51
+ 1.15625 0 1 cbr 210 ------- 1 0.0 2.0 15 57
- 1.15625 0 1 cbr 210 ------- 1 0.0 2.0 15 57
r 1.15724 1 0 cbr 210 ------- 0 3.0 0.1 36 46
r 1.15737 3 1 cbr 210 ------- 0 3.0 0.1 39 52
+ 1.15737 1 0 cbr 210 ------- 0 3.0 0.1 39 52
- 1.15737 1 0 cbr 210 ------- 0 3.0 0.1 39 52
+ 1.1575 3 1 cbr 210 ------- 0 3.0 0.1 42 58
- 1.1575 3 1 cbr 210 ------- 0 3.0 0.1 42 58
r 1.15974 1 2 cbr 210 ------- 1 0.0 2.0 10 47
r 1.15987 0 1 cbr 210 ------- 1 0.0 2.0 13 53
+ 1.15987 1 2 cbr 210 ------- 1 0.0 2.0 13 53
- 1.15987 1 2 cbr 210 ------- 1 0.0 2.0 13 53
+ 1.16 0 1 cbr 210 ------- 1 0.0 2.0 16 59
- 1.16 0 1 cbr 210 ------- 1 0.0 2.0 16 59
r 1.16099 1 0 cbr 210 ------- 0 3.0 0.1 37 48
r 1.16112 3 1 cbr 210 ------- 0 3.0 0.1 40 54
+ 1.16112 1 0 cbr 210 ------- 0 3.0 0.1 40 54
- 1.16112 1 0 cbr 210 ------- 0 3.0 0.1 40 54
+ 1.16125 3 1 cbr 210 ------- 0 3.0 0.1 43 60
- 1.16125 3 1 cbr 210 ------- 0 3.0 0.1 43 60
r 1.16349 1 2 cbr 210 ------- 1 0.0 2.0 11 49
r 1.16362 0 1 cbr 210 ------- 1 0.0 2.0 14 55
+ 1.16362 1 2 cbr 210 ------- 1 0.0 2.0 14 55
- 1.16362 1 2 cbr 210 ------- 1 0.0 2.0 14 55
+ 1.16375 0 1 cbr 210 ------- 1 0.0 2.0 17 61
- 1.16375 0 1 cbr 210 ------- 1 0.0 2.0 17 61
r 1.16474 1 0 cbr 210 ------- 0 3.0 0.1 38 50
r 1.16487 3 1 cbr 210 ------- 0 3.0 0.1 41 56
+ 1.16487 1 0 cbr 210 ------- 0 3.0 0.1 41 56
- 1.16487 1 0 cbr 210 ------- 0 3.0 0.1 41 56
+ 1.165 3 1 cbr 210 ------- 0 3.0 0.1 44 62
- 1.165 3 1 cbr 210 ------- 0 3.0 0.1 44 62
r 1.16724 1 2 cbr 210 ------- 1 0.0 2.0 12 51
r 1.16737 0 1 cbr 210 ------- 1 0.0 2.0 15 57
+ 1.16737 1 2 cbr 210 ------- 1 0.0 2.0 15 57
- 1.16737 1 2 cbr 210 ------- 1 0.0 2.0 15 57
+ 1.1675 0 1 cbr 210 ------- 1 0.0 2.0 18 63
- 1.1675 0 1 cbr 210 ------- 1 0.0 2.0 18 63
r 1.16849 1 0 cbr 210 ------- 0 3.0 0.1 39 52
r 1.16862 3 1 cbr 210 ------- 0 3.0 0.1 42 58
+ 1.16862 1 0 cbr 210 ------- 0 3.0 0.1 42 58
- 1.16862 1 0 cbr 210 ------- 0 3.0 0.1 42 58
+ 1.16875 3 1 cbr 210 ------- 0 3.0 0.1 45 64
- 1.16875 3 1 cbr 210 ------- 0 3.0 0.1 45 64
r 1.17099 1 2 cbr 210 ------- 1 0.0 2.0 13 53
r 1.17112 0 1 cbr 210 ------- 1 0.0 2.0 16 59
+ 1.17112 1 2 cbr 210 ------- 1 0.0 2.0 16 59
- 1.17112 1 2 cbr 210 ------- 1 0.0 2.0 16 59
+ 1.17125 0 1 cbr 210 ------- 1 0.0 2.0 19 65
- 1.17125 0 1 cbr 210 ------- 1 0.0 2.0 19 65
r 1.17224 1 0 cbr 210 ------- 0 3.0 0.1 40 54
r 1.17237 3 1 cbr 210 ------- 0 3.0 0.1 43 60
+ 1.17237 1 0 cbr 210 ------- 0 3.0 0.1 43 60
- 1.17237 1 0 cbr 210 ------- 0 3.0 0.1 43 60
+ 1.1725 3 1 cbr 210 ------- 0 3.0 0.1 46 66
- 1.1725 3 1 cbr 210 ------- 0 3.0 0.1 46 66
r 1.17474 1 2 cbr 210 ------- 1 0.0 2.0 14 55
r 1.17487 0 1 cbr 210 ------- 1 0.0 2.0 17 61
+ 1.17487 1 2 cbr 210 ------- 1 0.0 2.0 17 61
- 1.17487 1 2 cbr 210 ------- 1 0.0 2.0 17 61
+ 1.175 0 1 cbr 210 ------- 1 0.0 2.0 20 67
- 1.175 0 1 cbr 210 ------- 1 0.0 2.0 20 67
r 1.17599 1 0 cbr 210 ------- 0 3.0 0.1 41 56
r 1.17612 3 1 cbr 210 ------- 0 3.0 0.1 44 62
+ 1.17612 1 0 cbr 210 ------- 0 3.0 0.1 44 62
- 1.17612 1 0 cbr 210 ------- 0 3.0 0.1 44 62
+ 1.17625 3 1 cbr 210 ------- 0 3.0 0.1 47 68
- 1.17625 3 1 cbr 210 ------- 0 3.0 0.1 47 68
r 1.17849 1 2 cbr 210 ------- 1 0.0 2.0 15 57
r 1.17862 0 1 cbr 210 ------- 1 0.0 2.0 18 63
+ 1.17862 1 2 cbr 210 ------- 1 0.0 2.0 18 63
- 1.17862 1 2 cbr 210 ------- 1 0.0 2.0 18 63
+ 1.17875 0 1 cbr 210 ------- 1 0.0 2.0 21 69
- 1.17875 0 1 cbr 210 ------- 1 0.0 2.0 21 69
r 1.17974 1 0 cbr 210 ------- 0 3.0 0.1 42 58
r 1.17987 3 1 cbr 210 ------- 0 3.0 0.1 45 64
+ 1.17987 1 0 cbr 210 ------- 0 3.0 0.1 45 64
- 1.17987 1 0 cbr 210 ------- 0 3.0 0.1 45 64
+ 1.18 3 1 cbr 210 ------- 0 3.0 0.1 48 70
- 1.18 3 1 cbr 210 ------- 0 3.0 0.1 48 70
r 1.18224 1 2 cbr 210 ------- 1 0.0 2.0 16 59
r 1.18237 0 1 cbr 210 ------- 1 0.0 2.0 19 65
+ 1.18237 1 2 cbr 210 ------- 1 0.0 2.0 19 65
- 1.18237 1 2 cbr 210 ------- 1 0.0 2.0 19 65
+ 1.1825 0 1 cbr 210 ------- 1 0.0 2.0 22 71
- 1.1825 0 1 cbr 210 ------- 1 0.0 2.0 22 71
r 1.18349 1 0 cbr 210 ------- 0 3.0 0.1 43 60
r 1.18362 3 1 cbr 210 ------- 0 3.0 0.1 46 66
+ 1.18362 1 0 cbr 210 ------- 0 3.0 0.1 46 66
- 1.18362 1 0 cbr 210 ------- 0 3.0 0.1 46 66
+ 1.18375 3 1 cbr 210 ------- 0 3.0 0.1 49 72
- 1.18375 3 1 cbr 210 ------- 0 3.0 0.1 49 72
r 1.18599 1 2 cbr 210 ------- 1 0.0 2.0 17 61
r 1.18612 0 1 cbr 210 ------- 1 0.0 2.0 20 67
+ 1.18612 1 2 cbr 210 ------- 1 0.0 2.0 20 67
- 1.18612 1 2 cbr 210 ------- 1 0.0 2.0 20 67
+ 1.18625 0 1 cbr 210 ------- 1 0.0 2.0 23 73
- 1.18625 0 1 cbr 210 ------- 1 0.0 2.0 23 73
r 1.18724 1 0 cbr 210 ------- 0 3.0 0.1 44 62
r 1.18737 3 1 cbr 210 ------- 0 3.0 0.1 47 68
+ 1.18737 1 0 cbr 210 ------- 0 3.0 0.1 47 68
- 1.18737 1 0 cbr 210 ------- 0 3.0 0.1 47 68
+ 1.1875 3 1 cbr 210 ------- 0 3.0 0.1 50 74
- 1.1875 3 1 cbr 210 ------- 0 3.0 0.1 50 74
r 1.18974 1 2 cbr 210 ------- 1 0.0 2.0 18 63
r 1.18987 0 1 cbr 210 ------- 1 0.0 2.0 21 69
+ 1.18987 1 2 cbr 210 ------- 1 0.0 2.0 21 69
- 1.18987 1 2 cbr 210 ------- 1 0.0 2.0 21 69
+ 1.19 0 1 cbr 210 ------- 1 0.0 2.0 24 75
- 1.19 0 1 cbr 210 ------- 1 0.0 2.0 24 75
r 1.19099 1 0 cbr 210 ------- 0 3.0 0.1 45 64
r 1.19112 3 1 cbr 210 ------- 0 3.0 0.1 48 70
+ 1.19112 1 0 cbr 210 ------- 0 3.0 0.1 48 70
- 1.19112 1 0 cbr 210 ------- 0 3.0 0.1 48 70
+ 1.19125 3 1 cbr 210 ------- 0 3.0 0.1 51 76
- 1.19125 3 1 cbr 210 ------- 0 3.0 0.1 51 76
r 1.19349 1 2 cbr 210 ------- 1 0.0 2.0 19 65
r 1.19362 0 1 cbr 210 ------- 1 0.0 2.0 22 71
+ 1.19362 1 2 cbr 210 ------- 1 0.0 2.0 22 71
- 1.19362 1 2 cbr 210 ------- 1 0.0 2.0 22 71
+ 1.19375 0 1 cbr 210 ------- 1 0.0 2.0 25 77
- 1.19375 0 1 cbr 210 ------- 1 0.0 2.0 25 77
r 1.19474 1 0 cbr 210 ------- 0 3.0 0.1 46 66
r 1.19487 3 1 cbr 210 ------- 0 3.0 0.1 49 72
+ 1.19487 1 0 cbr 210 ------- 0 3.0 0.1 49 72
- 1.19487 1 0 cbr 210 ------- 0 3.0 0.1 49 72
+ 1.195 3 1 cbr 210 ------- 0 3.0 0.1 52 78
- 1.195 3 1 cbr 210 ------- 0 3.0 0.1 52 78
r 1.19724 1 2 cbr 210 ------- 1 0.0 2.0 20 67
r 1.19737 0 1 cbr 210 ------- 1 0.0 2.0 23 73
+ 1.19737 1 2 cbr 210 ------- 1 0.0 2.0 23 73
- 1.19737 1 2 cbr 210 ------- 1 0.0 2.0 23 73
+ 1.1975 0 1 cbr 210 ------- 1 0.0 2.0 26 79
- 1.1975 0 1 cbr 210 ------- 1 0.0 2.0 26 79
r 1.19849 1 0 cbr 210 ------- 0 3.0 0.1 47 68
r 1.19862 3 1 cbr 210 ------- 0 3.0 0.1 50 74
+ 1.19862 1 0 cbr 210 ------- 0 3.0 0.1 50 74
- 1.19862 1 0 cbr 210 ------- 0 3.0 0.1 50 74
+ 1.19875 3 1 cbr 210 ------- 0 3.0 0.1 53 80
- 1.19875 3 1 cbr 210 ------- 0 3.0 0.1 53 80
+ 1.2 0 1 tcp 1000 ------- 2 0.2 3.1 0 81
- 1.2 0 1 tcp 1000 ------- 2 0.2 3.1 0 81
r 1.20099 1 2 cbr 210 ------- 1 0.0 2.0 21 69
r 1.20112 0 1 cbr 210 ------- 1 0.0 2.0 24 75
+ 1.20112 1 2 cbr 210 ------- 1 0.0 2.0 24 75
- 1.20112 1 2 cbr 210 ------- 1 0.0 2.0 24 75
+ 1.20125 0 1 cbr 210 ------- 1 0.0 2.0 27 82
r 1.20224 1 0 cbr 210 ------- 0 3.0 0.1 48 70
r 1.20237 3 1 cbr 210 ------- 0 3.0 0.1 51 76
+ 1.20237 1 0 cbr 210 ------- 0 3.0 0.1 51 76
- 1.20237 1 0 cbr 210 ------- 0 3.0 0.1 51 76
+ 1.2025 3 1 cbr 210 ------- 0 3.0 0.1 54 83
- 1.2025 3 1 cbr 210 ------- 0 3.0 0.1 54 83
r 1.20474 1 2 cbr 210 ------- 1 0.0 2.0 22 71
r 1.20487 0 1 cbr 210 ------- 1 0.0 2.0 25 77
+ 1.20487 1 2 cbr 210 ------- 1 0.0 2.0 25 77
- 1.20487 1 2 cbr 210 ------- 1 0.0 2.0 25 77
+ 1.205 0 1 cbr 210 ------- 1 0.0 2.0 28 84
- 1.205333 0 1 cbr 210 ------- 1 0.0 2.0 27 82
r 1.20599 1 0 cbr 210 ------- 0 3.0 0.1 49 72
r 1.20612 3 1 cbr 210 ------- 0 3.0 0.1 52 78
+ 1.20612 1 0 cbr 210 ------- 0 3.0 0.1 52 78
- 1.20612 1 0 cbr 210 ------- 0 3.0 0.1 52 78
+ 1.20625 3 1 cbr 210 ------- 0 3.0 0.1 55 85
- 1.20625 3 1 cbr 210 ------- 0 3.0 0.1 55 85
- 1.206453 0 1 cbr 210 ------- 1 0.0 2.0 28 84
r 1.20849 1 2 cbr 210 ------- 1 0.0 2.0 23 73
r 1.20862 0 1 cbr 210 ------- 1 0.0 2.0 26 79
+ 1.20862 1 2 cbr 210 ------- 1 0.0 2.0 26 79
- 1.20862 1 2 cbr 210 ------- 1 0.0 2.0 26 79
+ 1.20875 0 1 cbr 210 ------- 1 0.0 2.0 29 86
- 1.20875 0 1 cbr 210 ------- 1 0.0 2.0 29 86
r 1.20974 1 0 cbr 210 ------- 0 3.0 0.1 50 74
r 1.20987 3 1 cbr 210 ------- 0 3.0 0.1 53 80
+ 1.20987 1 0 cbr 210 ------- 0 3.0 0.1 53 80
- 1.20987 1 0 cbr 210 ------- 0 3.0 0.1 53 80
+ 1.21 3 1 cbr 210 ------- 0 3.0 0.1 56 87
- 1.21 3 1 cbr 210 ------- 0 3.0 0.1 56 87
r 1.21224 1 2 cbr 210 ------- 1 0.0 2.0 24 75
+ 1.2125 0 1 cbr 210 ------- 1 0.0 2.0 30 88
- 1.2125 0 1 cbr 210 ------- 1 0.0 2.0 30 88
r 1.21349 1 0 cbr 210 ------- 0 3.0 0.1 51 76
r 1.21362 3 1 cbr 210 ------- 0 3.0 0.1 54 83
+ 1.21362 1 0 cbr 210 ------- 0 3.0 0.1 54 83
- 1.21362 1 0 cbr 210 ------- 0 3.0 0.1 54 83
+ 1.21375 3 1 cbr 210 ------- 0 3.0 0.1 57 89
- 1.21375 3 1 cbr 210 ------- 0 3.0 0.1 57 89
r 1.215333 0 1 tcp 1000 ------- 2 0.2 3.1 0 81
+ 1.215333 1 3 tcp 1000 ------- 2 0.2 3.1 0 81
- 1.215333 1 3 tcp 1000 ------- 2 0.2 3.1 0 81
r 1.21599 1 2 cbr 210 ------- 1 0.0 2.0 25 77
+ 1.21625 0 1 cbr 210 ------- 1 0.0 2.0 31 90
- 1.21625 0 1 cbr 210 ------- 1 0.0 2.0 31 90
r 1.216453 0 1 cbr 210 ------- 1 0.0 2.0 27 82
+ 1.216453 1 2 cbr 210 ------- 1 0.0 2.0 27 82
- 1.216453 1 2 cbr 210 ------- 1 0.0 2.0 27 82
r 1.21724 1 0 cbr 210 ------- 0 3.0 0.1 52 78
r 1.21737 3 1 cbr 210 ------- 0 3.0 0.1 55 85
+ 1.21737 1 0 cbr 210 ------- 0 3.0 0.1 55 85
- 1.21737 1 0 cbr 210 ------- 0 3.0 0.1 55 85
+ 1.2175 3 1 cbr 210 ------- 0 3.0 0.1 58 91
- 1.2175 3 1 cbr 210 ------- 0 3.0 0.1 58 91
r 1.217573 0 1 cbr 210 ------- 1 0.0 2.0 28 84
+ 1.217573 1 2 cbr 210 ------- 1 0.0 2.0 28 84
- 1.217573 1 2 cbr 210 ------- 1 0.0 2.0 28 84
r 1.21974 1 2 cbr 210 ------- 1 0.0 2.0 26 79
r 1.21987 0 1 cbr 210 ------- 1 0.0 2.0 29 86
+ 1.21987 1 2 cbr 210 ------- 1 0.0 2.0 29 86
- 1.21987 1 2 cbr 210 ------- 1 0.0 2.0 29 86
+ 1.22 0 1 cbr 210 ------- 1 0.0 2.0 32 92
- 1.22 0 1 cbr 210 ------- 1 0.0 2.0 32 92
r 1.22099 1 0 cbr 210 ------- 0 3.0 0.1 53 80
r 1.22112 3 1 cbr 210 ------- 0 3.0 0.1 56 87
+ 1.22112 1 0 cbr 210 ------- 0 3.0 0.1 56 87
- 1.22112 1 0 cbr 210 ------- 0 3.0 0.1 56 87
+ 1.22125 3 1 cbr 210 ------- 0 3.0 0.1 59 93
- 1.22125 3 1 cbr 210 ------- 0 3.0 0.1 59 93
r 1.22362 0 1 cbr 210 ------- 1 0.0 2.0 30 88
+ 1.22362 1 2 cbr 210 ------- 1 0.0 2.0 30 88
- 1.22362 1 2 cbr 210 ------- 1 0.0 2.0 30 88
+ 1.22375 0 1 cbr 210 ------- 1 0.0 2.0 33 94
- 1.22375 0 1 cbr 210 ------- 1 0.0 2.0 33 94
r 1.22474 1 0 cbr 210 ------- 0 3.0 0.1 54 83
r 1.22487 3 1 cbr 210 ------- 0 3.0 0.1 57 89
+ 1.22487 1 0 cbr 210 ------- 0 3.0 0.1 57 89
- 1.22487 1 0 cbr 210 ------- 0 3.0 0.1 57 89
+ 1.225 3 1 cbr 210 ------- 0 3.0 0.1 60 95
- 1.225 3 1 cbr 210 ------- 0 3.0 0.1 60 95
r 1.22737 0 1 cbr 210 ------- 1 0.0 2.0 31 90
+ 1.22737 1 2 cbr 210 ------- 1 0.0 2.0 31 90
- 1.22737 1 2 cbr 210 ------- 1 0.0 2.0 31 90
+ 1.2275 0 1 cbr 210 ------- 1 0.0 2.0 34 96
- 1.2275 0 1 cbr 210 ------- 1 0.0 2.0 34 96
r 1.227573 1 2 cbr 210 ------- 1 0.0 2.0 27 82
r 1.22849 1 0 cbr 210 ------- 0 3.0 0.1 55 85
r 1.22862 3 1 cbr 210 ------- 0 3.0 0.1 58 91
+ 1.22862 1 0 cbr 210 ------- 0 3.0 0.1 58 91
- 1.22862 1 0 cbr 210 ------- 0 3.0 0.1 58 91
r 1.228693 1 2 cbr 210 ------- 1 0.0 2.0 28 84
+ 1.22875 3 1 cbr 210 ------- 0 3.0 0.1 61 97
- 1.22875 3 1 cbr 210 ------- 0 3.0 0.1 61 97
r 1.230667 1 3 tcp 1000 ------- 2 0.2 3.1 0 81
+ 1.230667 3 1 ack 40 ------- 2 3.1 0.2 0 98
- 1.230667 3 1 ack 40 ------- 2 3.1 0.2 0 98
r 1.23099 1 2 cbr 210 ------- 1 0.0 2.0 29 86
r 1.23112 0 1 cbr 210 ------- 1 0.0 2.0 32 92
+ 1.23112 1 2 cbr 210 ------- 1 0.0 2.0 32 92
- 1.23112 1 2 cbr 210 ------- 1 0.0 2.0 32 92
+ 1.23125 0 1 cbr 210 ------- 1 0.0 2.0 35 99
- 1.23125 0 1 cbr 210 ------- 1 0.0 2.0 35 99
r 1.23224 1 0 cbr 210 ------- 0 3.0 0.1 56 87
r 1.23237 3 1 cbr 210 ------- 0 3.0 0.1 59 93
+ 1.23237 1 0 cbr 210 ------- 0 3.0 0.1 59 93
- 1.23237 1 0 cbr 210 ------- 0 3.0 0.1 59 93
+ 1.2325 3 1 cbr 210 ------- 0 3.0 0.1 62 100
- 1.2325 3 1 cbr 210 ------- 0 3.0 0.1 62 100
r 1.23474 1 2 cbr 210 ------- 1 0.0 2.0 30 88
r 1.23487 0 1 cbr 210 ------- 1 0.0 2.0 33 94
+ 1.23487 1 2 cbr 210 ------- 1 0.0 2.0 33 94
- 1.23487 1 2 cbr 210 ------- 1 0.0 2.0 33 94
+ 1.235 0 1 cbr 210 ------- 1 0.0 2.0 36 101
- 1.235 0 1 cbr 210 ------- 1 0.0 2.0 36 101
r 1.23599 1 0 cbr 210 ------- 0 3.0 0.1 57 89
r 1.23612 3 1 cbr 210 ------- 0 3.0 0.1 60 95
+ 1.23612 1 0 cbr 210 ------- 0 3.0 0.1 60 95
- 1.23612 1 0 cbr 210 ------- 0 3.0 0.1 60 95
+ 1.23625 3 1 cbr 210 ------- 0 3.0 0.1 63 102
- 1.23625 3 1 cbr 210 ------- 0 3.0 0.1 63 102
r 1.23849 1 2 cbr 210 ------- 1 0.0 2.0 31 90
r 1.23862 0 1 cbr 210 ------- 1 0.0 2.0 34 96
+ 1.23862 1 2 cbr 210 ------- 1 0.0 2.0 34 96
- 1.23862 1 2 cbr 210 ------- 1 0.0 2.0 34 96
+ 1.23875 0 1 cbr 210 ------- 1 0.0 2.0 37 103
- 1.23875 0 1 cbr 210 ------- 1 0.0 2.0 37 103
r 1.23974 1 0 cbr 210 ------- 0 3.0 0.1 58 91
r 1.23987 3 1 cbr 210 ------- 0 3.0 0.1 61 97
+ 1.23987 1 0 cbr 210 ------- 0 3.0 0.1 61 97
- 1.23987 1 0 cbr 210 ------- 0 3.0 0.1 61 97
+ 1.24 3 1 cbr 210 ------- 0 3.0 0.1 64 104
- 1.24 3 1 cbr 210 ------- 0 3.0 0.1 64 104
r 1.24088 3 1 ack 40 ------- 2 3.1 0.2 0 98
+ 1.24088 1 0 ack 40 ------- 2 3.1 0.2 0 98
- 1.24099 1 0 ack 40 ------- 2 3.1 0.2 0 98
r 1.24224 1 2 cbr 210 ------- 1 0.0 2.0 32 92
r 1.24237 0 1 cbr 210 ------- 1 0.0 2.0 35 99
+ 1.24237 1 2 cbr 210 ------- 1 0.0 2.0 35 99
- 1.24237 1 2 cbr 210 ------- 1 0.0 2.0 35 99
+ 1.2425 0 1 cbr 210 ------- 1 0.0 2.0 38 105
- 1.2425 0 1 cbr 210 ------- 1 0.0 2.0 38 105
r 1.24349 1 0 cbr 210 ------- 0 3.0 0.1 59 93
r 1.24362 3 1 cbr 210 ------- 0 3.0 0.1 62 100
+ 1.24362 1 0 cbr 210 ------- 0 3.0 0.1 62 100
- 1.24362 1 0 cbr 210 ------- 0 3.0 0.1 62 100
+ 1.24375 3 1 cbr 210 ------- 0 3.0 0.1 65 106
- 1.24375 3 1 cbr 210 ------- 0 3.0 0.1 65 106
r 1.24599 1 2 cbr 210 ------- 1 0.0 2.0 33 94
r 1.24612 0 1 cbr 210 ------- 1 0.0 2.0 36 101
+ 1.24612 1 2 cbr 210 ------- 1 0.0 2.0 36 101
- 1.24612 1 2 cbr 210 ------- 1 0.0 2.0 36 101
+ 1.24625 0 1 cbr 210 ------- 1 0.0 2.0 39 107
- 1.24625 0 1 cbr 210 ------- 1 0.0 2.0 39 107
r 1.24724 1 0 cbr 210 ------- 0 3.0 0.1 60 95
r 1.24737 3 1 cbr 210 ------- 0 3.0 0.1 63 102
+ 1.24737 1 0 cbr 210 ------- 0 3.0 0.1 63 102
- 1.24737 1 0 cbr 210 ------- 0 3.0 0.1 63 102
+ 1.2475 3 1 cbr 210 ------- 0 3.0 0.1 66 108
- 1.2475 3 1 cbr 210 ------- 0 3.0 0.1 66 108
r 1.24974 1 2 cbr 210 ------- 1 0.0 2.0 34 96
r 1.24987 0 1 cbr 210 ------- 1 0.0 2.0 37 103
+ 1.24987 1 2 cbr 210 ------- 1 0.0 2.0 37 103
- 1.24987 1 2 cbr 210 ------- 1 0.0 2.0 37 103
+ 1.25 0 1 cbr 210 ------- 1 0.0 2.0 40 109
- 1.25 0 1 cbr 210 ------- 1 0.0 2.0 40 109
r 1.25099 1 0 cbr 210 ------- 0 3.0 0.1 61 97
r 1.25112 3 1 cbr 210 ------- 0 3.0 0.1 64 104
+ 1.25112 1 0 cbr 210 ------- 0 3.0 0.1 64 104
- 1.25112 1 0 cbr 210 ------- 0 3.0 0.1 64 104
r 1.251203 1 0 ack 40 ------- 2 3.1 0.2 0 98
+ 1.251203 0 1 tcp 1000 ------- 2 0.2 3.1 1 110
- 1.251203 0 1 tcp 1000 ------- 2 0.2 3.1 1 110
+ 1.251203 0 1 tcp 1000 ------- 2 0.2 3.1 2 111
+ 1.25125 3 1 cbr 210 ------- 0 3.0 0.1 67 112
- 1.25125 3 1 cbr 210 ------- 0 3.0 0.1 67 112
r 1.25349 1 2 cbr 210 ------- 1 0.0 2.0 35 99
r 1.25362 0 1 cbr 210 ------- 1 0.0 2.0 38 105
+ 1.25362 1 2 cbr 210 ------- 1 0.0 2.0 38 105
- 1.25362 1 2 cbr 210 ------- 1 0.0 2.0 38 105
+ 1.25375 0 1 cbr 210 ------- 1 0.0 2.0 41 113
r 1.25474 1 0 cbr 210 ------- 0 3.0 0.1 62 100
r 1.25487 3 1 cbr 210 ------- 0 3.0 0.1 65 106
+ 1.25487 1 0 cbr 210 ------- 0 3.0 0.1 65 106
- 1.25487 1 0 cbr 210 ------- 0 3.0 0.1 65 106
+ 1.255 3 1 cbr 210 ------- 0 3.0 0.1 68 114
- 1.255 3 1 cbr 210 ------- 0 3.0 0.1 68 114
- 1.256537 0 1 tcp 1000 ------- 2 0.2 3.1 2 111
r 1.25724 1 2 cbr 210 ------- 1 0.0 2.0 36 101
r 1.25737 0 1 cbr 210 ------- 1 0.0 2.0 39 107
+ 1.25737 1 2 cbr 210 ------- 1 0.0 2.0 39 107
- 1.25737 1 2 cbr 210 ------- 1 0.0 2.0 39 107
+ 1.2575 0 1 cbr 210 ------- 1 0.0 2.0 42 115
r 1.25849 1 0 cbr 210 ------- 0 3.0 0.1 63 102
r 1.25862 3 1 cbr 210 ------- 0 3.0 0.1 66 108
+ 1.25862 1 0 cbr 210 ------- 0 3.0 0.1 66 108