+ 0 0 2 tcp 40 ------- 1 0.0 3.0 0 0 0 0x0 0 0
- 0 0 2 tcp 40 ------- 1 0.0 3.0 0 0 0 0x0 0 0
r 4e-05 0 2 tcp 40 ------- 1 0.0 3.0 0 0 0 0x0 0 0
+ 4e-05 2 3 tcp 40 ------- 1 0.0 3.0 0 0 0 0x0 0 0
- 4e-05 2 3 tcp 40 ------- 1 0.0 3.0 0 0 0 0x0 0 0
r 0.10044 2 3 tcp 40 ------- 1 0.0 3.0 0 0 0 0x0 0 0
+ 0.10044 3 2 ack 40 ------- 1 3.0 0.0 0 1 0 0x0 0 0
- 0.10044 3 2 ack 40 ------- 1 3.0 0.0 0 1 0 0x0 0 0
r 0.20084 3 2 ack 40 ------- 1 3.0 0.0 0 1 0 0x0 0 0
+ 0.20084 2 0 ack 40 ------- 1 3.0 0.0 0 1 0 0x0 0 0
- 0.20084 2 0 ack 40 ------- 1 3.0 0.0 0 1 0 0x0 0 0
r 0.20088 2 0 ack 40 ------- 1 3.0 0.0 0 1 0 0x0 0 0
+ 0.20088 0 2 tcp 1050 ------- 1 0.0 3.0 1 2 0 0x0 0 0
- 0.20088 0 2 tcp 1050 ------- 1 0.0 3.0 1 2 0 0x0 0 0
+ 0.20088 0 2 tcp 1050 ------- 1 0.0 3.0 2 3 0 0x0 0 0
r 0.20193 0 2 tcp 1050 ------- 1 0.0 3.0 1 2 0 0x0 0 0
+ 0.20193 2 3 tcp 1050 ------- 1 0.0 3.0 1 2 0 0x0 0 0
- 0.20193 2 3 tcp 1050 ------- 1 0.0 3.0 1 2 0 0x0 0 0
- 0.20193 0 2 tcp 1050 ------- 1 0.0 3.0 2 3 0 0x0 0 0
r 0.20298 0 2 tcp 1050 ------- 1 0.0 3.0 2 3 0 0x0 0 0
+ 0.20298 2 3 tcp 1050 ------- 1 0.0 3.0 2 3 0 0x0 0 0
- 0.21243 2 3 tcp 1050 ------- 1 0.0 3.0 2 3 0 0x0 0 0
r 0.31243 2 3 tcp 1050 ------- 1 0.0 3.0 1 2 0 0x0 0 0
+ 0.31243 3 2 ack 40 ------- 1 3.0 0.0 1 4 0 0x0 0 0
- 0.31243 3 2 ack 40 ------- 1 3.0 0.0 1 4 0 0x0 0 0
r 0.32293 2 3 tcp 1050 ------- 1 0.0 3.0 2 3 0 0x0 0 0
+ 0.32293 3 2 ack 40 ------- 1 3.0 0.0 2 5 0 0x0 0 0
- 0.32293 3 2 ack 40 ------- 1 3.0 0.0 2 5 0 0x0 0 0
r 0.41283 3 2 ack 40 ------- 1 3.0 0.0 1 4 0 0x0 0 0
+ 0.41283 2 0 ack 40 ------- 1 3.0 0.0 1 4 0 0x0 0 0
- 0.41283 2 0 ack 40 ------- 1 3.0 0.0 1 4 0 0x0 0 0
r 0.41287 2 0 ack 40 ------- 1 3.0 0.0 1 4 0 0x0 0 0
+ 0.41287 0 2 tcp 1050 ------- 1 0.0 3.0 3 6 0 0x0 0 0
- 0.41287 0 2 tcp 1050 ------- 1 0.0 3.0 3 6 0 0x0 0 0
+ 0.41287 0 2 tcp 1050 ------- 1 0.0 3.0 4 7 0 0x0 0 0
r 0.41392 0 2 tcp 1050 ------- 1 0.0 3.0 3 6 0 0x0 0 0
+ 0.41392 2 3 tcp 1050 ------- 1 0.0 3.0 3 6 0 0x0 0 0
- 0.41392 2 3 tcp 1050 ------- 1 0.0 3.0 3 6 0 0x0 0 0
- 0.41392 0 2 tcp 1050 ------- 1 0.0 3.0 4 7 0 0x0 0 0
r 0.41497 0 2 tcp 1050 ------- 1 0.0 3.0 4 7 0 0x0 0 0
+ 0.41497 2 3 tcp 1050 ------- 1 0.0 3.0 4 7 0 0x0 0 0
r 0.42333 3 2 ack 40 ------- 1 3.0 0.0 2 5 0 0x0 0 0
+ 0.42333 2 0 ack 40 ------- 1 3.0 0.0 2 5 0 0x0 0 0
- 0.42333 2 0 ack 40 ------- 1 3.0 0.0 2 5 0 0x0 0 0
r 0.42337 2 0 ack 40 ------- 1 3.0 0.0 2 5 0 0x0 0 0
+ 0.42337 0 2 tcp 1050 ------- 1 0.0 3.0 5 8 0 0x0 0 0
- 0.42337 0 2 tcp 1050 ------- 1 0.0 3.0 5 8 0 0x0 0 0
+ 0.42337 0 2 tcp 1050 ------- 1 0.0 3.0 6 9 0 0x0 0 0
- 0.42442 2 3 tcp 1050 ------- 1 0.0 3.0 4 7 0 0x0 0 0
r 0.42442 0 2 tcp 1050 ------- 1 0.0 3.0 5 8 0 0x0 0 0
+ 0.42442 2 3 tcp 1050 ------- 1 0.0 3.0 5 8 0 0x0 0 0
- 0.42442 0 2 tcp 1050 ------- 1 0.0 3.0 6 9 0 0x0 0 0
r 0.42547 0 2 tcp 1050 ------- 1 0.0 3.0 6 9 0 0x0 0 0
+ 0.42547 2 3 tcp 1050 ------- 1 0.0 3.0 6 9 0 0x0 0 0
- 0.43492 2 3 tcp 1050 ------- 1 0.0 3.0 5 8 0 0x0 0 0
- 0.44542 2 3 tcp 1050 ------- 1 0.0 3.0 6 9 0 0x0 0 0
r 0.52442 2 3 tcp 1050 ------- 1 0.0 3.0 3 6 0 0x0 0 0
+ 0.52442 3 2 ack 40 ------- 1 3.0 0.0 3 10 0 0x0 0 0
- 0.52442 3 2 ack 40 ------- 1 3.0 0.0 3 10 0 0x0 0 0
r 0.53492 2 3 tcp 1050 ------- 1 0.0 3.0 4 7 0 0x0 0 0
+ 0.53492 3 2 ack 40 ------- 1 3.0 0.0 4 11 0 0x0 0 0
- 0.53492 3 2 ack 40 ------- 1 3.0 0.0 4 11 0 0x0 0 0
r 0.54542 2 3 tcp 1050 ------- 1 0.0 3.0 5 8 0 0x0 0 0
+ 0.54542 3 2 ack 40 ------- 1 3.0 0.0 5 12 0 0x0 0 0
- 0.54542 3 2 ack 40 ------- 1 3.0 0.0 5 12 0 0x0 0 0
r 0.55592 2 3 tcp 1050 ------- 1 0.0 3.0 6 9 0 0x0 0 0
+ 0.55592 3 2 ack 40 ------- 1 3.0 0.0 6 13 0 0x0 0 0
- 0.55592 3 2 ack 40 ------- 1 3.0 0.0 6 13 0 0x0 0 0
r 0.62482 3 2 ack 40 ------- 1 3.0 0.0 3 10 0 0x0 0 0
+ 0.62482 2 0 ack 40 ------- 1 3.0 0.0 3 10 0 0x0 0 0
- 0.62482 2 0 ack 40 ------- 1 3.0 0.0 3 10 0 0x0 0 0
r 0.62486 2 0 ack 40 ------- 1 3.0 0.0 3 10 0 0x0 0 0
+ 0.62486 0 2 tcp 1050 ------- 1 0.0 3.0 7 14 0 0x0 0 0
- 0.62486 0 2 tcp 1050 ------- 1 0.0 3.0 7 14 0 0x0 0 0
+ 0.62486 0 2 tcp 1050 ------- 1 0.0 3.0 8 15 0 0x0 0 0
r 0.62591 0 2 tcp 1050 ------- 1 0.0 3.0 7 14 0 0x0 0 0
d 0.62591 2 3 tcp 1050 ------- 1 0.0 3.0 7 14 0 0x0 0 0
- 0.62591 0 2 tcp 1050 ------- 1 0.0 3.0 8 15 0 0x0 0 0
r 0.62696 0 2 tcp 1050 ------- 1 0.0 3.0 8 15 0 0x0 0 0
d 0.62696 2 3 tcp 1050 ------- 1 0.0 3.0 8 15 0 0x0 0 0
r 0.63532 3 2 ack 40 ------- 1 3.0 0.0 4 11 0 0x0 0 0
+ 0.63532 2 0 ack 40 ------- 1 3.0 0.0 4 11 0 0x0 0 0
- 0.63532 2 0 ack 40 ------- 1 3.0 0.0 4 11 0 0x0 0 0
r 0.63536 2 0 ack 40 ------- 1 3.0 0.0 4 11 0 0x0 0 0
+ 0.63536 0 2 tcp 1050 ------- 1 0.0 3.0 9 16 0 0x0 0 0
- 0.63536 0 2 tcp 1050 ------- 1 0.0 3.0 9 16 0 0x0 0 0
+ 0.63536 0 2 tcp 1050 ------- 1 0.0 3.0 10 17 0 0x0 0 0
r 0.63641 0 2 tcp 1050 ------- 1 0.0 3.0 9 16 0 0x0 0 0
d 0.63641 2 3 tcp 1050 ------- 1 0.0 3.0 9 16 0 0x0 0 0
- 0.63641 0 2 tcp 1050 ------- 1 0.0 3.0 10 17 0 0x0 0 0
r 0.63746 0 2 tcp 1050 ------- 1 0.0 3.0 10 17 0 0x0 0 0
d 0.63746 2 3 tcp 1050 ------- 1 0.0 3.0 10 17 0 0x0 0 0
r 0.64582 3 2 ack 40 ------- 1 3.0 0.0 5 12 0 0x0 0 0
+ 0.64582 2 0 ack 40 ------- 1 3.0 0.0 5 12 0 0x0 0 0
- 0.64582 2 0 ack 40 ------- 1 3.0 0.0 5 12 0 0x0 0 0
r 0.64586 2 0 ack 40 ------- 1 3.0 0.0 5 12 0 0x0 0 0
+ 0.64586 0 2 tcp 1050 ------- 1 0.0 3.0 11 18 0 0x0 0 0
- 0.64586 0 2 tcp 1050 ------- 1 0.0 3.0 11 18 0 0x0 0 0
+ 0.64586 0 2 tcp 1050 ------- 1 0.0 3.0 12 19 0 0x0 0 0
r 0.64691 0 2 tcp 1050 ------- 1 0.0 3.0 11 18 0 0x0 0 0
d 0.64691 2 3 tcp 1050 ------- 1 0.0 3.0 11 18 0 0x0 0 0
- 0.64691 0 2 tcp 1050 ------- 1 0.0 3.0 12 19 0 0x0 0 0
r 0.64796 0 2 tcp 1050 ------- 1 0.0 3.0 12 19 0 0x0 0 0
d 0.64796 2 3 tcp 1050 ------- 1 0.0 3.0 12 19 0 0x0 0 0
r 0.65632 3 2 ack 40 ------- 1 3.0 0.0 6 13 0 0x0 0 0
+ 0.65632 2 0 ack 40 ------- 1 3.0 0.0 6 13 0 0x0 0 0
- 0.65632 2 0 ack 40 ------- 1 3.0 0.0 6 13 0 0x0 0 0
r 0.65636 2 0 ack 40 ------- 1 3.0 0.0 6 13 0 0x0 0 0
+ 0.65636 0 2 tcp 1050 ------- 1 0.0 3.0 13 20 0 0x0 0 0
- 0.65636 0 2 tcp 1050 ------- 1 0.0 3.0 13 20 0 0x0 0 0
+ 0.65636 0 2 tcp 1050 ------- 1 0.0 3.0 14 21 0 0x0 0 0
r 0.65741 0 2 tcp 1050 ------- 1 0.0 3.0 13 20 0 0x0 0 0
d 0.65741 2 3 tcp 1050 ------- 1 0.0 3.0 13 20 0 0x0 0 0
- 0.65741 0 2 tcp 1050 ------- 1 0.0 3.0 14 21 0 0x0 0 0
r 0.65846 0 2 tcp 1050 ------- 1 0.0 3.0 14 21 0 0x0 0 0
d 0.65846 2 3 tcp 1050 ------- 1 0.0 3.0 14 21 0 0x0 0 0
+ 1.65636 0 2 tcp 1050 ---A--- 1 0.0 3.0 7 22 0 0x0 0 0
- 1.65636 0 2 tcp 1050 ---A--- 1 0.0 3.0 7 22 0 0x0 0 0
r 1.65741 0 2 tcp 1050 ---A--- 1 0.0 3.0 7 22 0 0x0 0 0
+ 1.65741 2 3 tcp 1050 ---A--- 1 0.0 3.0 7 22 0 0x0 0 0
- 1.65741 2 3 tcp 1050 ---A--- 1 0.0 3.0 7 22 0 0x0 0 0
r 1.76791 2 3 tcp 1050 ---A--- 1 0.0 3.0 7 22 0 0x0 0 0
+ 1.76791 3 2 ack 40 ------- 1 3.0 0.0 7 23 0 0x0 0 0
- 1.76791 3 2 ack 40 ------- 1 3.0 0.0 7 23 0 0x0 0 0
r 1.86831 3 2 ack 40 ------- 1 3.0 0.0 7 23 0 0x0 0 0
+ 1.86831 2 0 ack 40 ------- 1 3.0 0.0 7 23 0 0x0 0 0
- 1.86831 2 0 ack 40 ------- 1 3.0 0.0 7 23 0 0x0 0 0
r 1.86835 2 0 ack 40 ------- 1 3.0 0.0 7 23 0 0x0 0 0
+ 1.86835 0 2 tcp 1050 ------- 1 0.0 3.0 8 24 0 0x0 0 0
- 1.86835 0 2 tcp 1050 ------- 1 0.0 3.0 8 24 0 0x0 0 0
+ 1.86835 0 2 tcp 1050 ------- 1 0.0 3.0 9 25 0 0x0 0 0
r 1.8694 0 2 tcp 1050 ------- 1 0.0 3.0 8 24 0 0x0 0 0
+ 1.8694 2 3 tcp 1050 ------- 1 0.0 3.0 8 24 0 0x0 0 0
- 1.8694 2 3 tcp 1050 ------- 1 0.0 3.0 8 24 0 0x0 0 0
- 1.8694 0 2 tcp 1050 ------- 1 0.0 3.0 9 25 0 0x0 0 0
r 1.87045 0 2 tcp 1050 ------- 1 0.0 3.0 9 25 0 0x0 0 0
+ 1.87045 2 3 tcp 1050 ------- 1 0.0 3.0 9 25 0 0x0 0 0
- 1.8799 2 3 tcp 1050 ------- 1 0.0 3.0 9 25 0 0x0 0 0
r 1.9799 2 3 tcp 1050 ------- 1 0.0 3.0 8 24 0 0x0 0 0
+ 1.9799 3 2 ack 40 ------- 1 3.0 0.0 8 26 0 0x0 0 0
- 1.9799 3 2 ack 40 ------- 1 3.0 0.0 8 26 0 0x0 0 0
r 1.9904 2 3 tcp 1050 ------- 1 0.0 3.0 9 25 0 0x0 0 0
+ 1.9904 3 2 ack 40 ------- 1 3.0 0.0 9 27 0 0x0 0 0
- 1.9904 3 2 ack 40 ------- 1 3.0 0.0 9 27 0 0x0 0 0
r 2.0803 3 2 ack 40 ------- 1 3.0 0.0 8 26 0 0x0 0 0
+ 2.0803 2 0 ack 40 ------- 1 3.0 0.0 8 26 0 0x0 0 0
- 2.0803 2 0 ack 40 ------- 1 3.0 0.0 8 26 0 0x0 0 0
r 2.08034 2 0 ack 40 ------- 1 3.0 0.0 8 26 0 0x0 0 0
+ 2.08034 0 2 tcp 1050 ------- 1 0.0 3.0 10 28 0 0x0 0 0
- 2.08034 0 2 tcp 1050 ------- 1 0.0 3.0 10 28 0 0x0 0 0
+ 2.08034 0 2 tcp 1050 ------- 1 0.0 3.0 11 29 0 0x0 0 0
r 2.08139 0 2 tcp 1050 ------- 1 0.0 3.0 10 28 0 0x0 0 0
+ 2.08139 2 3 tcp 1050 ------- 1 0.0 3.0 10 28 0 0x0 0 0
- 2.08139 2 3 tcp 1050 ------- 1 0.0 3.0 10 28 0 0x0 0 0
- 2.08139 0 2 tcp 1050 ------- 1 0.0 3.0 11 29 0 0x0 0 0
r 2.08244 0 2 tcp 1050 ------- 1 0.0 3.0 11 29 0 0x0 0 0
+ 2.08244 2 3 tcp 1050 ------- 1 0.0 3.0 11 29 0 0x0 0 0
r 2.0908 3 2 ack 40 ------- 1 3.0 0.0 9 27 0 0x0 0 0
+ 2.0908 2 0 ack 40 ------- 1 3.0 0.0 9 27 0 0x0 0 0
- 2.0908 2 0 ack 40 ------- 1 3.0 0.0 9 27 0 0x0 0 0
r 2.09084 2 0 ack 40 ------- 1 3.0 0.0 9 27 0 0x0 0 0
+ 2.09084 0 2 tcp 1050 ------- 1 0.0 3.0 12 30 0 0x0 0 0
- 2.09084 0 2 tcp 1050 ------- 1 0.0 3.0 12 30 0 0x0 0 0
+ 2.09084 0 2 tcp 1050 ------- 1 0.0 3.0 13 31 0 0x0 0 0
- 2.09189 2 3 tcp 1050 ------- 1 0.0 3.0 11 29 0 0x0 0 0
r 2.09189 0 2 tcp 1050 ------- 1 0.0 3.0 12 30 0 0x0 0 0
+ 2.09189 2 3 tcp 1050 ------- 1 0.0 3.0 12 30 0 0x0 0 0
- 2.09189 0 2 tcp 1050 ------- 1 0.0 3.0 13 31 0 0x0 0 0
r 2.09294 0 2 tcp 1050 ------- 1 0.0 3.0 13 31 0 0x0 0 0
d 2.09294 2 3 tcp 1050 ------- 1 0.0 3.0 13 31 0 0x0 0 0
- 2.10239 2 3 tcp 1050 ------- 1 0.0 3.0 12 30 0 0x0 0 0
r 2.19189 2 3 tcp 1050 ------- 1 0.0 3.0 10 28 0 0x0 0 0
+ 2.19189 3 2 ack 40 ------- 1 3.0 0.0 10 32 0 0x0 0 0
- 2.19189 3 2 ack 40 ------- 1 3.0 0.0 10 32 0 0x0 0 0
r 2.20239 2 3 tcp 1050 ------- 1 0.0 3.0 11 29 0 0x0 0 0
+ 2.20239 3 2 ack 40 ------- 1 3.0 0.0 11 33 0 0x0 0 0
- 2.20239 3 2 ack 40 ------- 1 3.0 0.0 11 33 0 0x0 0 0
r 2.21289 2 3 tcp 1050 ------- 1 0.0 3.0 12 30 0 0x0 0 0
+ 2.21289 3 2 ack 40 ------- 1 3.0 0.0 12 34 0 0x0 0 0
- 2.21289 3 2 ack 40 ------- 1 3.0 0.0 12 34 0 0x0 0 0
r 2.29229 3 2 ack 40 ------- 1 3.0 0.0 10 32 0 0x0 0 0
+ 2.29229 2 0 ack 40 ------- 1 3.0 0.0 10 32 0 0x0 0 0
- 2.29229 2 0 ack 40 ------- 1 3.0 0.0 10 32 0 0x0 0 0
r 2.29233 2 0 ack 40 ------- 1 3.0 0.0 10 32 0 0x0 0 0
+ 2.29233 0 2 tcp 1050 ------- 1 0.0 3.0 14 35 0 0x0 0 0
- 2.29233 0 2 tcp 1050 ------- 1 0.0 3.0 14 35 0 0x0 0 0
r 2.29338 0 2 tcp 1050 ------- 1 0.0 3.0 14 35 0 0x0 0 0
+ 2.29338 2 3 tcp 1050 ------- 1 0.0 3.0 14 35 0 0x0 0 0
- 2.29338 2 3 tcp 1050 ------- 1 0.0 3.0 14 35 0 0x0 0 0
r 2.30279 3 2 ack 40 ------- 1 3.0 0.0 11 33 0 0x0 0 0
+ 2.30279 2 0 ack 40 ------- 1 3.0 0.0 11 33 0 0x0 0 0
- 2.30279 2 0 ack 40 ------- 1 3.0 0.0 11 33 0 0x0 0 0
r 2.30283 2 0 ack 40 ------- 1 3.0 0.0 11 33 0 0x0 0 0
+ 2.30283 0 2 tcp 1050 ------- 1 0.0 3.0 15 36 0 0x0 0 0
- 2.30283 0 2 tcp 1050 ------- 1 0.0 3.0 15 36 0 0x0 0 0
r 2.30388 0 2 tcp 1050 ------- 1 0.0 3.0 15 36 0 0x0 0 0
+ 2.30388 2 3 tcp 1050 ------- 1 0.0 3.0 15 36 0 0x0 0 0
- 2.30388 2 3 tcp 1050 ------- 1 0.0 3.0 15 36 0 0x0 0 0
r 2.31329 3 2 ack 40 ------- 1 3.0 0.0 12 34 0 0x0 0 0
+ 2.31329 2 0 ack 40 ------- 1 3.0 0.0 12 34 0 0x0 0 0
- 2.31329 2 0 ack 40 ------- 1 3.0 0.0 12 34 0 0x0 0 0
r 2.31333 2 0 ack 40 ------- 1 3.0 0.0 12 34 0 0x0 0 0
+ 2.31333 0 2 tcp 1050 ------- 1 0.0 3.0 16 37 0 0x0 0 0
- 2.31333 0 2 tcp 1050 ------- 1 0.0 3.0 16 37 0 0x0 0 0
r 2.31438 0 2 tcp 1050 ------- 1 0.0 3.0 16 37 0 0x0 0 0
+ 2.31438 2 3 tcp 1050 ------- 1 0.0 3.0 16 37 0 0x0 0 0
- 2.31438 2 3 tcp 1050 ------- 1 0.0 3.0 16 37 0 0x0 0 0
r 2.40388 2 3 tcp 1050 ------- 1 0.0 3.0 14 35 0 0x0 0 0
+ 2.40388 3 2 ack 40 ------- 1 3.0 0.0 12 38 0 0x0 0 0
- 2.40388 3 2 ack 40 ------- 1 3.0 0.0 12 38 0 0x0 0 0
r 2.41438 2 3 tcp 1050 ------- 1 0.0 3.0 15 36 0 0x0 0 0
+ 2.41438 3 2 ack 40 ------- 1 3.0 0.0 12 39 0 0x0 0 0
- 2.41438 3 2 ack 40 ------- 1 3.0 0.0 12 39 0 0x0 0 0
r 2.42488 2 3 tcp 1050 ------- 1 0.0 3.0 16 37 0 0x0 0 0
+ 2.42488 3 2 ack 40 ------- 1 3.0 0.0 12 40 0 0x0 0 0
- 2.42488 3 2 ack 40 ------- 1 3.0 0.0 12 40 0 0x0 0 0
r 2.50428 3 2 ack 40 ------- 1 3.0 0.0 12 38 0 0x0 0 0
+ 2.50428 2 0 ack 40 ------- 1 3.0 0.0 12 38 0 0x0 0 0
- 2.50428 2 0 ack 40 ------- 1 3.0 0.0 12 38 0 0x0 0 0
r 2.50432 2 0 ack 40 ------- 1 3.0 0.0 12 38 0 0x0 0 0
r 2.51478 3 2 ack 40 ------- 1 3.0 0.0 12 39 0 0x0 0 0
+ 2.51478 2 0 ack 40 ------- 1 3.0 0.0 12 39 0 0x0 0 0
- 2.51478 2 0 ack 40 ------- 1 3.0 0.0 12 39 0 0x0 0 0
r 2.51482 2 0 ack 40 ------- 1 3.0 0.0 12 39 0 0x0 0 0
r 2.52528 3 2 ack 40 ------- 1 3.0 0.0 12 40 0 0x0 0 0
+ 2.52528 2 0 ack 40 ------- 1 3.0 0.0 12 40 0 0x0 0 0
- 2.52528 2 0 ack 40 ------- 1 3.0 0.0 12 40 0 0x0 0 0
r 2.52532 2 0 ack 40 ------- 1 3.0 0.0 12 40 0 0x0 0 0
+ 4.31333 0 2 tcp 1050 ---A--- 1 0.0 3.0 13 41 0 0x0 0 0
- 4.31333 0 2 tcp 1050 ---A--- 1 0.0 3.0 13 41 0 0x0 0 0
r 4.31438 0 2 tcp 1050 ---A--- 1 0.0 3.0 13 41 0 0x0 0 0
+ 4.31438 2 3 tcp 1050 ---A--- 1 0.0 3.0 13 41 0 0x0 0 0
- 4.31438 2 3 tcp 1050 ---A--- 1 0.0 3.0 13 41 0 0x0 0 0
r 4.42488 2 3 tcp 1050 ---A--- 1 0.0 3.0 13 41 0 0x0 0 0
+ 4.42488 3 2 ack 40 ------- 1 3.0 0.0 16 42 0 0x0 0 0
- 4.42488 3 2 ack 40 ------- 1 3.0 0.0 16 42 0 0x0 0 0
r 4.52528 3 2 ack 40 ------- 1 3.0 0.0 16 42 0 0x0 0 0
+ 4.52528 2 0 ack 40 ------- 1 3.0 0.0 16 42 0 0x0 0 0
- 4.52528 2 0 ack 40 ------- 1 3.0 0.0 16 42 0 0x0 0 0
r 4.52532 2 0 ack 40 ------- 1 3.0 0.0 16 42 0 0x0 0 0
+ 4.52532 0 2 tcp 1050 ------- 1 0.0 3.0 17 43 0 0x0 0 0
- 4.52532 0 2 tcp 1050 ------- 1 0.0 3.0 17 43 0 0x0 0 0
+ 4.52532 0 2 tcp 1050 ------- 1 0.0 3.0 18 44 0 0x0 0 0
r 4.52637 0 2 tcp 1050 ------- 1 0.0 3.0 17 43 0 0x0 0 0
+ 4.52637 2 3 tcp 1050 ------- 1 0.0 3.0 17 43 0 0x0 0 0
- 4.52637 2 3 tcp 1050 ------- 1 0.0 3.0 17 43 0 0x0 0 0
- 4.52637 0 2 tcp 1050 ------- 1 0.0 3.0 18 44 0 0x0 0 0
r 4.52742 0 2 tcp 1050 ------- 1 0.0 3.0 18 44 0 0x0 0 0
+ 4.52742 2 3 tcp 1050 ------- 1 0.0 3.0 18 44 0 0x0 0 0
- 4.53687 2 3 tcp 1050 ------- 1 0.0 3.0 18 44 0 0x0 0 0
r 4.63687 2 3 tcp 1050 ------- 1 0.0 3.0 17 43 0 0x0 0 0
+ 4.63687 3 2 ack 40 ------- 1 3.0 0.0 17 45 0 0x0 0 0
- 4.63687 3 2 ack 40 ------- 1 3.0 0.0 17 45 0 0x0 0 0
r 4.64737 2 3 tcp 1050 ------- 1 0.0 3.0 18 44 0 0x0 0 0
+ 4.64737 3 2 ack 40 ------- 1 3.0 0.0 18 46 0 0x0 0 0
- 4.64737 3 2 ack 40 ------- 1 3.0 0.0 18 46 0 0x0 0 0
r 4.73727 3 2 ack 40 ------- 1 3.0 0.0 17 45 0 0x0 0 0
+ 4.73727 2 0 ack 40 ------- 1 3.0 0.0 17 45 0 0x0 0 0
- 4.73727 2 0 ack 40 ------- 1 3.0 0.0 17 45 0 0x0 0 0
r 4.73731 2 0 ack 40 ------- 1 3.0 0.0 17 45 0 0x0 0 0
+ 4.73731 0 2 tcp 1050 ------- 1 0.0 3.0 19 47 0 0x0 0 0
- 4.73731 0 2 tcp 1050 ------- 1 0.0 3.0 19 47 0 0x0 0 0
r 4.73836 0 2 tcp 1050 ------- 1 0.0 3.0 19 47 0 0x0 0 0
+ 4.73836 2 3 tcp 1050 ------- 1 0.0 3.0 19 47 0 0x0 0 0
- 4.73836 2 3 tcp 1050 ------- 1 0.0 3.0 19 47 0 0x0 0 0
r 4.74777 3 2 ack 40 ------- 1 3.0 0.0 18 46 0 0x0 0 0
+ 4.74777 2 0 ack 40 ------- 1 3.0 0.0 18 46 0 0x0 0 0
- 4.74777 2 0 ack 40 ------- 1 3.0 0.0 18 46 0 0x0 0 0
r 4.74781 2 0 ack 40 ------- 1 3.0 0.0 18 46 0 0x0 0 0
+ 4.74781 0 2 tcp 1050 ------- 1 0.0 3.0 20 48 0 0x0 0 0
- 4.74781 0 2 tcp 1050 ------- 1 0.0 3.0 20 48 0 0x0 0 0
r 4.74886 0 2 tcp 1050 ------- 1 0.0 3.0 20 48 0 0x0 0 0
+ 4.74886 2 3 tcp 1050 ------- 1 0.0 3.0 20 48 0 0x0 0 0
- 4.74886 2 3 tcp 1050 ------- 1 0.0 3.0 20 48 0 0x0 0 0
r 4.84886 2 3 tcp 1050 ------- 1 0.0 3.0 19 47 0 0x0 0 0
+ 4.84886 3 2 ack 40 ------- 1 3.0 0.0 19 49 0 0x0 0 0
- 4.84886 3 2 ack 40 ------- 1 3.0 0.0 19 49 0 0x0 0 0
r 4.85936 2 3 tcp 1050 ------- 1 0.0 3.0 20 48 0 0x0 0 0
+ 4.85936 3 2 ack 40 ------- 1 3.0 0.0 20 50 0 0x0 0 0
- 4.85936 3 2 ack 40 ------- 1 3.0 0.0 20 50 0 0x0 0 0
r 4.94926 3 2 ack 40 ------- 1 3.0 0.0 19 49 0 0x0 0 0
+ 4.94926 2 0 ack 40 ------- 1 3.0 0.0 19 49 0 0x0 0 0
- 4.94926 2 0 ack 40 ------- 1 3.0 0.0 19 49 0 0x0 0 0
r 4.9493 2 0 ack 40 ------- 1 3.0 0.0 19 49 0 0x0 0 0
+ 4.9493 0 2 tcp 1050 ------- 1 0.0 3.0 21 51 0 0x0 0 0
- 4.9493 0 2 tcp 1050 ------- 1 0.0 3.0 21 51 0 0x0 0 0
+ 4.9493 0 2 tcp 1050 ------- 1 0.0 3.0 22 52 0 0x0 0 0
r 4.95035 0 2 tcp 1050 ------- 1 0.0 3.0 21 51 0 0x0 0 0
+ 4.95035 2 3 tcp 1050 ------- 1 0.0 3.0 21 51 0 0x0 0 0
- 4.95035 2 3 tcp 1050 ------- 1 0.0 3.0 21 51 0 0x0 0 0
- 4.95035 0 2 tcp 1050 ------- 1 0.0 3.0 22 52 0 0x0 0 0
r 4.9514 0 2 tcp 1050 ------- 1 0.0 3.0 22 52 0 0x0 0 0
+ 4.9514 2 3 tcp 1050 ------- 1 0.0 3.0 22 52 0 0x0 0 0
r 4.95976 3 2 ack 40 ------- 1 3.0 0.0 20 50 0 0x0 0 0
+ 4.95976 2 0 ack 40 ------- 1 3.0 0.0 20 50 0 0x0 0 0
- 4.95976 2 0 ack 40 ------- 1 3.0 0.0 20 50 0 0x0 0 0
r 4.9598 2 0 ack 40 ------- 1 3.0 0.0 20 50 0 0x0 0 0
+ 4.9598 0 2 tcp 1050 ------- 1 0.0 3.0 23 53 0 0x0 0 0
- 4.9598 0 2 tcp 1050 ------- 1 0.0 3.0 23 53 0 0x0 0 0
- 4.96085 2 3 tcp 1050 ------- 1 0.0 3.0 22 52 0 0x0 0 0
r 4.96085 0 2 tcp 1050 ------- 1 0.0 3.0 23 53 0 0x0 0 0
+ 4.96085 2 3 tcp 1050 ------- 1 0.0 3.0 23 53 0 0x0 0 0
- 4.97135 2 3 tcp 1050 ------- 1 0.0 3.0 23 53 0 0x0 0 0
r 5.06085 2 3 tcp 1050 ------- 1 0.0 3.0 21 51 0 0x0 0 0
+ 5.06085 3 2 ack 40 ------- 1 3.0 0.0 21 54 0 0x0 0 0
- 5.06085 3 2 ack 40 ------- 1 3.0 0.0 21 54 0 0x0 0 0
r 5.07135 2 3 tcp 1050 ------- 1 0.0 3.0 22 52 0 0x0 0 0
+ 5.07135 3 2 ack 40 ------- 1 3.0 0.0 22 55 0 0x0 0 0
- 5.07135 3 2 ack 40 ------- 1 3.0 0.0 22 55 0 0x0 0 0
r 5.08185 2 3 tcp 1050 ------- 1 0.0 3.0 23 53 0 0x0 0 0
+ 5.08185 3 2 ack 40 ------- 1 3.0 0.0 23 56 0 0x0 0 0
- 5.08185 3 2 ack 40 ------- 1 3.0 0.0 23 56 0 0x0 0 0
r 5.16125 3 2 ack 40 ------- 1 3.0 0.0 21 54 0 0x0 0 0
+ 5.16125 2 0 ack 40 ------- 1 3.0 0.0 21 54 0 0x0 0 0
- 5.16125 2 0 ack 40 ------- 1 3.0 0.0 21 54 0 0x0 0 0
r 5.16129 2 0 ack 40 ------- 1 3.0 0.0 21 54 0 0x0 0 0
+ 5.16129 0 2 tcp 1050 ------- 1 0.0 3.0 24 57 0 0x0 0 0
- 5.16129 0 2 tcp 1050 ------- 1 0.0 3.0 24 57 0 0x0 0 0
r 5.16234 0 2 tcp 1050 ------- 1 0.0 3.0 24 57 0 0x0 0 0
+ 5.16234 2 3 tcp 1050 ------- 1 0.0 3.0 24 57 0 0x0 0 0
- 5.16234 2 3 tcp 1050 ------- 1 0.0 3.0 24 57 0 0x0 0 0
r 5.17175 3 2 ack 40 ------- 1 3.0 0.0 22 55 0 0x0 0 0
+ 5.17175 2 0 ack 40 ------- 1 3.0 0.0 22 55 0 0x0 0 0
- 5.17175 2 0 ack 40 ------- 1 3.0 0.0 22 55 0 0x0 0 0
r 5.17179 2 0 ack 40 ------- 1 3.0 0.0 22 55 0 0x0 0 0
+ 5.17179 0 2 tcp 1050 ------- 1 0.0 3.0 25 58 0 0x0 0 0
- 5.17179 0 2 tcp 1050 ------- 1 0.0 3.0 25 58 0 0x0 0 0
+ 5.17179 0 2 tcp 1050 ------- 1 0.0 3.0 26 59 0 0x0 0 0
r 5.17284 0 2 tcp 1050 ------- 1 0.0 3.0 25 58 0 0x0 0 0
+ 5.17284 2 3 tcp 1050 ------- 1 0.0 3.0 25 58 0 0x0 0 0
- 5.17284 2 3 tcp 1050 ------- 1 0.0 3.0 25 58 0 0x0 0 0
- 5.17284 0 2 tcp 1050 ------- 1 0.0 3.0 26 59 0 0x0 0 0
r 5.17389 0 2 tcp 1050 ------- 1 0.0 3.0 26 59 0 0x0 0 0
+ 5.17389 2 3 tcp 1050 ------- 1 0.0 3.0 26 59 0 0x0 0 0
r 5.18225 3 2 ack 40 ------- 1 3.0 0.0 23 56 0 0x0 0 0
+ 5.18225 2 0 ack 40 ------- 1 3.0 0.0 23 56 0 0x0 0 0
- 5.18225 2 0 ack 40 ------- 1 3.0 0.0 23 56 0 0x0 0 0
r 5.18229 2 0 ack 40 ------- 1 3.0 0.0 23 56 0 0x0 0 0
+ 5.18229 0 2 tcp 1050 ------- 1 0.0 3.0 27 60 0 0x0 0 0
- 5.18229 0 2 tcp 1050 ------- 1 0.0 3.0 27 60 0 0x0 0 0
- 5.18334 2 3 tcp 1050 ------- 1 0.0 3.0 26 59 0 0x0 0 0
r 5.18334 0 2 tcp 1050 ------- 1 0.0 3.0 27 60 0 0x0 0 0
+ 5.18334 2 3 tcp 1050 ------- 1 0.0 3.0 27 60 0 0x0 0 0
- 5.19384 2 3 tcp 1050 ------- 1 0.0 3.0 27 60 0 0x0 0 0
r 5.27284 2 3 tcp 1050 ------- 1 0.0 3.0 24 57 0 0x0 0 0
+ 5.27284 3 2 ack 40 ------- 1 3.0 0.0 24 61 0 0x0 0 0
- 5.27284 3 2 ack 40 ------- 1 3.0 0.0 24 61 0 0x0 0 0
r 5.28334 2 3 tcp 1050 ------- 1 0.0 3.0 25 58 0 0x0 0 0
+ 5.28334 3 2 ack 40 ------- 1 3.0 0.0 25 62 0 0x0 0 0
- 5.28334 3 2 ack 40 ------- 1 3.0 0.0 25 62 0 0x0 0 0
r 5.29384 2 3 tcp 1050 ------- 1 0.0 3.0 26 59 0 0x0 0 0
+ 5.29384 3 2 ack 40 ------- 1 3.0 0.0 26 63 0 0x0 0 0
- 5.29384 3 2 ack 40 ------- 1 3.0 0.0 26 63 0 0x0 0 0
r 5.30434 2 3 tcp 1050 ------- 1 0.0 3.0 27 60 0 0x0 0 0
+ 5.30434 3 2 ack 40 ------- 1 3.0 0.0 27 64 0 0x0 0 0
- 5.30434 3 2 ack 40 ------- 1 3.0 0.0 27 64 0 0x0 0 0
r 5.37324 3 2 ack 40 ------- 1 3.0 0.0 24 61 0 0x0 0 0
+ 5.37324 2 0 ack 40 ------- 1 3.0 0.0 24 61 0 0x0 0 0
- 5.37324 2 0 ack 40 ------- 1 3.0 0.0 24 61 0 0x0 0 0
r 5.37328 2 0 ack 40 ------- 1 3.0 0.0 24 61 0 0x0 0 0
+ 5.37328 0 2 tcp 1050 ------- 1 0.0 3.0 28 65 0 0x0 0 0
- 5.37328 0 2 tcp 1050 ------- 1 0.0 3.0 28 65 0 0x0 0 0
r 5.37433 0 2 tcp 1050 ------- 1 0.0 3.0 28 65 0 0x0 0 0
+ 5.37433 2 3 tcp 1050 ------- 1 0.0 3.0 28 65 0 0x0 0 0
- 5.37433 2 3 tcp 1050 ------- 1 0.0 3.0 28 65 0 0x0 0 0
r 5.38374 3 2 ack 40 ------- 1 3.0 0.0 25 62 0 0x0 0 0
+ 5.38374 2 0 ack 40 ------- 1 3.0 0.0 25 62 0 0x0 0 0
- 5.38374 2 0 ack 40 ------- 1 3.0 0.0 25 62 0 0x0 0 0
r 5.38378 2 0 ack 40 ------- 1 3.0 0.0 25 62 0 0x0 0 0
+ 5.38378 0 2 tcp 1050 ------- 1 0.0 3.0 29 66 0 0x0 0 0
- 5.38378 0 2 tcp 1050 ------- 1 0.0 3.0 29 66 0 0x0 0 0
r 5.38483 0 2 tcp 1050 ------- 1 0.0 3.0 29 66 0 0x0 0 0
+ 5.38483 2 3 tcp 1050 ------- 1 0.0 3.0 29 66 0 0x0 0 0
- 5.38483 2 3 tcp 1050 ------- 1 0.0 3.0 29 66 0 0x0 0 0
r 5.39424 3 2 ack 40 ------- 1 3.0 0.0 26 63 0 0x0 0 0
+ 5.39424 2 0 ack 40 ------- 1 3.0 0.0 26 63 0 0x0 0 0
- 5.39424 2 0 ack 40 ------- 1 3.0 0.0 26 63 0 0x0 0 0
r 5.39428 2 0 ack 40 ------- 1 3.0 0.0 26 63 0 0x0 0 0
+ 5.39428 0 2 tcp 1050 ------- 1 0.0 3.0 30 67 0 0x0 0 0
- 5.39428 0 2 tcp 1050 ------- 1 0.0 3.0 30 67 0 0x0 0 0
r 5.39533 0 2 tcp 1050 ------- 1 0.0 3.0 30 67 0 0x0 0 0
+ 5.39533 2 3 tcp 1050 ------- 1 0.0 3.0 30 67 0 0x0 0 0
- 5.39533 2 3 tcp 1050 ------- 1 0.0 3.0 30 67 0 0x0 0 0
r 5.40474 3 2 ack 40 ------- 1 3.0 0.0 27 64 0 0x0 0 0
+ 5.40474 2 0 ack 40 ------- 1 3.0 0.0 27 64 0 0x0 0 0
- 5.40474 2 0 ack 40 ------- 1 3.0 0.0 27 64 0 0x0 0 0
r 5.40478 2 0 ack 40 ------- 1 3.0 0.0 27 64 0 0x0 0 0
+ 5.40478 0 2 tcp 1050 ------- 1 0.0 3.0 31 68 0 0x0 0 0
- 5.40478 0 2 tcp 1050 ------- 1 0.0 3.0 31 68 0 0x0 0 0
+ 5.40478 0 2 tcp 1050 ------- 1 0.0 3.0 32 69 0 0x0 0 0
r 5.40583 0 2 tcp 1050 ------- 1 0.0 3.0 31 68 0 0x0 0 0
+ 5.40583 2 3 tcp 1050 ------- 1 0.0 3.0 31 68 0 0x0 0 0
- 5.40583 2 3 tcp 1050 ------- 1 0.0 3.0 31 68 0 0x0 0 0
- 5.40583 0 2 tcp 1050 ------- 1 0.0 3.0 32 69 0 0x0 0 0
r 5.40688 0 2 tcp 1050 ------- 1 0.0 3.0 32 69 0 0x0 0 0
+ 5.40688 2 3 tcp 1050 ------- 1 0.0 3.0 32 69 0 0x0 0 0
- 5.41633 2 3 tcp 1050 ------- 1 0.0 3.0 32 69 0 0x0 0 0
r 5.48483 2 3 tcp 1050 ------- 1 0.0 3.0 28 65 0 0x0 0 0
+ 5.48483 3 2 ack 40 ------- 1 3.0 0.0 28 70 0 0x0 0 0
- 5.48483 3 2 ack 40 ------- 1 3.0 0.0 28 70 0 0x0 0 0
r 5.49533 2 3 tcp 1050 ------- 1 0.0 3.0 29 66 0 0x0 0 0
+ 5.49533 3 2 ack 40 ------- 1 3.0 0.0 29 71 0 0x0 0 0
- 5.49533 3 2 ack 40 ------- 1 3.0 0.0 29 71 0 0x0 0 0
r 5.50583 2 3 tcp 1050 ------- 1 0.0 3.0 30 67 0 0x0 0 0
+ 5.50583 3 2 ack 40 ------- 1 3.0 0.0 30 72 0 0x0 0 0
- 5.50583 3 2 ack 40 ------- 1 3.0 0.0 30 72 0 0x0 0 0
r 5.51633 2 3 tcp 1050 ------- 1 0.0 3.0 31 68 0 0x0 0 0
+ 5.51633 3 2 ack 40 ------- 1 3.0 0.0 31 73 0 0x0 0 0
- 5.51633 3 2 ack 40 ------- 1 3.0 0.0 31 73 0 0x0 0 0
r 5.52683 2 3 tcp 1050 ------- 1 0.0 3.0 32 69 0 0x0 0 0
+ 5.52683 3 2 ack 40 ------- 1 3.0 0.0 32 74 0 0x0 0 0
- 5.52683 3 2 ack 40 ------- 1 3.0 0.0 32 74 0 0x0 0 0
r 5.58523 3 2 ack 40 ------- 1 3.0 0.0 28 70 0 0x0 0 0
+ 5.58523 2 0 ack 40 ------- 1 3.0 0.0 28 70 0 0x0 0 0
- 5.58523 2 0 ack 40 ------- 1 3.0 0.0 28 70 0 0x0 0 0
r 5.58527 2 0 ack 40 ------- 1 3.0 0.0 28 70 0 0x0 0 0
+ 5.58527 0 2 tcp 1050 ------- 1 0.0 3.0 33 75 0 0x0 0 0
- 5.58527 0 2 tcp 1050 ------- 1 0.0 3.0 33 75 0 0x0 0 0
r 5.58632 0 2 tcp 1050 ------- 1 0.0 3.0 33 75 0 0x0 0 0
+ 5.58632 2 3 tcp 1050 ------- 1 0.0 3.0 33 75 0 0x0 0 0
- 5.58632 2 3 tcp 1050 ------- 1 0.0 3.0 33 75 0 0x0 0 0
r 5.59573 3 2 ack 40 ------- 1 3.0 0.0 29 71 0 0x0 0 0
+ 5.59573 2 0 ack 40 ------- 1 3.0 0.0 29 71 0 0x0 0 0
- 5.59573 2 0 ack 40 ------- 1 3.0 0.0 29 71 0 0x0 0 0
r 5.59577 2 0 ack 40 ------- 1 3.0 0.0 29 71 0 0x0 0 0
+ 5.59577 0 2 tcp 1050 ------- 1 0.0 3.0 34 76 0 0x0 0 0
- 5.59577 0 2 tcp 1050 ------- 1 0.0 3.0 34 76 0 0x0 0 0
r 5.59682 0 2 tcp 1050 ------- 1 0.0 3.0 34 76 0 0x0 0 0
+ 5.59682 2 3 tcp 1050 ------- 1 0.0 3.0 34 76 0 0x0 0 0
- 5.59682 2 3 tcp 1050 ------- 1 0.0 3.0 34 76 0 0x0 0 0
r 5.60623 3 2 ack 40 ------- 1 3.0 0.0 30 72 0 0x0 0 0
+ 5.60623 2 0 ack 40 ------- 1 3.0 0.0 30 72 0 0x0 0 0
- 5.60623 2 0 ack 40 ------- 1 3.0 0.0 30 72 0 0x0 0 0
r 5.60627 2 0 ack 40 ------- 1 3.0 0.0 30 72 0 0x0 0 0
+ 5.60627 0 2 tcp 1050 ------- 1 0.0 3.0 35 77 0 0x0 0 0
- 5.60627 0 2 tcp 1050 ------- 1 0.0 3.0 35 77 0 0x0 0 0
r 5.60732 0 2 tcp 1050 ------- 1 0.0 3.0 35 77 0 0x0 0 0
+ 5.60732 2 3 tcp 1050 ------- 1 0.0 3.0 35 77 0 0x0 0 0
- 5.60732 2 3 tcp 1050 ------- 1 0.0 3.0 35 77 0 0x0 0 0
r 5.61673 3 2 ack 40 ------- 1 3.0 0.0 31 73 0 0x0 0 0
+ 5.61673 2 0 ack 40 ------- 1 3.0 0.0 31 73 0 0x0 0 0
- 5.61673 2 0 ack 40 ------- 1 3.0 0.0 31 73 0 0x0 0 0
r 5.61677 2 0 ack 40 ------- 1 3.0 0.0 31 73 0 0x0 0 0
+ 5.61677 0 2 tcp 1050 ------- 1 0.0 3.0 36 78 0 0x0 0 0
- 5.61677 0 2 tcp 1050 ------- 1 0.0 3.0 36 78 0 0x0 0 0
r 5.61782 0 2 tcp 1050 ------- 1 0.0 3.0 36 78 0 0x0 0 0
+ 5.61782 2 3 tcp 1050 ------- 1 0.0 3.0 36 78 0 0x0 0 0
- 5.61782 2 3 tcp 1050 ------- 1 0.0 3.0 36 78 0 0x0 0 0
r 5.62723 3 2 ack 40 ------- 1 3.0 0.0 32 74 0 0x0 0 0
+ 5.62723 2 0 ack 40 ------- 1 3.0 0.0 32 74 0 0x0 0 0
- 5.62723 2 0 ack 40 ------- 1 3.0 0.0 32 74 0 0x0 0 0
r 5.62727 2 0 ack 40 ------- 1 3.0 0.0 32 74 0 0x0 0 0
+ 5.62727 0 2 tcp 1050 ------- 1 0.0 3.0 37 79 0 0x0 0 0
- 5.62727 0 2 tcp 1050 ------- 1 0.0 3.0 37 79 0 0x0 0 0
+ 5.62727 0 2 tcp 1050 ------- 1 0.0 3.0 38 80 0 0x0 0 0
r 5.62832 0 2 tcp 1050 ------- 1 0.0 3.0 37 79 0 0x0 0 0
+ 5.62832 2 3 tcp 1050 ------- 1 0.0 3.0 37 79 0 0x0 0 0
- 5.62832 2 3 tcp 1050 ------- 1 0.0 3.0 37 79 0 0x0 0 0
- 5.62832 0 2 tcp 1050 ------- 1 0.0 3.0 38 80 0 0x0 0 0
r 5.62937 0 2 tcp 1050 ------- 1 0.0 3.0 38 80 0 0x0 0 0
+ 5.62937 2 3 tcp 1050 ------- 1 0.0 3.0 38 80 0 0x0 0 0
- 5.63882 2 3 tcp 1050 ------- 1 0.0 3.0 38 80 0 0x0 0 0
r 5.69682 2 3 tcp 1050 ------- 1 0.0 3.0 33 75 0 0x0 0 0
+ 5.69682 3 2 ack 40 ------- 1 3.0 0.0 33 81 0 0x0 0 0
- 5.69682 3 2 ack 40 ------- 1 3.0 0.0 33 81 0 0x0 0 0
r 5.70732 2 3 tcp 1050 ------- 1 0.0 3.0 34 76 0 0x0 0 0
+ 5.70732 3 2 ack 40 ------- 1 3.0 0.0 34 82 0 0x0 0 0
- 5.70732 3 2 ack 40 ------- 1 3.0 0.0 34 82 0 0x0 0 0
r 5.71782 2 3 tcp 1050 ------- 1 0.0 3.0 35 77 0 0x0 0 0
+ 5.71782 3 2 ack 40 ------- 1 3.0 0.0 35 83 0 0x0 0 0
- 5.71782 3 2 ack 40 ------- 1 3.0 0.0 35 83 0 0x0 0 0
r 5.72832 2 3 tcp 1050 ------- 1 0.0 3.0 36 78 0 0x0 0 0
+ 5.72832 3 2 ack 40 ------- 1 3.0 0.0 36 84 0 0x0 0 0
- 5.72832 3 2 ack 40 ------- 1 3.0 0.0 36 84 0 0x0 0 0
r 5.73882 2 3 tcp 1050 ------- 1 0.0 3.0 37 79 0 0x0 0 0
+ 5.73882 3 2 ack 40 ------- 1 3.0 0.0 37 85 0 0x0 0 0
- 5.73882 3 2 ack 40 ------- 1 3.0 0.0 37 85 0 0x0 0 0
r 5.74932 2 3 tcp 1050 ------- 1 0.0 3.0 38 80 0 0x0 0 0
+ 5.74932 3 2 ack 40 ------- 1 3.0 0.0 38 86 0 0x0 0 0
- 5.74932 3 2 ack 40 ------- 1 3.0 0.0 38 86 0 0x0 0 0
r 5.79722 3 2 ack 40 ------- 1 3.0 0.0 33 81 0 0x0 0 0
+ 5.79722 2 0 ack 40 ------- 1 3.0 0.0 33 81 0 0x0 0 0
- 5.79722 2 0 ack 40 ------- 1 3.0 0.0 33 81 0 0x0 0 0
r 5.79726 2 0 ack 40 ------- 1 3.0 0.0 33 81 0 0x0 0 0
+ 5.79726 0 2 tcp 1050 ------- 1 0.0 3.0 39 87 0 0x0 0 0
- 5.79726 0 2 tcp 1050 ------- 1 0.0 3.0 39 87 0 0x0 0 0
r 5.79831 0 2 tcp 1050 ------- 1 0.0 3.0 39 87 0 0x0 0 0
+ 5.79831 2 3 tcp 1050 ------- 1 0.0 3.0 39 87 0 0x0 0 0
- 5.79831 2 3 tcp 1050 ------- 1 0.0 3.0 39 87 0 0x0 0 0
r 5.80772 3 2 ack 40 ------- 1 3.0 0.0 34 82 0 0x0 0 0
+ 5.80772 2 0 ack 40 ------- 1 3.0 0.0 34 82 0 0x0 0 0
- 5.80772 2 0 ack 40 ------- 1 3.0 0.0 34 82 0 0x0 0 0
r 5.80776 2 0 ack 40 ------- 1 3.0 0.0 34 82 0 0x0 0 0
+ 5.80776 0 2 tcp 1050 ------- 1 0.0 3.0 40 88 0 0x0 0 0
- 5.80776 0 2 tcp 1050 ------- 1 0.0 3.0 40 88 0 0x0 0 0
r 5.80881 0 2 tcp 1050 ------- 1 0.0 3.0 40 88 0 0x0 0 0
+ 5.80881 2 3 tcp 1050 ------- 1 0.0 3.0 40 88 0 0x0 0 0
- 5.80881 2 3 tcp 1050 ------- 1 0.0 3.0 40 88 0 0x0 0 0
r 5.81822 3 2 ack 40 ------- 1 3.0 0.0 35 83 0 0x0 0 0
+ 5.81822 2 0 ack 40 ------- 1 3.0 0.0 35 83 0 0x0 0 0
- 5.81822 2 0 ack 40 ------- 1 3.0 0.0 35 83 0 0x0 0 0
r 5.81826 2 0 ack 40 ------- 1 3.0 0.0 35 83 0 0x0 0 0
+ 5.81826 0 2 tcp 1050 ------- 1 0.0 3.0 41 89 0 0x0 0 0
- 5.81826 0 2 tcp 1050 ------- 1 0.0 3.0 41 89 0 0x0 0 0
r 5.81931 0 2 tcp 1050 ------- 1 0.0 3.0 41 89 0 0x0 0 0
+ 5.81931 2 3 tcp 1050 ------- 1 0.0 3.0 41 89 0 0x0 0 0
- 5.81931 2 3 tcp 1050 ------- 1 0.0 3.0 41 89 0 0x0 0 0
r 5.82872 3 2 ack 40 ------- 1 3.0 0.0 36 84 0 0x0 0 0
+ 5.82872 2 0 ack 40 ------- 1 3.0 0.0 36 84 0 0x0 0 0
- 5.82872 2 0 ack 40 ------- 1 3.0 0.0 36 84 0 0x0 0 0
r 5.82876 2 0 ack 40 ------- 1 3.0 0.0 36 84 0 0x0 0 0
+ 5.82876 0 2 tcp 1050 ------- 1 0.0 3.0 42 90 0 0x0 0 0
- 5.82876 0 2 tcp 1050 ------- 1 0.0 3.0 42 90 0 0x0 0 0
r 5.82981 0 2 tcp 1050 ------- 1 0.0 3.0 42 90 0 0x0 0 0
+ 5.82981 2 3 tcp 1050 ------- 1 0.0 3.0 42 90 0 0x0 0 0
- 5.82981 2 3 tcp 1050 ------- 1 0.0 3.0 42 90 0 0x0 0 0
r 5.83922 3 2 ack 40 ------- 1 3.0 0.0 37 85 0 0x0 0 0
+ 5.83922 2 0 ack 40 ------- 1 3.0 0.0 37 85 0 0x0 0 0
- 5.83922 2 0 ack 40 ------- 1 3.0 0.0 37 85 0 0x0 0 0
r 5.83926 2 0 ack 40 ------- 1 3.0 0.0 37 85 0 0x0 0 0
+ 5.83926 0 2 tcp 1050 ------- 1 0.0 3.0 43 91 0 0x0 0 0
- 5.83926 0 2 tcp 1050 ------- 1 0.0 3.0 43 91 0 0x0 0 0
r 5.84031 0 2 tcp 1050 ------- 1 0.0 3.0 43 91 0 0x0 0 0
+ 5.84031 2 3 tcp 1050 ------- 1 0.0 3.0 43 91 0 0x0 0 0
- 5.84031 2 3 tcp 1050 ------- 1 0.0 3.0 43 91 0 0x0 0 0
r 5.84972 3 2 ack 40 ------- 1 3.0 0.0 38 86 0 0x0 0 0
+ 5.84972 2 0 ack 40 ------- 1 3.0 0.0 38 86 0 0x0 0 0
- 5.84972 2 0 ack 40 ------- 1 3.0 0.0 38 86 0 0x0 0 0
r 5.84976 2 0 ack 40 ------- 1 3.0 0.0 38 86 0 0x0 0 0
+ 5.84976 0 2 tcp 1050 ------- 1 0.0 3.0 44 92 0 0x0 0 0
- 5.84976 0 2 tcp 1050 ------- 1 0.0 3.0 44 92 0 0x0 0 0
+ 5.84976 0 2 tcp 1050 ------- 1 0.0 3.0 45 93 0 0x0 0 0
r 5.85081 0 2 tcp 1050 ------- 1 0.0 3.0 44 92 0 0x0 0 0
+ 5.85081 2 3 tcp 1050 ------- 1 0.0 3.0 44 92 0 0x0 0 0
- 5.85081 2 3 tcp 1050 ------- 1 0.0 3.0 44 92 0 0x0 0 0
- 5.85081 0 2 tcp 1050 ------- 1 0.0 3.0 45 93 0 0x0 0 0
r 5.85186 0 2 tcp 1050 ------- 1 0.0 3.0 45 93 0 0x0 0 0
+ 5.85186 2 3 tcp 1050 ------- 1 0.0 3.0 45 93 0 0x0 0 0