s 82.557023746 _2_ AGT  --- 0 cbr 512 [0 0 0 0] [energy 0.455000 ei 0.000 es 0.000 et 0.000 er 0.000] ------- [2:0 3:0 32 0] [0] 0 2
s 82.557138746 _2_ MAC  --- 0 AODV 106 [0 ffffffff 2 800] [energy 0.455000 ei 0.000 es 0.000 et 0.000 er 0.000] ------- [2:255 -1:255 30 0] [0x2 1 1 [3 0] [2 4]] (REQUEST)
N -t 82.557139 -n 4 -e 0.454746
N -t 82.557139 -n 0 -e 0.454746
N -t 82.557139 -n 1 -e 0.454746
N -t 82.557140 -n 3 -e 0.454746
r 82.557986941 _4_ MAC  --- 0 AODV 48 [0 ffffffff 2 800] [energy 0.454746 ei 0.000 es 0.000 et 0.000 er 0.000] ------- [2:255 -1:255 30 0] [0x2 1 1 [3 0] [2 4]] (REQUEST)
r 82.557987030 _0_ MAC  --- 0 AODV 48 [0 ffffffff 2 800] [energy 0.454746 ei 0.000 es 0.000 et 0.000 er 0.000] ------- [2:255 -1:255 30 0] [0x2 1 1 [3 0] [2 4]] (REQUEST)
r 82.557987491 _1_ MAC  --- 0 AODV 48 [0 ffffffff 2 800] [energy 0.454746 ei 0.000 es 0.000 et 0.000 er 0.000] ------- [2:255 -1:255 30 0] [0x2 1 1 [3 0] [2 4]] (REQUEST)
s 82.559128168 _4_ MAC  --- 0 AODV 106 [0 ffffffff 4 800] [energy 0.454746 ei 0.000 es 0.000 et 0.000 er 0.000] ------- [4:255 -1:255 29 0] [0x2 2 1 [3 0] [2 4]] (REQUEST)
N -t 82.559128 -n 2 -e 0.454237
N -t 82.559129 -n 0 -e 0.454491
N -t 82.559129 -n 1 -e 0.454491
N -t 82.559129 -n 3 -e 0.454491
r 82.559976362 _2_ MAC  --- 0 AODV 48 [0 ffffffff 4 800] [energy 0.454237 ei 0.000 es 0.000 et 0.001 er 0.000] ------- [4:255 -1:255 29 0] [0x2 2 1 [3 0] [2 4]] (REQUEST)
r 82.559976622 _0_ MAC  --- 0 AODV 48 [0 ffffffff 4 800] [energy 0.454491 ei 0.000 es 0.000 et 0.000 er 0.001] ------- [4:255 -1:255 29 0] [0x2 2 1 [3 0] [2 4]] (REQUEST)
s 82.562738764 _0_ MAC  --- 0 AODV 106 [0 ffffffff 0 800] [energy 0.454491 ei 0.000 es 0.000 et 0.000 er 0.001] ------- [0:255 -1:255 29 0] [0x2 2 1 [3 0] [2 4]] (REQUEST)
N -t 82.562739 -n 2 -e 0.453982
N -t 82.562739 -n 4 -e 0.453982
N -t 82.562739 -n 1 -e 0.454237
N -t 82.562740 -n 3 -e 0.454237
r 82.563587047 _2_ MAC  --- 0 AODV 48 [0 ffffffff 0 800] [energy 0.453982 ei 0.000 es 0.000 et 0.001 er 0.001] ------- [0:255 -1:255 29 0] [0x2 2 1 [3 0] [2 4]] (REQUEST)
r 82.563587218 _4_ MAC  --- 0 AODV 48 [0 ffffffff 0 800] [energy 0.453982 ei 0.000 es 0.000 et 0.001 er 0.001] ------- [0:255 -1:255 29 0] [0x2 2 1 [3 0] [2 4]] (REQUEST)
r 82.563587353 _1_ MAC  --- 0 AODV 48 [0 ffffffff 0 800] [energy 0.454237 ei 0.000 es 0.000 et 0.000 er 0.001] ------- [0:255 -1:255 29 0] [0x2 2 1 [3 0] [2 4]] (REQUEST)
s 82.566339045 _1_ MAC  --- 0 AODV 106 [0 ffffffff 1 800] [energy 0.454237 ei 0.000 es 0.000 et 0.000 er 0.001] ------- [1:255 -1:255 29 0] [0x2 2 1 [3 0] [2 4]] (REQUEST)
N -t 82.566340 -n 0 -e 0.453728
N -t 82.566340 -n 3 -e 0.453982
N -t 82.566340 -n 2 -e 0.453728
N -t 82.566340 -n 4 -e 0.453728
r 82.567187635 _0_ MAC  --- 0 AODV 48 [0 ffffffff 1 800] [energy 0.453728 ei 0.000 es 0.000 et 0.001 er 0.001] ------- [1:255 -1:255 29 0] [0x2 2 1 [3 0] [2 4]] (REQUEST)
r 82.567187674 _3_ MAC  --- 0 AODV 48 [0 ffffffff 1 800] [energy 0.453982 ei 0.000 es 0.000 et 0.000 er 0.001] ------- [1:255 -1:255 29 0] [0x2 2 1 [3 0] [2 4]] (REQUEST)
r 82.567187789 _2_ MAC  --- 0 AODV 48 [0 ffffffff 1 800] [energy 0.453728 ei 0.000 es 0.000 et 0.001 er 0.001] ------- [1:255 -1:255 29 0] [0x2 2 1 [3 0] [2 4]] (REQUEST)
s 82.567307674 _3_ MAC  --- 0 ARP 86 [0 ffffffff 3 806] [energy 0.453982 ei 0.000 es 0.000 et 0.000 er 0.001] ------- [REQUEST 3/3 0/1]
N -t 82.567308 -n 1 -e 0.453522
N -t 82.567309 -n 2 -e 0.453522
N -t 82.567309 -n 0 -e 0.453522
N -t 82.567309 -n 4 -e 0.453522
r 82.567996303 _1_ MAC  --- 0 ARP 28 [0 ffffffff 3 806] [energy 0.453522 ei 0.000 es 0.000 et 0.001 er 0.001] ------- [REQUEST 3/3 0/1]
s 82.568226303 _1_ MAC  --- 0 RTS 44 [52e 3 1 0] [energy 0.453522 ei 0.000 es 0.000 et 0.001 er 0.001] 
N -t 82.568227 -n 0 -e 0.453416
N -t 82.568227 -n 3 -e 0.453464
N -t 82.568227 -n 2 -e 0.453416
N -t 82.568227 -n 4 -e 0.453416
r 82.568578932 _3_ MAC  --- 0 RTS 44 [52e 3 1 0] [energy 0.453464 ei 0.000 es 0.000 et 0.000 er 0.001] 
s 82.568588932 _3_ MAC  --- 0 CTS 38 [3f4 1 0 0] [energy 0.453464 ei 0.000 es 0.000 et 0.000 er 0.001] 
N -t 82.568590 -n 1 -e 0.453219
N -t 82.568590 -n 2 -e 0.453325
N -t 82.568590 -n 0 -e 0.453325
N -t 82.568590 -n 4 -e 0.453325
r 82.568893562 _1_ MAC  --- 0 CTS 38 [3f4 1 0 0] [energy 0.453219 ei 0.000 es 0.000 et 0.001 er 0.001] 
s 82.568903562 _1_ MAC  --- 0 ARP 86 [13a 3 1 806] [energy 0.453219 ei 0.000 es 0.000 et 0.001 er 0.001] ------- [REPLY 1/1 3/3]
N -t 82.568904 -n 0 -e 0.453118
N -t 82.568904 -n 3 -e 0.453075
N -t 82.568904 -n 2 -e 0.453118
N -t 82.568904 -n 4 -e 0.453118
r 82.569592191 _3_ MAC  --- 0 ARP 28 [13a 3 1 806] [energy 0.453075 ei 0.000 es 0.000 et 0.001 er 0.001] ------- [REPLY 1/1 3/3]
s 82.569602191 _3_ MAC  --- 0 ACK 38 [0 1 0 0] [energy 0.453075 ei 0.000 es 0.000 et 0.001 er 0.001] 
N -t 82.569603 -n 1 -e 0.452715
N -t 82.569603 -n 2 -e 0.453027
N -t 82.569603 -n 0 -e 0.453027
N -t 82.569603 -n 4 -e 0.453027
r 82.569906820 _1_ MAC  --- 0 ACK 38 [0 1 0 0] [energy 0.452715 ei 0.000 es 0.000 et 0.001 er 0.001] 
s 82.570316191 _3_ MAC  --- 0 RTS 44 [5ae 1 3 0] [energy 0.452893 ei 0.000 es 0.000 et 0.001 er 0.001] 
N -t 82.570317 -n 1 -e 0.452610
N -t 82.570317 -n 2 -e 0.452922
N -t 82.570317 -n 0 -e 0.452922
N -t 82.570317 -n 4 -e 0.452922
r 82.570668820 _1_ MAC  --- 0 RTS 44 [5ae 1 3 0] [energy 0.452610 ei 0.000 es 0.000 et 0.001 er 0.001] 
s 82.570678820 _1_ MAC  --- 0 CTS 38 [474 3 0 0] [energy 0.452610 ei 0.000 es 0.000 et 0.001 er 0.001] 
N -t 82.570679 -n 0 -e 0.452830
N -t 82.570679 -n 3 -e 0.452590
N -t 82.570680 -n 2 -e 0.452830
N -t 82.570680 -n 4 -e 0.452830
r 82.570983449 _3_ MAC  --- 0 CTS 38 [474 3 0 0] [energy 0.452590 ei 0.000 es 0.000 et 0.001 er 0.001] 
s 82.570993449 _3_ MAC  --- 0 AODV 102 [13a 1 3 800] [energy 0.452590 ei 0.000 es 0.000 et 0.001 er 0.001] ------- [3:255 2:255 30 1] [0x4 1 [3 4] 10.000000] (REPLY)
N -t 82.570994 -n 1 -e 0.452182
N -t 82.570995 -n 2 -e 0.452586
N -t 82.570995 -n 0 -e 0.452586
N -t 82.570995 -n 4 -e 0.452586
r 82.571810078 _1_ MAC  --- 0 AODV 44 [13a 1 3 800] [energy 0.452182 ei 0.000 es 0.000 et 0.001 er 0.002] ------- [3:255 2:255 30 1] [0x4 1 [3 4] 10.000000] (REPLY)
s 82.571820078 _1_ MAC  --- 0 ACK 38 [0 3 0 0] [energy 0.452182 ei 0.000 es 0.000 et 0.001 er 0.002] 
N -t 82.571821 -n 0 -e 0.452494
N -t 82.571821 -n 3 -e 0.452010
N -t 82.571821 -n 2 -e 0.452494
N -t 82.571821 -n 4 -e 0.452494
r 82.572124707 _3_ MAC  --- 0 ACK 38 [0 3 0 0] [energy 0.452010 ei 0.000 es 0.000 et 0.001 er 0.002] 
s 82.572534078 _1_ MAC  --- 0 ARP 86 [0 ffffffff 1 806] [energy 0.452000 ei 0.000 es 0.000 et 0.001 er 0.002] ------- [REQUEST 1/1 0/2]
N -t 82.572535 -n 0 -e 0.452288
N -t 82.572535 -n 3 -e 0.451803
N -t 82.572535 -n 2 -e 0.452288
N -t 82.572535 -n 4 -e 0.452288
r 82.573222668 _0_ MAC  --- 0 ARP 28 [0 ffffffff 1 806] [energy 0.452288 ei 0.000 es 0.000 et 0.001 er 0.002] ------- [REQUEST 1/1 0/2]
r 82.573222707 _3_ MAC  --- 0 ARP 28 [0 ffffffff 1 806] [energy 0.451803 ei 0.000 es 0.000 et 0.001 er 0.002] ------- [REQUEST 1/1 0/2]
r 82.573222822 _2_ MAC  --- 0 ARP 28 [0 ffffffff 1 806] [energy 0.452288 ei 0.000 es 0.000 et 0.001 er 0.002] ------- [REQUEST 1/1 0/2]
s 82.573757822 _2_ MAC  --- 0 RTS 44 [52e 1 2 0] [energy 0.452288 ei 0.000 es 0.000 et 0.001 er 0.002] 
N -t 82.573758 -n 4 -e 0.452182
N -t 82.573758 -n 0 -e 0.452182
N -t 82.573759 -n 1 -e 0.451482
N -t 82.573759 -n 3 -e 0.451698
r 82.574110567 _1_ MAC  --- 0 RTS 44 [52e 1 2 0] [energy 0.451482 ei 0.000 es 0.000 et 0.002 er 0.002] 
s 82.574120567 _1_ MAC  --- 0 CTS 38 [3f4 2 0 0] [energy 0.451482 ei 0.000 es 0.000 et 0.002 er 0.002] 
N -t 82.574121 -n 0 -e 0.452091
N -t 82.574121 -n 3 -e 0.451606
N -t 82.574121 -n 2 -e 0.451986
N -t 82.574122 -n 4 -e 0.452091
r 82.574425311 _2_ MAC  --- 0 CTS 38 [3f4 2 0 0] [energy 0.451986 ei 0.000 es 0.000 et 0.001 er 0.002] 
s 82.574435311 _2_ MAC  --- 0 ARP 86 [13a 1 2 806] [energy 0.451986 ei 0.000 es 0.000 et 0.001 er 0.002] ------- [REPLY 2/2 1/1]
N -t 82.574436 -n 4 -e 0.451885
N -t 82.574436 -n 0 -e 0.451885
N -t 82.574436 -n 1 -e 0.451093
N -t 82.574436 -n 3 -e 0.451400
r 82.575124055 _1_ MAC  --- 0 ARP 28 [13a 1 2 806] [energy 0.451093 ei 0.000 es 0.000 et 0.002 er 0.002] ------- [REPLY 2/2 1/1]
s 82.575134055 _1_ MAC  --- 0 ACK 38 [0 2 0 0] [energy 0.451093 ei 0.000 es 0.000 et 0.002 er 0.002] 
N -t 82.575135 -n 0 -e 0.451794
N -t 82.575135 -n 3 -e 0.451309
N -t 82.575135 -n 2 -e 0.451482
N -t 82.575135 -n 4 -e 0.451794
r 82.575438800 _2_ MAC  --- 0 ACK 38 [0 2 0 0] [energy 0.451482 ei 0.000 es 0.000 et 0.001 er 0.002] 
s 82.575828055 _1_ MAC  --- 0 RTS 44 [5ae 2 1 0] [energy 0.450910 ei 0.000 es 0.000 et 0.002 er 0.002] 
N -t 82.575829 -n 0 -e 0.451688
N -t 82.575829 -n 3 -e 0.451203
N -t 82.575829 -n 2 -e 0.451376
N -t 82.575829 -n 4 -e 0.451688
r 82.576180800 _2_ MAC  --- 0 RTS 44 [5ae 2 1 0] [energy 0.451376 ei 0.000 es 0.000 et 0.001 er 0.002] 
s 82.576190800 _2_ MAC  --- 0 CTS 38 [474 1 0 0] [energy 0.451376 ei 0.000 es 0.000 et 0.001 er 0.002] 
N -t 82.576191 -n 4 -e 0.451597
N -t 82.576191 -n 0 -e 0.451597
N -t 82.576192 -n 1 -e 0.450608
N -t 82.576192 -n 3 -e 0.451112
r 82.576495544 _1_ MAC  --- 0 CTS 38 [474 1 0 0] [energy 0.450608 ei 0.000 es 0.000 et 0.002 er 0.002] 
s 82.576505544 _1_ MAC  --- 0 AODV 102 [13a 2 1 800] [energy 0.450608 ei 0.000 es 0.000 et 0.002 er 0.002] ------- [3:255 2:255 29 2] [0x4 2 [3 4] 10.000000] (REPLY)
N -t 82.576506 -n 0 -e 0.451352
N -t 82.576506 -n 3 -e 0.450867
N -t 82.576506 -n 2 -e 0.450949
N -t 82.576506 -n 4 -e 0.451352
r 82.577322288 _2_ MAC  --- 0 AODV 44 [13a 2 1 800] [energy 0.450949 ei 0.000 es 0.000 et 0.001 er 0.003] ------- [3:255 2:255 29 2] [0x4 2 [3 4] 10.000000] (REPLY)
s 82.577332288 _2_ MAC  --- 0 ACK 38 [0 1 0 0] [energy 0.450949 ei 0.000 es 0.000 et 0.001 er 0.003] 
N -t 82.577332 -n 4 -e 0.451261
N -t 82.577333 -n 0 -e 0.451261
N -t 82.577333 -n 1 -e 0.450027
N -t 82.577333 -n 3 -e 0.450776
r 82.577637033 _1_ MAC  --- 0 ACK 38 [0 1 0 0] [energy 0.450027 ei 0.000 es 0.000 et 0.003 er 0.002] 
s 82.577886288 _2_ MAC  --- 0 RTS 44 [14ee 1 2 0] [energy 0.450766 ei 0.000 es 0.000 et 0.001 er 0.003] 
N -t 82.577886 -n 4 -e 0.451155
N -t 82.577887 -n 0 -e 0.451155
N -t 82.577887 -n 1 -e 0.449922
N -t 82.577887 -n 3 -e 0.450670
r 82.578239033 _1_ MAC  --- 0 RTS 44 [14ee 1 2 0] [energy 0.449922 ei 0.000 es 0.000 et 0.003 er 0.002] 
s 82.578249033 _1_ MAC  --- 0 CTS 38 [13b4 2 0 0] [energy 0.449922 ei 0.000 es 0.000 et 0.003 er 0.002] 
N -t 82.578250 -n 0 -e 0.451064
N -t 82.578250 -n 3 -e 0.450579
N -t 82.578250 -n 2 -e 0.450464
N -t 82.578250 -n 4 -e 0.451064
r 82.578553777 _2_ MAC  --- 0 CTS 38 [13b4 2 0 0] [energy 0.450464 ei 0.000 es 0.000 et 0.002 er 0.003] 
s 82.578563777 _2_ MAC  --- 0 cbr 590 [13a 1 2 800] [energy 0.450464 ei 0.000 es 0.000 et 0.002 er 0.003] ------- [2:0 3:0 30 1] [0] 0 2
N -t 82.578564 -n 4 -e 0.449648
N -t 82.578564 -n 0 -e 0.449648
N -t 82.578565 -n 1 -e 0.448323
N -t 82.578565 -n 3 -e 0.449163
r 82.583284521 _1_ MAC  --- 0 cbr 532 [13a 1 2 800] [energy 0.448323 ei 0.000 es 0.000 et 0.003 er 0.004] ------- [2:0 3:0 30 1] [0] 1 2
s 82.583294521 _1_ MAC  --- 0 ACK 38 [0 2 0 0] [energy 0.448323 ei 0.000 es 0.000 et 0.003 er 0.004] 
N -t 82.583295 -n 0 -e 0.449557
N -t 82.583295 -n 3 -e 0.449072
N -t 82.583295 -n 2 -e 0.447541
N -t 82.583295 -n 4 -e 0.449557
r 82.583599266 _2_ MAC  --- 0 ACK 38 [0 2 0 0] [energy 0.447541 ei 0.000 es 0.000 et 0.005 er 0.003] 
s 82.583688521 _1_ MAC  --- 0 RTS 44 [14ee 3 1 0] [energy 0.448141 ei 0.000 es 0.000 et 0.003 er 0.004] 
N -t 82.583689 -n 0 -e 0.449451
N -t 82.583689 -n 3 -e 0.448966
N -t 82.583689 -n 2 -e 0.447435
N -t 82.583689 -n 4 -e 0.449451
r 82.584041150 _3_ MAC  --- 0 RTS 44 [14ee 3 1 0] [energy 0.448966 ei 0.000 es 0.000 et 0.001 er 0.005] 
s 82.584051150 _3_ MAC  --- 0 CTS 38 [13b4 1 0 0] [energy 0.448966 ei 0.000 es 0.000 et 0.001 er 0.005] 
N -t 82.584052 -n 1 -e 0.447838
N -t 82.584052 -n 2 -e 0.447344
N -t 82.584052 -n 0 -e 0.449360
N -t 82.584052 -n 4 -e 0.449360
r 82.584355779 _1_ MAC  --- 0 CTS 38 [13b4 1 0 0] [energy 0.447838 ei 0.000 es 0.000 et 0.004 er 0.004] 
s 82.584365779 _1_ MAC  --- 0 cbr 590 [13a 3 1 800] [energy 0.447838 ei 0.000 es 0.000 et 0.004 er 0.004] ------- [2:0 3:0 29 3] [0] 1 2
N -t 82.584366 -n 0 -e 0.447944
N -t 82.584366 -n 3 -e 0.447368
N -t 82.584367 -n 2 -e 0.445928
N -t 82.584367 -n 4 -e 0.447944
r 82.589086408 _3_ MAC  --- 0 cbr 532 [13a 3 1 800] [energy 0.447368 ei 0.000 es 0.000 et 0.002 er 0.006] ------- [2:0 3:0 29 3] [0] 2 2
s 82.589096408 _3_ MAC  --- 0 ACK 38 [0 1 0 0] [energy 0.447368 ei 0.000 es 0.000 et 0.002 er 0.006] 
N -t 82.589097 -n 1 -e 0.444915
N -t 82.589097 -n 2 -e 0.445837
N -t 82.589097 -n 0 -e 0.447853
N -t 82.589098 -n 4 -e 0.447853
r 82.589111408 _3_ AGT  --- 0 cbr 532 [13a 3 1 800] [energy 0.447186 ei 0.000 es 0.000 et 0.002 er 0.006] ------- [2:0 3:0 29 3] [0] 2 2
r 82.589401038 _1_ MAC  --- 0 ACK 38 [0 1 0 0] [energy 0.444915 ei 0.000 es 0.000 et 0.006 er 0.004] 
s 83.557702901 _2_ AGT  --- 1 cbr 512 [0 0 0 0] [energy 0.445837 ei 0.000 es 0.000 et 0.005 er 0.005] ------- [2:0 3:0 32 0] [1] 0 2
s 83.557957901 _2_ MAC  --- 0 RTS 44 [14ee 1 2 0] [energy 0.445837 ei 0.000 es 0.000 et 0.005 er 0.005] 
N -t 83.557958 -n 4 -e 0.447747
N -t 83.557958 -n 0 -e 0.447747
N -t 83.557959 -n 1 -e 0.444810
N -t 83.557959 -n 3 -e 0.447080
r 83.558310645 _1_ MAC  --- 0 RTS 44 [14ee 1 2 0] [energy 0.444810 ei 0.000 es 0.000 et 0.006 er 0.004] 
s 83.558320645 _1_ MAC  --- 0 CTS 38 [13b4 2 0 0] [energy 0.444810 ei 0.000 es 0.000 et 0.006 er 0.004] 
N -t 83.558321 -n 0 -e 0.447656
N -t 83.558321 -n 3 -e 0.446989
N -t 83.558321 -n 2 -e 0.445534
N -t 83.558322 -n 4 -e 0.447656
r 83.558625389 _2_ MAC  --- 0 CTS 38 [13b4 2 0 0] [energy 0.445534 ei 0.000 es 0.000 et 0.005 er 0.005] 
s 83.558635389 _2_ MAC  --- 1 cbr 590 [13a 1 2 800] [energy 0.445534 ei 0.000 es 0.000 et 0.005 er 0.005] ------- [2:0 3:0 30 1] [1] 0 2
N -t 83.558636 -n 4 -e 0.446240
N -t 83.558636 -n 0 -e 0.446240
N -t 83.558636 -n 1 -e 0.443211
N -t 83.558636 -n 3 -e 0.445573
r 83.563356134 _1_ MAC  --- 1 cbr 532 [13a 1 2 800] [energy 0.443211 ei 0.000 es 0.000 et 0.007 er 0.005] ------- [2:0 3:0 30 1] [1] 1 2
s 83.563366134 _1_ MAC  --- 0 ACK 38 [0 2 0 0] [energy 0.443211 ei 0.000 es 0.000 et 0.007 er 0.005] 
N -t 83.563367 -n 0 -e 0.446149
N -t 83.563367 -n 3 -e 0.445482
N -t 83.563367 -n 2 -e 0.442611
N -t 83.563367 -n 4 -e 0.446149
r 83.563670878 _2_ MAC  --- 0 ACK 38 [0 2 0 0] [energy 0.442611 ei 0.000 es 0.000 et 0.008 er 0.005] 
s 83.564300134 _1_ MAC  --- 0 RTS 44 [14ee 3 1 0] [energy 0.443029 ei 0.000 es 0.000 et 0.007 er 0.005] 
N -t 83.564301 -n 0 -e 0.446043
N -t 83.564301 -n 3 -e 0.445376
N -t 83.564301 -n 2 -e 0.442506
N -t 83.564301 -n 4 -e 0.446043
r 83.564652763 _3_ MAC  --- 0 RTS 44 [14ee 3 1 0] [energy 0.445376 ei 0.000 es 0.000 et 0.002 er 0.008] 
s 83.564662763 _3_ MAC  --- 0 CTS 38 [13b4 1 0 0] [energy 0.445376 ei 0.000 es 0.000 et 0.002 er 0.008] 
N -t 83.564663 -n 1 -e 0.442726
N -t 83.564664 -n 2 -e 0.442414
N -t 83.564664 -n 0 -e 0.445952
N -t 83.564664 -n 4 -e 0.445952
r 83.564967392 _1_ MAC  --- 0 CTS 38 [13b4 1 0 0] [energy 0.442726 ei 0.000 es 0.000 et 0.007 er 0.005] 
s 83.564977392 _1_ MAC  --- 1 cbr 590 [13a 3 1 800] [energy 0.442726 ei 0.000 es 0.000 et 0.007 er 0.005] ------- [2:0 3:0 29 3] [1] 1 2
N -t 83.564978 -n 0 -e 0.444536
N -t 83.564978 -n 3 -e 0.443778
N -t 83.564978 -n 2 -e 0.440998
N -t 83.564978 -n 4 -e 0.444536
r 83.569698021 _3_ MAC  --- 1 cbr 532 [13a 3 1 800] [energy 0.443778 ei 0.000 es 0.000 et 0.002 er 0.009] ------- [2:0 3:0 29 3] [1] 2 2
s 83.569708021 _3_ MAC  --- 0 ACK 38 [0 1 0 0] [energy 0.443778 ei 0.000 es 0.000 et 0.002 er 0.009] 
N -t 83.569709 -n 1 -e 0.439803
N -t 83.569709 -n 2 -e 0.440907
N -t 83.569709 -n 0 -e 0.444445
N -t 83.569709 -n 4 -e 0.444445
r 83.569723021 _3_ AGT  --- 1 cbr 532 [13a 3 1 800] [energy 0.443595 ei 0.000 es 0.000 et 0.002 er 0.009] ------- [2:0 3:0 29 3] [1] 2 2
r 83.570012650 _1_ MAC  --- 0 ACK 38 [0 1 0 0] [energy 0.439803 ei 0.000 es 0.000 et 0.010 er 0.005] 
s 85.489934773 _2_ AGT  --- 2 cbr 512 [0 0 0 0] [energy 0.440907 ei 0.000 es 0.000 et 0.008 er 0.007] ------- [2:0 3:0 32 0] [2] 0 2
s 85.490049773 _2_ MAC  --- 0 RTS 44 [14ee 1 2 0] [energy 0.440907 ei 0.000 es 0.000 et 0.008 er 0.007] 
N -t 85.490050 -n 4 -e 0.444339
N -t 85.490050 -n 0 -e 0.444339
N -t 85.490051 -n 1 -e 0.439698
N -t 85.490051 -n 3 -e 0.443490
r 85.490402518 _1_ MAC  --- 0 RTS 44 [14ee 1 2 0] [energy 0.439698 ei 0.000 es 0.000 et 0.010 er 0.006] 
s 85.490412518 _1_ MAC  --- 0 CTS 38 [13b4 2 0 0] [energy 0.439698 ei 0.000 es 0.000 et 0.010 er 0.006] 
N -t 85.490413 -n 0 -e 0.444248
N -t 85.490413 -n 3 -e 0.443398
N -t 85.490413 -n 2 -e 0.440605
N -t 85.490413 -n 4 -e 0.444248
r 85.490717262 _2_ MAC  --- 0 CTS 38 [13b4 2 0 0] [energy 0.440605 ei 0.000 es 0.000 et 0.008 er 0.007] 
s 85.490727262 _2_ MAC  --- 2 cbr 590 [13a 1 2 800] [energy 0.440605 ei 0.000 es 0.000 et 0.008 er 0.007] ------- [2:0 3:0 30 1] [2] 0 2
N -t 85.490727 -n 4 -e 0.442832
N -t 85.490728 -n 0 -e 0.442832
N -t 85.490728 -n 1 -e 0.438099
N -t 85.490728 -n 3 -e 0.441982
r 85.495448006 _1_ MAC  --- 2 cbr 532 [13a 1 2 800] [energy 0.438099 ei 0.000 es 0.000 et 0.010 er 0.007] ------- [2:0 3:0 30 1] [2] 1 2
s 85.495458006 _1_ MAC  --- 0 ACK 38 [0 2 0 0] [energy 0.438099 ei 0.000 es 0.000 et 0.010 er 0.007] 
N -t 85.495459 -n 0 -e 0.442741
N -t 85.495459 -n 3 -e 0.441891
N -t 85.495459 -n 2 -e 0.437682
N -t 85.495459 -n 4 -e 0.442741
r 85.495762751 _2_ MAC  --- 0 ACK 38 [0 2 0 0] [energy 0.437682 ei 0.000 es 0.000 et 0.011 er 0.007] 
s 85.496112006 _1_ MAC  --- 0 RTS 44 [14ee 3 1 0] [energy 0.437917 ei 0.000 es 0.000 et 0.010 er 0.007] 
N -t 85.496113 -n 0 -e 0.442635
N -t 85.496113 -n 3 -e 0.441786
N -t 85.496113 -n 2 -e 0.437576
N -t 85.496113 -n 4 -e 0.442635
r 85.496464636 _3_ MAC  --- 0 RTS 44 [14ee 3 1 0] [energy 0.441786 ei 0.000 es 0.000 et 0.002 er 0.011] 
s 85.496474636 _3_ MAC  --- 0 CTS 38 [13b4 1 0 0] [energy 0.441786 ei 0.000 es 0.000 et 0.002 er 0.011] 
N -t 85.496475 -n 1 -e 0.437614
N -t 85.496476 -n 2 -e 0.437485
N -t 85.496476 -n 0 -e 0.442544
N -t 85.496476 -n 4 -e 0.442544
r 85.496779265 _1_ MAC  --- 0 CTS 38 [13b4 1 0 0] [energy 0.437614 ei 0.000 es 0.000 et 0.010 er 0.007] 
s 85.496789265 _1_ MAC  --- 2 cbr 590 [13a 3 1 800] [energy 0.437614 ei 0.000 es 0.000 et 0.010 er 0.007] ------- [2:0 3:0 29 3] [2] 1 2
N -t 85.496790 -n 0 -e 0.441128
N -t 85.496790 -n 3 -e 0.440187
N -t 85.496790 -n 2 -e 0.436069
N -t 85.496790 -n 4 -e 0.441128
r 85.501509894 _3_ MAC  --- 2 cbr 532 [13a 3 1 800] [energy 0.440187 ei 0.000 es 0.000 et 0.002 er 0.012] ------- [2:0 3:0 29 3] [2] 2 2
s 85.501519894 _3_ MAC  --- 0 ACK 38 [0 1 0 0] [energy 0.440187 ei 0.000 es 0.000 et 0.002 er 0.012] 
N -t 85.501521 -n 1 -e 0.434691
N -t 85.501521 -n 2 -e 0.435978
N -t 85.501521 -n 0 -e 0.441037
N -t 85.501521 -n 4 -e 0.441037
r 85.501534894 _3_ AGT  --- 2 cbr 532 [13a 3 1 800] [energy 0.440005 ei 0.000 es 0.000 et 0.003 er 0.012] ------- [2:0 3:0 29 3] [2] 2 2
r 85.501824523 _1_ MAC  --- 0 ACK 38 [0 1 0 0] [energy 0.434691 ei 0.000 es 0.000 et 0.013 er 0.007] 
s 86.972386029 _2_ AGT  --- 3 cbr 512 [0 0 0 0] [energy 0.435978 ei 0.000 es 0.000 et 0.011 er 0.008] ------- [2:0 3:0 32 0] [3] 0 2
s 86.972741029 _2_ MAC  --- 0 RTS 44 [14ee 1 2 0] [energy 0.435978 ei 0.000 es 0.000 et 0.011 er 0.008] 
N -t 86.972741 -n 4 -e 0.440931
N -t 86.972741 -n 0 -e 0.440931
N -t 86.972742 -n 1 -e 0.434586
N -t 86.972742 -n 3 -e 0.439899
r 86.973093774 _1_ MAC  --- 0 RTS 44 [14ee 1 2 0] [energy 0.434586 ei 0.000 es 0.000 et 0.013 er 0.007] 
s 86.973103774 _1_ MAC  --- 0 CTS 38 [13b4 2 0 0] [energy 0.434586 ei 0.000 es 0.000 et 0.013 er 0.007] 
N -t 86.973104 -n 0 -e 0.440840
N -t 86.973104 -n 3 -e 0.439808
N -t 86.973105 -n 2 -e 0.435675
N -t 86.973105 -n 4 -e 0.440840
r 86.973408518 _2_ MAC  --- 0 CTS 38 [13b4 2 0 0] [energy 0.435675 ei 0.000 es 0.000 et 0.011 er 0.008] 
s 86.973418518 _2_ MAC  --- 3 cbr 590 [13a 1 2 800] [energy 0.435675 ei 0.000 es 0.000 et 0.011 er 0.008] ------- [2:0 3:0 30 1] [3] 0 2
N -t 86.973419 -n 4 -e 0.439424
N -t 86.973419 -n 0 -e 0.439424
N -t 86.973419 -n 1 -e 0.432987
N -t 86.973420 -n 3 -e 0.438392
r 86.978139262 _1_ MAC  --- 3 cbr 532 [13a 1 2 800] [energy 0.432987 ei 0.000 es 0.000 et 0.013 er 0.009] ------- [2:0 3:0 30 1] [3] 1 2
s 86.978149262 _1_ MAC  --- 0 ACK 38 [0 2 0 0] [energy 0.432987 ei 0.000 es 0.000 et 0.013 er 0.009] 
N -t 86.978150 -n 0 -e 0.439333
N -t 86.978150 -n 3 -e 0.438301
N -t 86.978150 -n 2 -e 0.432752
N -t 86.978150 -n 4 -e 0.439333
r 86.978454007 _2_ MAC  --- 0 ACK 38 [0 2 0 0] [energy 0.432752 ei 0.000 es 0.000 et 0.014 er 0.009] 
s 86.978703262 _1_ MAC  --- 0 RTS 44 [14ee 3 1 0] [energy 0.432805 ei 0.000 es 0.000 et 0.014 er 0.009] 
N -t 86.978704 -n 0 -e 0.439227
N -t 86.978704 -n 3 -e 0.438195
N -t 86.978704 -n 2 -e 0.432646
N -t 86.978704 -n 4 -e 0.439227
r 86.979055892 _3_ MAC  --- 0 RTS 44 [14ee 3 1 0] [energy 0.438195 ei 0.000 es 0.000 et 0.003 er 0.014] 
s 86.979065892 _3_ MAC  --- 0 CTS 38 [13b4 1 0 0] [energy 0.438195 ei 0.000 es 0.000 et 0.003 er 0.014] 
N -t 86.979067 -n 1 -e 0.432502
N -t 86.979067 -n 2 -e 0.432555
N -t 86.979067 -n 0 -e 0.439136
N -t 86.979067 -n 4 -e 0.439136
r 86.979370521 _1_ MAC  --- 0 CTS 38 [13b4 1 0 0] [energy 0.432502 ei 0.000 es 0.000 et 0.014 er 0.009] 
s 86.979380521 _1_ MAC  --- 3 cbr 590 [13a 3 1 800] [energy 0.432502 ei 0.000 es 0.000 et 0.014 er 0.009] ------- [2:0 3:0 29 3] [3] 1 2
N -t 86.979381 -n 0 -e 0.437720
N -t 86.979381 -n 3 -e 0.436597
N -t 86.979381 -n 2 -e 0.431139
N -t 86.979381 -n 4 -e 0.437720
r 86.984101150 _3_ MAC  --- 3 cbr 532 [13a 3 1 800] [energy 0.436597 ei 0.000 es 0.000 et 0.003 er 0.016] ------- [2:0 3:0 29 3] [3] 2 2
s 86.984111150 _3_ MAC  --- 0 ACK 38 [0 1 0 0] [energy 0.436597 ei 0.000 es 0.000 et 0.003 er 0.016] 
N -t 86.984112 -n 1 -e 0.429579
N -t 86.984112 -n 2 -e 0.431048
N -t 86.984112 -n 0 -e 0.437629
N -t 86.984112 -n 4 -e 0.437629
r 86.984126150 _3_ AGT  --- 3 cbr 532 [13a 3 1 800] [energy 0.436414 ei 0.000 es 0.000 et 0.003 er 0.016] ------- [2:0 3:0 29 3] [3] 2 2
r 86.984415779 _1_ MAC  --- 0 ACK 38 [0 1 0 0] [energy 0.429579 ei 0.000 es 0.000 et 0.017 er 0.009] 
s 88.783424184 _2_ AGT  --- 4 cbr 512 [0 0 0 0] [energy 0.431048 ei 0.000 es 0.000 et 0.014 er 0.010] ------- [2:0 3:0 32 0] [4] 0 2
s 88.783699184 _2_ MAC  --- 0 RTS 44 [14ee 1 2 0] [energy 0.431048 ei 0.000 es 0.000 et 0.014 er 0.010] 
N -t 88.783699 -n 4 -e 0.437523
N -t 88.783699 -n 0 -e 0.437523
N -t 88.783700 -n 1 -e 0.429474
N -t 88.783700 -n 3 -e 0.436309
r 88.784051928 _1_ MAC  --- 0 RTS 44 [14ee 1 2 0] [energy 0.429474 ei 0.000 es 0.000 et 0.017 er 0.009] 
s 88.784061928 _1_ MAC  --- 0 CTS 38 [13b4 2 0 0] [energy 0.429474 ei 0.000 es 0.000 et 0.017 er 0.009] 
N -t 88.784063 -n 0 -e 0.437432
N -t 88.784063 -n 3 -e 0.436218
N -t 88.784063 -n 2 -e 0.430746
N -t 88.784063 -n 4 -e 0.437432
r 88.784366672 _2_ MAC  --- 0 CTS 38 [13b4 2 0 0] [energy 0.430746 ei 0.000 es 0.000 et 0.014 er 0.010] 
s 88.784376672 _2_ MAC  --- 4 cbr 590 [13a 1 2 800] [energy 0.430746 ei 0.000 es 0.000 et 0.014 er 0.010] ------- [2:0 3:0 30 1] [4] 0 2
N -t 88.784377 -n 4 -e 0.436016
N -t 88.784377 -n 0 -e 0.436016
N -t 88.784377 -n 1 -e 0.427875
N -t 88.784378 -n 3 -e 0.434802
r 88.789097417 _1_ MAC  --- 4 cbr 532 [13a 1 2 800] [energy 0.427875 ei 0.000 es 0.000 et 0.017 er 0.010] ------- [2:0 3:0 30 1] [4] 1 2
s 88.789107417 _1_ MAC  --- 0 ACK 38 [0 2 0 0] [energy 0.427875 ei 0.000 es 0.000 et 0.017 er 0.010] 
N -t 88.789108 -n 0 -e 0.435925
N -t 88.789108 -n 3 -e 0.434710
N -t 88.789108 -n 2 -e 0.427822
N -t 88.789108 -n 4 -e 0.435925
r 88.789412161 _2_ MAC  --- 0 ACK 38 [0 2 0 0] [energy 0.427822 ei 0.000 es 0.000 et 0.017 er 0.010] 
s 88.790041417 _1_ MAC  --- 0 RTS 44 [14ee 3 1 0] [energy 0.427693 ei 0.000 es 0.000 et 0.017 er 0.010] 
N -t 88.790042 -n 0 -e 0.435819
N -t 88.790042 -n 3 -e 0.434605
N -t 88.790042 -n 2 -e 0.427717
N -t 88.790042 -n 4 -e 0.435819
r 88.790394046 _3_ MAC  --- 0 RTS 44 [14ee 3 1 0] [energy 0.434605 ei 0.000 es 0.000 et 0.003 er 0.017] 
s 88.790404046 _3_ MAC  --- 0 CTS 38 [13b4 1 0 0] [energy 0.434605 ei 0.000 es 0.000 et 0.003 er 0.017] 
N -t 88.790405 -n 1 -e 0.427390
N -t 88.790405 -n 2 -e 0.427626
N -t 88.790405 -n 0 -e 0.435728
N -t 88.790405 -n 4 -e 0.435728
r 88.790708675 _1_ MAC  --- 0 CTS 38 [13b4 1 0 0] [energy 0.427390 ei 0.000 es 0.000 et 0.017 er 0.010] 
s 88.790718675 _1_ MAC  --- 4 cbr 590 [13a 3 1 800] [energy 0.427390 ei 0.000 es 0.000 et 0.017 er 0.010] ------- [2:0 3:0 29 3] [4] 1 2
N -t 88.790719 -n 0 -e 0.434312
N -t 88.790719 -n 3 -e 0.433006
N -t 88.790719 -n 2 -e 0.426210
N -t 88.790720 -n 4 -e 0.434312
r 88.795439304 _3_ MAC  --- 4 cbr 532 [13a 3 1 800] [energy 0.433006 ei 0.000 es 0.000 et 0.003 er 0.019] ------- [2:0 3:0 29 3] [4] 2 2
s 88.795449304 _3_ MAC  --- 0 ACK 38 [0 1 0 0] [energy 0.433006 ei 0.000 es 0.000 et 0.003 er 0.019] 
N -t 88.795450 -n 1 -e 0.424467
N -t 88.795450 -n 2 -e 0.426118
N -t 88.795450 -n 0 -e 0.434221
N -t 88.795451 -n 4 -e 0.434221
r 88.795464304 _3_ AGT  --- 4 cbr 532 [13a 3 1 800] [energy 0.432824 ei 0.000 es 0.000 et 0.003 er 0.019] ------- [2:0 3:0 29 3] [4] 2 2
r 88.795753933 _1_ MAC  --- 0 ACK 38 [0 1 0 0] [energy 0.424467 ei 0.000 es 0.000 et 0.020 er 0.011] 
s 91.675954090 _2_ AGT  --- 5 cbr 512 [0 0 0 0] [energy 0.426118 ei 0.000 es 0.000 et 0.017 er 0.012] ------- [2:0 3:0 32 0] [5] 0 2
s 91.676529090 _2_ MAC  --- 0 RTS 44 [14ee 1 2 0] [energy 0.426118 ei 0.000 es 0.000 et 0.017 er 0.012] 
N -t 91.676529 -n 4 -e 0.434115
N -t 91.676529 -n 0 -e 0.434115
N -t 91.676530 -n 1 -e 0.424362
N -t 91.676530 -n 3 -e 0.432718
r 91.676881835 _1_ MAC  --- 0 RTS 44 [14ee 1 2 0] [energy 0.424362 ei 0.000 es 0.000 et 0.020 er 0.011] 
s 91.676891835 _1_ MAC  --- 0 CTS 38 [13b4 2 0 0] [energy 0.424362 ei 0.000 es 0.000 et 0.020 er 0.011] 
N -t 91.676892 -n 0 -e 0.434024
N -t 91.676892 -n 3 -e 0.432627
N -t 91.676893 -n 2 -e 0.425816
N -t 91.676893 -n 4 -e 0.434024
r 91.677196579 _2_ MAC  --- 0 CTS 38 [13b4 2 0 0] [energy 0.425816 ei 0.000 es 0.000 et 0.017 er 0.012] 
s 91.677206579 _2_ MAC  --- 5 cbr 590 [13a 1 2 800] [energy 0.425816 ei 0.000 es 0.000 et 0.017 er 0.012] ------- [2:0 3:0 30 1] [5] 0 2
N -t 91.677207 -n 4 -e 0.432608
N -t 91.677207 -n 0 -e 0.432608
N -t 91.677207 -n 1 -e 0.422763
N -t 91.677208 -n 3 -e 0.431211
r 91.681927323 _1_ MAC  --- 5 cbr 532 [13a 1 2 800] [energy 0.422763 ei 0.000 es 0.000 et 0.020 er 0.012] ------- [2:0 3:0 30 1] [5] 1 2
s 91.681937323 _1_ MAC  --- 0 ACK 38 [0 2 0 0] [energy 0.422763 ei 0.000 es 0.000 et 0.020 er 0.012] 
N -t 91.681938 -n 0 -e 0.432517
N -t 91.681938 -n 3 -e 0.431120
N -t 91.681938 -n 2 -e 0.422893
N -t 91.681938 -n 4 -e 0.432517
r 91.682242068 _2_ MAC  --- 0 ACK 38 [0 2 0 0] [energy 0.422893 ei 0.000 es 0.000 et 0.020 er 0.012] 
s 91.682571323 _1_ MAC  --- 0 RTS 44 [14ee 3 1 0] [energy 0.422581 ei 0.000 es 0.000 et 0.020 er 0.012] 
N -t 91.682572 -n 0 -e 0.432411
N -t 91.682572 -n 3 -e 0.431014
N -t 91.682572 -n 2 -e 0.422787
N -t 91.682572 -n 4 -e 0.432411
r 91.682923952 _3_ MAC  --- 0 RTS 44 [14ee 3 1 0] [energy 0.431014 ei 0.000 es 0.000 et 0.003 er 0.021] 
s 91.682933952 _3_ MAC  --- 0 CTS 38 [13b4 1 0 0] [energy 0.431014 ei 0.000 es 0.000 et 0.003 er 0.021] 
N -t 91.682935 -n 1 -e 0.422278
N -t 91.682935 -n 2 -e 0.422696
N -t 91.682935 -n 0 -e 0.432320
N -t 91.682935 -n 4 -e 0.432320
r 91.683238582 _1_ MAC  --- 0 CTS 38 [13b4 1 0 0] [energy 0.422278 ei 0.000 es 0.000 et 0.021 er 0.012] 
s 91.683248582 _1_ MAC  --- 5 cbr 590 [13a 3 1 800] [energy 0.422278 ei 0.000 es 0.000 et 0.021 er 0.012] ------- [2:0 3:0 29 3] [5] 1 2
N -t 91.683249 -n 0 -e 0.430904
N -t 91.683249 -n 3 -e 0.429416
N -t 91.683249 -n 2 -e 0.421280
N -t 91.683250 -n 4 -e 0.430904
r 91.687969211 _3_ MAC  --- 5 cbr 532 [13a 3 1 800] [energy 0.429416 ei 0.000 es 0.000 et 0.003 er 0.022] ------- [2:0 3:0 29 3] [5] 2 2
s 91.687979211 _3_ MAC  --- 0 ACK 38 [0 1 0 0] [energy 0.429416 ei 0.000 es 0.000 et 0.003 er 0.022] 
N -t 91.687980 -n 1 -e 0.419355
N -t 91.687980 -n 2 -e 0.421189
N -t 91.687980 -n 0 -e 0.430813
N -t 91.687980 -n 4 -e 0.430813
r 91.687994211 _3_ AGT  --- 5 cbr 532 [13a 3 1 800] [energy 0.429234 ei 0.000 es 0.000 et 0.004 er 0.022] ------- [2:0 3:0 29 3] [5] 2 2
r 91.688283840 _1_ MAC  --- 0 ACK 38 [0 1 0 0] [energy 0.419355 ei 0.000 es 0.000 et 0.023 er 0.012] 
s 93.866008866 _2_ AGT  --- 6 cbr 512 [0 0 0 0] [energy 0.421189 ei 0.000 es 0.000 et 0.020 er 0.014] ------- [2:0 3:0 32 0] [6] 0 2
s 93.866083866 _2_ MAC  --- 0 RTS 44 [14ee 1 2 0] [energy 0.421189 ei 0.000 es 0.000 et 0.020 er 0.014] 
N -t 93.866084 -n 4 -e 0.430707
N -t 93.866084 -n 0 -e 0.430707
N -t 93.866085 -n 1 -e 0.419250
N -t 93.866085 -n 3 -e 0.429128
r 93.866436610 _1_ MAC  --- 0 RTS 44 [14ee 1 2 0] [energy 0.419250 ei 0.000 es 0.000 et 0.023 er 0.012] 
s 93.866446610 _1_ MAC  --- 0 CTS 38 [13b4 2 0 0] [energy 0.419250 ei 0.000 es 0.000 et 0.023 er 0.012] 
N -t 93.866447 -n 0 -e 0.430616
N -t 93.866447 -n 3 -e 0.429037
N -t 93.866447 -n 2 -e 0.420886
N -t 93.866448 -n 4 -e 0.430616
r 93.866751355 _2_ MAC  --- 0 CTS 38 [13b4 2 0 0] [energy 0.420886 ei 0.000 es 0.000 et 0.020 er 0.014] 
s 93.866761355 _2_ MAC  --- 6 cbr 590 [13a 1 2 800] [energy 0.420886 ei 0.000 es 0.000 et 0.020 er 0.014] ------- [2:0 3:0 30 1] [6] 0 2
N -t 93.866762 -n 4 -e 0.429200
N -t 93.866762 -n 0 -e 0.429200
N -t 93.866762 -n 1 -e 0.417651
N -t 93.866762 -n 3 -e 0.427621
r 93.871482099 _1_ MAC  --- 6 cbr 532 [13a 1 2 800] [energy 0.417651 ei 0.000 es 0.000 et 0.024 er 0.014] ------- [2:0 3:0 30 1] [6] 1 2
s 93.871492099 _1_ MAC  --- 0 ACK 38 [0 2 0 0] [energy 0.417651 ei 0.000 es 0.000 et 0.024 er 0.014] 
N -t 93.871493 -n 0 -e 0.429109
N -t 93.871493 -n 3 -e 0.427530
N -t 93.871493 -n 2 -e 0.417963
N -t 93.871493 -n 4 -e 0.429109
r 93.871796843 _2_ MAC  --- 0 ACK 38 [0 2 0 0] [energy 0.417963 ei 0.000 es 0.000 et 0.023 er 0.014] 