+ 0 5 4 message 900 ------- 0 5.42 4.42 -1 0
- 0 5 4 message 900 ------- 0 5.42 4.42 -1 0
+ 0 5 6 message 900 ------- 0 5.42 6.42 -1 1
- 0 5 6 message 900 ------- 0 5.42 6.42 -1 1
r 0.0186 5 4 message 900 ------- 0 5.42 4.42 -1 0
+ 0.0186 4 3 message 900 ------- 0 4.42 3.42 -1 2
- 0.0186 4 3 message 900 ------- 0 4.42 3.42 -1 2
r 0.0186 5 6 message 900 ------- 0 5.42 6.42 -1 1
+ 0.0186 6 0 message 900 ------- 0 6.42 0.42 -1 3
- 0.0186 6 0 message 900 ------- 0 6.42 0.42 -1 3
r 0.0372 4 3 message 900 ------- 0 4.42 3.42 -1 2
+ 0.0372 3 2 message 900 ------- 0 3.42 2.42 -1 4
- 0.0372 3 2 message 900 ------- 0 3.42 2.42 -1 4
r 0.0372 6 0 message 900 ------- 0 6.42 0.42 -1 3
+ 0.0372 0 1 message 900 ------- 0 0.42 1.42 -1 5
- 0.0372 0 1 message 900 ------- 0 0.42 1.42 -1 5
+ 0.0372 0 9 message 900 ------- 0 0.42 9.42 -1 6
- 0.0372 0 9 message 900 ------- 0 0.42 9.42 -1 6
r 0.0558 3 2 message 900 ------- 0 3.42 2.42 -1 4
+ 0.0558 2 1 message 900 ------- 0 2.42 1.42 -1 7
- 0.0558 2 1 message 900 ------- 0 2.42 1.42 -1 7
+ 0.0558 2 28 message 900 ------- 0 2.42 28.42 -1 8
- 0.0558 2 28 message 900 ------- 0 2.42 28.42 -1 8
r 0.0558 0 1 message 900 ------- 0 0.42 1.42 -1 5
+ 0.0558 1 2 message 900 ------- 0 1.42 2.42 -1 9
- 0.0558 1 2 message 900 ------- 0 1.42 2.42 -1 9
r 0.0558 0 9 message 900 ------- 0 0.42 9.42 -1 6
+ 0.0558 9 8 message 900 ------- 0 9.42 8.42 -1 10
- 0.0558 9 8 message 900 ------- 0 9.42 8.42 -1 10
+ 0.0558 9 10 message 900 ------- 0 9.42 10.42 -1 11
- 0.0558 9 10 message 900 ------- 0 9.42 10.42 -1 11
r 0.0744 2 1 message 900 ------- 0 2.42 1.42 -1 7
r 0.0744 2 28 message 900 ------- 0 2.42 28.42 -1 8
+ 0.0744 28 34 message 900 ------- 0 28.42 34.42 -1 12
- 0.0744 28 34 message 900 ------- 0 28.42 34.42 -1 12
+ 0.0744 28 29 message 900 ------- 0 28.42 29.42 -1 13
- 0.0744 28 29 message 900 ------- 0 28.42 29.42 -1 13
r 0.0744 1 2 message 900 ------- 0 1.42 2.42 -1 9
r 0.0744 9 8 message 900 ------- 0 9.42 8.42 -1 10
+ 0.0744 8 7 message 900 ------- 0 8.42 7.42 -1 14
- 0.0744 8 7 message 900 ------- 0 8.42 7.42 -1 14
+ 0.0744 8 24 message 900 ------- 0 8.42 24.42 -1 15
- 0.0744 8 24 message 900 ------- 0 8.42 24.42 -1 15
r 0.0744 9 10 message 900 ------- 0 9.42 10.42 -1 11
+ 0.0744 10 11 message 900 ------- 0 10.42 11.42 -1 16
- 0.0744 10 11 message 900 ------- 0 10.42 11.42 -1 16
+ 0.0744 10 29 message 900 ------- 0 10.42 29.42 -1 17
- 0.0744 10 29 message 900 ------- 0 10.42 29.42 -1 17
r 0.093 28 34 message 900 ------- 0 28.42 34.42 -1 12
+ 0.093 34 33 message 900 ------- 0 34.42 33.42 -1 18
- 0.093 34 33 message 900 ------- 0 34.42 33.42 -1 18
r 0.093 28 29 message 900 ------- 0 28.42 29.42 -1 13
+ 0.093 29 30 message 900 ------- 0 29.42 30.42 -1 19
- 0.093 29 30 message 900 ------- 0 29.42 30.42 -1 19
+ 0.093 29 10 message 900 ------- 0 29.42 10.42 -1 20
- 0.093 29 10 message 900 ------- 0 29.42 10.42 -1 20
r 0.093 8 7 message 900 ------- 0 8.42 7.42 -1 14
+ 0.093 7 13 message 900 ------- 0 7.42 13.42 -1 21
- 0.093 7 13 message 900 ------- 0 7.42 13.42 -1 21
+ 0.093 7 16 message 900 ------- 0 7.42 16.42 -1 22
- 0.093 7 16 message 900 ------- 0 7.42 16.42 -1 22
r 0.093 8 24 message 900 ------- 0 8.42 24.42 -1 15
+ 0.093 24 23 message 900 ------- 0 24.42 23.42 -1 23
- 0.093 24 23 message 900 ------- 0 24.42 23.42 -1 23
+ 0.093 24 25 message 900 ------- 0 24.42 25.42 -1 24
- 0.093 24 25 message 900 ------- 0 24.42 25.42 -1 24
r 0.093 10 11 message 900 ------- 0 10.42 11.42 -1 16
+ 0.093 11 12 message 900 ------- 0 11.42 12.42 -1 25
- 0.093 11 12 message 900 ------- 0 11.42 12.42 -1 25
r 0.093 10 29 message 900 ------- 0 10.42 29.42 -1 17
r 0.1116 34 33 message 900 ------- 0 34.42 33.42 -1 18
+ 0.1116 33 32 message 900 ------- 0 33.42 32.42 -1 26
- 0.1116 33 32 message 900 ------- 0 33.42 32.42 -1 26
r 0.1116 29 30 message 900 ------- 0 29.42 30.42 -1 19
+ 0.1116 30 31 message 900 ------- 0 30.42 31.42 -1 27
- 0.1116 30 31 message 900 ------- 0 30.42 31.42 -1 27
+ 0.1116 30 21 message 900 ------- 0 30.42 21.42 -1 28
- 0.1116 30 21 message 900 ------- 0 30.42 21.42 -1 28
r 0.1116 29 10 message 900 ------- 0 29.42 10.42 -1 20
r 0.1116 7 13 message 900 ------- 0 7.42 13.42 -1 21
+ 0.1116 13 12 message 900 ------- 0 13.42 12.42 -1 29
- 0.1116 13 12 message 900 ------- 0 13.42 12.42 -1 29
r 0.1116 7 16 message 900 ------- 0 7.42 16.42 -1 22
+ 0.1116 16 15 message 900 ------- 0 16.42 15.42 -1 30
- 0.1116 16 15 message 900 ------- 0 16.42 15.42 -1 30
+ 0.1116 16 17 message 900 ------- 0 16.42 17.42 -1 31
- 0.1116 16 17 message 900 ------- 0 16.42 17.42 -1 31
r 0.1116 24 23 message 900 ------- 0 24.42 23.42 -1 23
+ 0.1116 23 14 message 900 ------- 0 23.42 14.42 -1 32
- 0.1116 23 14 message 900 ------- 0 23.42 14.42 -1 32
+ 0.1116 23 22 message 900 ------- 0 23.42 22.42 -1 33
- 0.1116 23 22 message 900 ------- 0 23.42 22.42 -1 33
r 0.1116 24 25 message 900 ------- 0 24.42 25.42 -1 24
+ 0.1116 25 26 message 900 ------- 0 25.42 26.42 -1 34
- 0.1116 25 26 message 900 ------- 0 25.42 26.42 -1 34
r 0.1116 11 12 message 900 ------- 0 11.42 12.42 -1 25
+ 0.1116 12 13 message 900 ------- 0 12.42 13.42 -1 35
- 0.1116 12 13 message 900 ------- 0 12.42 13.42 -1 35
r 0.1302 33 32 message 900 ------- 0 33.42 32.42 -1 26
+ 0.1302 32 31 message 900 ------- 0 32.42 31.42 -1 36
- 0.1302 32 31 message 900 ------- 0 32.42 31.42 -1 36
r 0.1302 30 31 message 900 ------- 0 30.42 31.42 -1 27
+ 0.1302 31 32 message 900 ------- 0 31.42 32.42 -1 37
- 0.1302 31 32 message 900 ------- 0 31.42 32.42 -1 37
r 0.1302 30 21 message 900 ------- 0 30.42 21.42 -1 28
+ 0.1302 21 22 message 900 ------- 0 21.42 22.42 -1 38
- 0.1302 21 22 message 900 ------- 0 21.42 22.42 -1 38
+ 0.1302 21 27 message 900 ------- 0 21.42 27.42 -1 39
- 0.1302 21 27 message 900 ------- 0 21.42 27.42 -1 39
r 0.1302 13 12 message 900 ------- 0 13.42 12.42 -1 29
r 0.1302 16 15 message 900 ------- 0 16.42 15.42 -1 30
+ 0.1302 15 14 message 900 ------- 0 15.42 14.42 -1 40
- 0.1302 15 14 message 900 ------- 0 15.42 14.42 -1 40
r 0.1302 16 17 message 900 ------- 0 16.42 17.42 -1 31
+ 0.1302 17 18 message 900 ------- 0 17.42 18.42 -1 41
- 0.1302 17 18 message 900 ------- 0 17.42 18.42 -1 41
r 0.1302 23 14 message 900 ------- 0 23.42 14.42 -1 32
+ 0.1302 14 15 message 900 ------- 0 14.42 15.42 -1 42
- 0.1302 14 15 message 900 ------- 0 14.42 15.42 -1 42
+ 0.1302 14 20 message 900 ------- 0 14.42 20.42 -1 43
- 0.1302 14 20 message 900 ------- 0 14.42 20.42 -1 43
r 0.1302 23 22 message 900 ------- 0 23.42 22.42 -1 33
+ 0.1302 22 21 message 900 ------- 0 22.42 21.42 -1 44
- 0.1302 22 21 message 900 ------- 0 22.42 21.42 -1 44
r 0.1302 25 26 message 900 ------- 0 25.42 26.42 -1 34
+ 0.1302 26 27 message 900 ------- 0 26.42 27.42 -1 45
- 0.1302 26 27 message 900 ------- 0 26.42 27.42 -1 45
r 0.1302 12 13 message 900 ------- 0 12.42 13.42 -1 35
r 0.1488 32 31 message 900 ------- 0 32.42 31.42 -1 36
r 0.1488 31 32 message 900 ------- 0 31.42 32.42 -1 37
r 0.1488 21 22 message 900 ------- 0 21.42 22.42 -1 38
r 0.1488 21 27 message 900 ------- 0 21.42 27.42 -1 39
+ 0.1488 27 26 message 900 ------- 0 27.42 26.42 -1 46
- 0.1488 27 26 message 900 ------- 0 27.42 26.42 -1 46
r 0.1488 15 14 message 900 ------- 0 15.42 14.42 -1 40
r 0.1488 17 18 message 900 ------- 0 17.42 18.42 -1 41
+ 0.1488 18 19 message 900 ------- 0 18.42 19.42 -1 47
- 0.1488 18 19 message 900 ------- 0 18.42 19.42 -1 47
r 0.1488 14 15 message 900 ------- 0 14.42 15.42 -1 42
r 0.1488 14 20 message 900 ------- 0 14.42 20.42 -1 43
+ 0.1488 20 19 message 900 ------- 0 20.42 19.42 -1 48
- 0.1488 20 19 message 900 ------- 0 20.42 19.42 -1 48
r 0.1488 22 21 message 900 ------- 0 22.42 21.42 -1 44
r 0.1488 26 27 message 900 ------- 0 26.42 27.42 -1 45
r 0.1674 27 26 message 900 ------- 0 27.42 26.42 -1 46
r 0.1674 18 19 message 900 ------- 0 18.42 19.42 -1 47
+ 0.1674 19 20 message 900 ------- 0 19.42 20.42 -1 49
- 0.1674 19 20 message 900 ------- 0 19.42 20.42 -1 49
r 0.1674 20 19 message 900 ------- 0 20.42 19.42 -1 48
r 0.186 19 20 message 900 ------- 0 19.42 20.42 -1 49
+ 0.3 17 16 message 700 ------- 0 17.42 16.42 -1 50
- 0.3 17 16 message 700 ------- 0 17.42 16.42 -1 50
+ 0.3 17 18 message 700 ------- 0 17.42 18.42 -1 51
- 0.3 17 18 message 700 ------- 0 17.42 18.42 -1 51
r 0.3178 17 16 message 700 ------- 0 17.42 16.42 -1 50
+ 0.3178 16 7 message 700 ------- 0 16.42 7.42 -1 52
- 0.3178 16 7 message 700 ------- 0 16.42 7.42 -1 52
+ 0.3178 16 15 message 700 ------- 0 16.42 15.42 -1 53
- 0.3178 16 15 message 700 ------- 0 16.42 15.42 -1 53
r 0.3178 17 18 message 700 ------- 0 17.42 18.42 -1 51
+ 0.3178 18 19 message 700 ------- 0 18.42 19.42 -1 54
- 0.3178 18 19 message 700 ------- 0 18.42 19.42 -1 54
r 0.3356 16 7 message 700 ------- 0 16.42 7.42 -1 52
+ 0.3356 7 8 message 700 ------- 0 7.42 8.42 -1 55
- 0.3356 7 8 message 700 ------- 0 7.42 8.42 -1 55
+ 0.3356 7 13 message 700 ------- 0 7.42 13.42 -1 56
- 0.3356 7 13 message 700 ------- 0 7.42 13.42 -1 56
r 0.3356 16 15 message 700 ------- 0 16.42 15.42 -1 53
+ 0.3356 15 14 message 700 ------- 0 15.42 14.42 -1 57
- 0.3356 15 14 message 700 ------- 0 15.42 14.42 -1 57
r 0.3356 18 19 message 700 ------- 0 18.42 19.42 -1 54
+ 0.3356 19 20 message 700 ------- 0 19.42 20.42 -1 58
- 0.3356 19 20 message 700 ------- 0 19.42 20.42 -1 58
r 0.3534 7 8 message 700 ------- 0 7.42 8.42 -1 55
+ 0.3534 8 9 message 700 ------- 0 8.42 9.42 -1 59
- 0.3534 8 9 message 700 ------- 0 8.42 9.42 -1 59
+ 0.3534 8 24 message 700 ------- 0 8.42 24.42 -1 60
- 0.3534 8 24 message 700 ------- 0 8.42 24.42 -1 60
r 0.3534 7 13 message 700 ------- 0 7.42 13.42 -1 56
+ 0.3534 13 12 message 700 ------- 0 13.42 12.42 -1 61
- 0.3534 13 12 message 700 ------- 0 13.42 12.42 -1 61
r 0.3534 15 14 message 700 ------- 0 15.42 14.42 -1 57
+ 0.3534 14 20 message 700 ------- 0 14.42 20.42 -1 62
- 0.3534 14 20 message 700 ------- 0 14.42 20.42 -1 62
+ 0.3534 14 23 message 700 ------- 0 14.42 23.42 -1 63
- 0.3534 14 23 message 700 ------- 0 14.42 23.42 -1 63
r 0.3534 19 20 message 700 ------- 0 19.42 20.42 -1 58
+ 0.3534 20 14 message 700 ------- 0 20.42 14.42 -1 64
- 0.3534 20 14 message 700 ------- 0 20.42 14.42 -1 64
r 0.3712 8 9 message 700 ------- 0 8.42 9.42 -1 59
+ 0.3712 9 0 message 700 ------- 0 9.42 0.42 -1 65
- 0.3712 9 0 message 700 ------- 0 9.42 0.42 -1 65
+ 0.3712 9 10 message 700 ------- 0 9.42 10.42 -1 66
- 0.3712 9 10 message 700 ------- 0 9.42 10.42 -1 66
r 0.3712 8 24 message 700 ------- 0 8.42 24.42 -1 60
+ 0.3712 24 23 message 700 ------- 0 24.42 23.42 -1 67
- 0.3712 24 23 message 700 ------- 0 24.42 23.42 -1 67
+ 0.3712 24 25 message 700 ------- 0 24.42 25.42 -1 68
- 0.3712 24 25 message 700 ------- 0 24.42 25.42 -1 68
r 0.3712 13 12 message 700 ------- 0 13.42 12.42 -1 61
+ 0.3712 12 11 message 700 ------- 0 12.42 11.42 -1 69
- 0.3712 12 11 message 700 ------- 0 12.42 11.42 -1 69
r 0.3712 14 20 message 700 ------- 0 14.42 20.42 -1 62
r 0.3712 14 23 message 700 ------- 0 14.42 23.42 -1 63
+ 0.3712 23 22 message 700 ------- 0 23.42 22.42 -1 70
- 0.3712 23 22 message 700 ------- 0 23.42 22.42 -1 70
+ 0.3712 23 24 message 700 ------- 0 23.42 24.42 -1 71
- 0.3712 23 24 message 700 ------- 0 23.42 24.42 -1 71
r 0.3712 20 14 message 700 ------- 0 20.42 14.42 -1 64
r 0.389 9 0 message 700 ------- 0 9.42 0.42 -1 65
+ 0.389 0 1 message 700 ------- 0 0.42 1.42 -1 72
- 0.389 0 1 message 700 ------- 0 0.42 1.42 -1 72
+ 0.389 0 6 message 700 ------- 0 0.42 6.42 -1 73
- 0.389 0 6 message 700 ------- 0 0.42 6.42 -1 73
r 0.389 9 10 message 700 ------- 0 9.42 10.42 -1 66
+ 0.389 10 11 message 700 ------- 0 10.42 11.42 -1 74
- 0.389 10 11 message 700 ------- 0 10.42 11.42 -1 74
+ 0.389 10 29 message 700 ------- 0 10.42 29.42 -1 75
- 0.389 10 29 message 700 ------- 0 10.42 29.42 -1 75
r 0.389 24 23 message 700 ------- 0 24.42 23.42 -1 67
r 0.389 24 25 message 700 ------- 0 24.42 25.42 -1 68
+ 0.389 25 26 message 700 ------- 0 25.42 26.42 -1 76
- 0.389 25 26 message 700 ------- 0 25.42 26.42 -1 76
r 0.389 12 11 message 700 ------- 0 12.42 11.42 -1 69
+ 0.389 11 10 message 700 ------- 0 11.42 10.42 -1 77
- 0.389 11 10 message 700 ------- 0 11.42 10.42 -1 77
r 0.389 23 22 message 700 ------- 0 23.42 22.42 -1 70
+ 0.389 22 21 message 700 ------- 0 22.42 21.42 -1 78
- 0.389 22 21 message 700 ------- 0 22.42 21.42 -1 78
r 0.389 23 24 message 700 ------- 0 23.42 24.42 -1 71
r 0.4068 0 1 message 700 ------- 0 0.42 1.42 -1 72
+ 0.4068 1 2 message 700 ------- 0 1.42 2.42 -1 79
- 0.4068 1 2 message 700 ------- 0 1.42 2.42 -1 79
r 0.4068 0 6 message 700 ------- 0 0.42 6.42 -1 73
+ 0.4068 6 5 message 700 ------- 0 6.42 5.42 -1 80
- 0.4068 6 5 message 700 ------- 0 6.42 5.42 -1 80
r 0.4068 10 11 message 700 ------- 0 10.42 11.42 -1 74
r 0.4068 10 29 message 700 ------- 0 10.42 29.42 -1 75
+ 0.4068 29 30 message 700 ------- 0 29.42 30.42 -1 81
- 0.4068 29 30 message 700 ------- 0 29.42 30.42 -1 81
+ 0.4068 29 28 message 700 ------- 0 29.42 28.42 -1 82
- 0.4068 29 28 message 700 ------- 0 29.42 28.42 -1 82
r 0.4068 25 26 message 700 ------- 0 25.42 26.42 -1 76
+ 0.4068 26 27 message 700 ------- 0 26.42 27.42 -1 83
- 0.4068 26 27 message 700 ------- 0 26.42 27.42 -1 83
r 0.4068 11 10 message 700 ------- 0 11.42 10.42 -1 77
r 0.4068 22 21 message 700 ------- 0 22.42 21.42 -1 78
+ 0.4068 21 30 message 700 ------- 0 21.42 30.42 -1 84
- 0.4068 21 30 message 700 ------- 0 21.42 30.42 -1 84
+ 0.4068 21 27 message 700 ------- 0 21.42 27.42 -1 85
- 0.4068 21 27 message 700 ------- 0 21.42 27.42 -1 85
r 0.4246 1 2 message 700 ------- 0 1.42 2.42 -1 79
+ 0.4246 2 3 message 700 ------- 0 2.42 3.42 -1 86
- 0.4246 2 3 message 700 ------- 0 2.42 3.42 -1 86
+ 0.4246 2 28 message 700 ------- 0 2.42 28.42 -1 87
- 0.4246 2 28 message 700 ------- 0 2.42 28.42 -1 87
r 0.4246 6 5 message 700 ------- 0 6.42 5.42 -1 80
+ 0.4246 5 4 message 700 ------- 0 5.42 4.42 -1 88
- 0.4246 5 4 message 700 ------- 0 5.42 4.42 -1 88
r 0.4246 29 30 message 700 ------- 0 29.42 30.42 -1 81
+ 0.4246 30 31 message 700 ------- 0 30.42 31.42 -1 89
- 0.4246 30 31 message 700 ------- 0 30.42 31.42 -1 89
+ 0.4246 30 21 message 700 ------- 0 30.42 21.42 -1 90
- 0.4246 30 21 message 700 ------- 0 30.42 21.42 -1 90
r 0.4246 29 28 message 700 ------- 0 29.42 28.42 -1 82
+ 0.4246 28 34 message 700 ------- 0 28.42 34.42 -1 91
- 0.4246 28 34 message 700 ------- 0 28.42 34.42 -1 91
+ 0.4246 28 2 message 700 ------- 0 28.42 2.42 -1 92
- 0.4246 28 2 message 700 ------- 0 28.42 2.42 -1 92
r 0.4246 26 27 message 700 ------- 0 26.42 27.42 -1 83
+ 0.4246 27 21 message 700 ------- 0 27.42 21.42 -1 93
- 0.4246 27 21 message 700 ------- 0 27.42 21.42 -1 93
r 0.4246 21 30 message 700 ------- 0 21.42 30.42 -1 84
r 0.4246 21 27 message 700 ------- 0 21.42 27.42 -1 85
r 0.4424 2 3 message 700 ------- 0 2.42 3.42 -1 86
+ 0.4424 3 4 message 700 ------- 0 3.42 4.42 -1 94
- 0.4424 3 4 message 700 ------- 0 3.42 4.42 -1 94
r 0.4424 2 28 message 700 ------- 0 2.42 28.42 -1 87
r 0.4424 5 4 message 700 ------- 0 5.42 4.42 -1 88
+ 0.4424 4 3 message 700 ------- 0 4.42 3.42 -1 95
- 0.4424 4 3 message 700 ------- 0 4.42 3.42 -1 95
r 0.4424 30 31 message 700 ------- 0 30.42 31.42 -1 89
+ 0.4424 31 32 message 700 ------- 0 31.42 32.42 -1 96
- 0.4424 31 32 message 700 ------- 0 31.42 32.42 -1 96
r 0.4424 30 21 message 700 ------- 0 30.42 21.42 -1 90
r 0.4424 28 34 message 700 ------- 0 28.42 34.42 -1 91
+ 0.4424 34 33 message 700 ------- 0 34.42 33.42 -1 97
- 0.4424 34 33 message 700 ------- 0 34.42 33.42 -1 97
r 0.4424 28 2 message 700 ------- 0 28.42 2.42 -1 92
r 0.4424 27 21 message 700 ------- 0 27.42 21.42 -1 93
r 0.4602 3 4 message 700 ------- 0 3.42 4.42 -1 94
r 0.4602 4 3 message 700 ------- 0 4.42 3.42 -1 95
r 0.4602 31 32 message 700 ------- 0 31.42 32.42 -1 96
+ 0.4602 32 33 message 700 ------- 0 32.42 33.42 -1 98
- 0.4602 32 33 message 700 ------- 0 32.42 33.42 -1 98
r 0.4602 34 33 message 700 ------- 0 34.42 33.42 -1 97
+ 0.4602 33 32 message 700 ------- 0 33.42 32.42 -1 99
- 0.4602 33 32 message 700 ------- 0 33.42 32.42 -1 99
r 0.478 32 33 message 700 ------- 0 32.42 33.42 -1 98
r 0.478 33 32 message 700 ------- 0 33.42 32.42 -1 99
+ 0.6 24 8 message 500 ------- 0 24.42 8.42 -1 100
- 0.6 24 8 message 500 ------- 0 24.42 8.42 -1 100
+ 0.6 24 23 message 500 ------- 0 24.42 23.42 -1 101
- 0.6 24 23 message 500 ------- 0 24.42 23.42 -1 101
+ 0.6 24 25 message 500 ------- 0 24.42 25.42 -1 102
- 0.6 24 25 message 500 ------- 0 24.42 25.42 -1 102
r 0.617 24 8 message 500 ------- 0 24.42 8.42 -1 100
+ 0.617 8 7 message 500 ------- 0 8.42 7.42 -1 103
- 0.617 8 7 message 500 ------- 0 8.42 7.42 -1 103
+ 0.617 8 9 message 500 ------- 0 8.42 9.42 -1 104
- 0.617 8 9 message 500 ------- 0 8.42 9.42 -1 104
r 0.617 24 23 message 500 ------- 0 24.42 23.42 -1 101
+ 0.617 23 14 message 500 ------- 0 23.42 14.42 -1 105
- 0.617 23 14 message 500 ------- 0 23.42 14.42 -1 105
+ 0.617 23 22 message 500 ------- 0 23.42 22.42 -1 106
- 0.617 23 22 message 500 ------- 0 23.42 22.42 -1 106
r 0.617 24 25 message 500 ------- 0 24.42 25.42 -1 102
+ 0.617 25 26 message 500 ------- 0 25.42 26.42 -1 107
- 0.617 25 26 message 500 ------- 0 25.42 26.42 -1 107
r 0.634 8 7 message 500 ------- 0 8.42 7.42 -1 103
+ 0.634 7 13 message 500 ------- 0 7.42 13.42 -1 108
- 0.634 7 13 message 500 ------- 0 7.42 13.42 -1 108
+ 0.634 7 16 message 500 ------- 0 7.42 16.42 -1 109
- 0.634 7 16 message 500 ------- 0 7.42 16.42 -1 109
r 0.634 8 9 message 500 ------- 0 8.42 9.42 -1 104
+ 0.634 9 0 message 500 ------- 0 9.42 0.42 -1 110
- 0.634 9 0 message 500 ------- 0 9.42 0.42 -1 110
+ 0.634 9 10 message 500 ------- 0 9.42 10.42 -1 111
- 0.634 9 10 message 500 ------- 0 9.42 10.42 -1 111
r 0.634 23 14 message 500 ------- 0 23.42 14.42 -1 105
+ 0.634 14 15 message 500 ------- 0 14.42 15.42 -1 112
- 0.634 14 15 message 500 ------- 0 14.42 15.42 -1 112
+ 0.634 14 20 message 500 ------- 0 14.42 20.42 -1 113
- 0.634 14 20 message 500 ------- 0 14.42 20.42 -1 113
r 0.634 23 22 message 500 ------- 0 23.42 22.42 -1 106
+ 0.634 22 21 message 500 ------- 0 22.42 21.42 -1 114
- 0.634 22 21 message 500 ------- 0 22.42 21.42 -1 114
r 0.634 25 26 message 500 ------- 0 25.42 26.42 -1 107
+ 0.634 26 27 message 500 ------- 0 26.42 27.42 -1 115
- 0.634 26 27 message 500 ------- 0 26.42 27.42 -1 115
r 0.651 7 13 message 500 ------- 0 7.42 13.42 -1 108
+ 0.651 13 12 message 500 ------- 0 13.42 12.42 -1 116
- 0.651 13 12 message 500 ------- 0 13.42 12.42 -1 116
r 0.651 7 16 message 500 ------- 0 7.42 16.42 -1 109
+ 0.651 16 15 message 500 ------- 0 16.42 15.42 -1 117
- 0.651 16 15 message 500 ------- 0 16.42 15.42 -1 117
+ 0.651 16 17 message 500 ------- 0 16.42 17.42 -1 118
- 0.651 16 17 message 500 ------- 0 16.42 17.42 -1 118
r 0.651 9 0 message 500 ------- 0 9.42 0.42 -1 110
+ 0.651 0 1 message 500 ------- 0 0.42 1.42 -1 119
- 0.651 0 1 message 500 ------- 0 0.42 1.42 -1 119
+ 0.651 0 6 message 500 ------- 0 0.42 6.42 -1 120
- 0.651 0 6 message 500 ------- 0 0.42 6.42 -1 120
r 0.651 9 10 message 500 ------- 0 9.42 10.42 -1 111
+ 0.651 10 11 message 500 ------- 0 10.42 11.42 -1 121
- 0.651 10 11 message 500 ------- 0 10.42 11.42 -1 121
+ 0.651 10 29 message 500 ------- 0 10.42 29.42 -1 122
- 0.651 10 29 message 500 ------- 0 10.42 29.42 -1 122
r 0.651 14 15 message 500 ------- 0 14.42 15.42 -1 112
+ 0.651 15 16 message 500 ------- 0 15.42 16.42 -1 123
- 0.651 15 16 message 500 ------- 0 15.42 16.42 -1 123
r 0.651 14 20 message 500 ------- 0 14.42 20.42 -1 113
+ 0.651 20 19 message 500 ------- 0 20.42 19.42 -1 124
- 0.651 20 19 message 500 ------- 0 20.42 19.42 -1 124
r 0.651 22 21 message 500 ------- 0 22.42 21.42 -1 114
+ 0.651 21 30 message 500 ------- 0 21.42 30.42 -1 125
- 0.651 21 30 message 500 ------- 0 21.42 30.42 -1 125
+ 0.651 21 27 message 500 ------- 0 21.42 27.42 -1 126
- 0.651 21 27 message 500 ------- 0 21.42 27.42 -1 126
r 0.651 26 27 message 500 ------- 0 26.42 27.42 -1 115
+ 0.651 27 21 message 500 ------- 0 27.42 21.42 -1 127
- 0.651 27 21 message 500 ------- 0 27.42 21.42 -1 127
r 0.668 13 12 message 500 ------- 0 13.42 12.42 -1 116
+ 0.668 12 11 message 500 ------- 0 12.42 11.42 -1 128
- 0.668 12 11 message 500 ------- 0 12.42 11.42 -1 128
r 0.668 16 15 message 500 ------- 0 16.42 15.42 -1 117
r 0.668 16 17 message 500 ------- 0 16.42 17.42 -1 118
+ 0.668 17 18 message 500 ------- 0 17.42 18.42 -1 129
- 0.668 17 18 message 500 ------- 0 17.42 18.42 -1 129
r 0.668 0 1 message 500 ------- 0 0.42 1.42 -1 119
+ 0.668 1 2 message 500 ------- 0 1.42 2.42 -1 130
- 0.668 1 2 message 500 ------- 0 1.42 2.42 -1 130
r 0.668 0 6 message 500 ------- 0 0.42 6.42 -1 120
+ 0.668 6 5 message 500 ------- 0 6.42 5.42 -1 131
- 0.668 6 5 message 500 ------- 0 6.42 5.42 -1 131
r 0.668 10 11 message 500 ------- 0 10.42 11.42 -1 121
+ 0.668 11 12 message 500 ------- 0 11.42 12.42 -1 132
- 0.668 11 12 message 500 ------- 0 11.42 12.42 -1 132
r 0.668 10 29 message 500 ------- 0 10.42 29.42 -1 122
+ 0.668 29 30 message 500 ------- 0 29.42 30.42 -1 133
- 0.668 29 30 message 500 ------- 0 29.42 30.42 -1 133
+ 0.668 29 28 message 500 ------- 0 29.42 28.42 -1 134
- 0.668 29 28 message 500 ------- 0 29.42 28.42 -1 134
r 0.668 15 16 message 500 ------- 0 15.42 16.42 -1 123
r 0.668 20 19 message 500 ------- 0 20.42 19.42 -1 124
+ 0.668 19 18 message 500 ------- 0 19.42 18.42 -1 135
- 0.668 19 18 message 500 ------- 0 19.42 18.42 -1 135
r 0.668 21 30 message 500 ------- 0 21.42 30.42 -1 125
+ 0.668 30 31 message 500 ------- 0 30.42 31.42 -1 136
- 0.668 30 31 message 500 ------- 0 30.42 31.42 -1 136
+ 0.668 30 29 message 500 ------- 0 30.42 29.42 -1 137
- 0.668 30 29 message 500 ------- 0 30.42 29.42 -1 137
r 0.668 21 27 message 500 ------- 0 21.42 27.42 -1 126
r 0.668 27 21 message 500 ------- 0 27.42 21.42 -1 127
r 0.685 12 11 message 500 ------- 0 12.42 11.42 -1 128
r 0.685 17 18 message 500 ------- 0 17.42 18.42 -1 129
+ 0.685 18 19 message 500 ------- 0 18.42 19.42 -1 138
- 0.685 18 19 message 500 ------- 0 18.42 19.42 -1 138
r 0.685 1 2 message 500 ------- 0 1.42 2.42 -1 130
+ 0.685 2 3 message 500 ------- 0 2.42 3.42 -1 139
- 0.685 2 3 message 500 ------- 0 2.42 3.42 -1 139
+ 0.685 2 28 message 500 ------- 0 2.42 28.42 -1 140
- 0.685 2 28 message 500 ------- 0 2.42 28.42 -1 140
r 0.685 6 5 message 500 ------- 0 6.42 5.42 -1 131
+ 0.685 5 4 message 500 ------- 0 5.42 4.42 -1 141
- 0.685 5 4 message 500 ------- 0 5.42 4.42 -1 141
r 0.685 11 12 message 500 ------- 0 11.42 12.42 -1 132
r 0.685 29 30 message 500 ------- 0 29.42 30.42 -1 133
r 0.685 29 28 message 500 ------- 0 29.42 28.42 -1 134
+ 0.685 28 34 message 500 ------- 0 28.42 34.42 -1 142
- 0.685 28 34 message 500 ------- 0 28.42 34.42 -1 142
+ 0.685 28 2 message 500 ------- 0 28.42 2.42 -1 143
- 0.685 28 2 message 500 ------- 0 28.42 2.42 -1 143
r 0.685 19 18 message 500 ------- 0 19.42 18.42 -1 135
r 0.685 30 31 message 500 ------- 0 30.42 31.42 -1 136
+ 0.685 31 32 message 500 ------- 0 31.42 32.42 -1 144
- 0.685 31 32 message 500 ------- 0 31.42 32.42 -1 144
r 0.685 30 29 message 500 ------- 0 30.42 29.42 -1 137
r 0.702 18 19 message 500 ------- 0 18.42 19.42 -1 138
r 0.702 2 3 message 500 ------- 0 2.42 3.42 -1 139
+ 0.702 3 4 message 500 ------- 0 3.42 4.42 -1 145
- 0.702 3 4 message 500 ------- 0 3.42 4.42 -1 145
r 0.702 2 28 message 500 ------- 0 2.42 28.42 -1 140
r 0.702 5 4 message 500 ------- 0 5.42 4.42 -1 141
+ 0.702 4 3 message 500 ------- 0 4.42 3.42 -1 146
- 0.702 4 3 message 500 ------- 0 4.42 3.42 -1 146
r 0.702 28 34 message 500 ------- 0 28.42 34.42 -1 142
+ 0.702 34 33 message 500 ------- 0 34.42 33.42 -1 147
- 0.702 34 33 message 500 ------- 0 34.42 33.42 -1 147
r 0.702 28 2 message 500 ------- 0 28.42 2.42 -1 143
r 0.702 31 32 message 500 ------- 0 31.42 32.42 -1 144
+ 0.702 32 33 message 500 ------- 0 32.42 33.42 -1 148
- 0.702 32 33 message 500 ------- 0 32.42 33.42 -1 148
r 0.719 3 4 message 500 ------- 0 3.42 4.42 -1 145
r 0.719 4 3 message 500 ------- 0 4.42 3.42 -1 146
r 0.719 34 33 message 500 ------- 0 34.42 33.42 -1 147
+ 0.719 33 32 message 500 ------- 0 33.42 32.42 -1 149
- 0.719 33 32 message 500 ------- 0 33.42 32.42 -1 149
r 0.719 32 33 message 500 ------- 0 32.42 33.42 -1 148
r 0.736 33 32 message 500 ------- 0 33.42 32.42 -1 149
