v testName CBQ_TwoWRR
+ 0.005032 2 3 cbr 40 ------- 1 0.0 3.0 0 0
- 0.005032 2 3 cbr 40 ------- 1 0.0 3.0 0 0
+ 0.0058 2 3 cbr 1000 ------- 2 1.0 3.1 0 1
- 0.0058 2 3 cbr 1000 ------- 2 1.0 3.1 0 1
+ 0.007032 2 3 cbr 40 ------- 1 0.0 3.0 1 2
+ 0.009032 2 3 cbr 40 ------- 1 0.0 3.0 2 3
r 0.010245 2 3 cbr 40 ------- 1 0.0 3.0 0 0
+ 0.0108 2 3 cbr 1000 ------- 2 1.0 3.1 1 4
+ 0.011032 2 3 cbr 40 ------- 1 0.0 3.0 3 5
- 0.011133 2 3 cbr 1000 ------- 2 1.0 3.1 1 4
+ 0.013032 2 3 cbr 40 ------- 1 0.0 3.0 4 6
+ 0.015032 2 3 cbr 40 ------- 1 0.0 3.0 5 8
+ 0.0158 2 3 cbr 1000 ------- 2 1.0 3.1 2 7
r 0.016133 2 3 cbr 1000 ------- 2 1.0 3.1 0 1
- 0.016467 2 3 cbr 40 ------- 1 0.0 3.0 1 2
- 0.01668 2 3 cbr 40 ------- 1 0.0 3.0 2 3
- 0.016893 2 3 cbr 1000 ------- 2 1.0 3.1 2 7
+ 0.017032 2 3 cbr 40 ------- 1 0.0 3.0 6 9
+ 0.019032 2 3 cbr 40 ------- 1 0.0 3.0 7 10
+ 0.0208 2 3 cbr 1000 ------- 2 1.0 3.1 3 11
+ 0.021032 2 3 cbr 40 ------- 1 0.0 3.0 8 12
r 0.021467 2 3 cbr 1000 ------- 2 1.0 3.1 1 4
r 0.02168 2 3 cbr 40 ------- 1 0.0 3.0 1 2
r 0.021893 2 3 cbr 40 ------- 1 0.0 3.0 2 3
- 0.022227 2 3 cbr 1000 ------- 2 1.0 3.1 3 11
+ 0.023032 2 3 cbr 40 ------- 1 0.0 3.0 9 13
+ 0.025032 2 3 cbr 40 ------- 1 0.0 3.0 10 15
+ 0.0258 2 3 cbr 1000 ------- 2 1.0 3.1 4 14
+ 0.027032 2 3 cbr 40 ------- 1 0.0 3.0 11 16
r 0.027227 2 3 cbr 1000 ------- 2 1.0 3.1 2 7
- 0.02756 2 3 cbr 40 ------- 1 0.0 3.0 3 5
- 0.027773 2 3 cbr 40 ------- 1 0.0 3.0 4 6
- 0.027987 2 3 cbr 1000 ------- 2 1.0 3.1 4 14
+ 0.029032 2 3 cbr 40 ------- 1 0.0 3.0 12 17
+ 0.0308 2 3 cbr 1000 ------- 2 1.0 3.1 5 18
+ 0.031032 2 3 cbr 40 ------- 1 0.0 3.0 13 19
r 0.03256 2 3 cbr 1000 ------- 2 1.0 3.1 3 11
r 0.032773 2 3 cbr 40 ------- 1 0.0 3.0 3 5
r 0.032987 2 3 cbr 40 ------- 1 0.0 3.0 4 6
+ 0.033032 2 3 cbr 40 ------- 1 0.0 3.0 14 20
- 0.03332 2 3 cbr 1000 ------- 2 1.0 3.1 5 18
+ 0.035032 2 3 cbr 40 ------- 1 0.0 3.0 15 22
+ 0.0358 2 3 cbr 1000 ------- 2 1.0 3.1 6 21
+ 0.037032 2 3 cbr 40 ------- 1 0.0 3.0 16 23
r 0.03832 2 3 cbr 1000 ------- 2 1.0 3.1 4 14
- 0.038653 2 3 cbr 40 ------- 1 0.0 3.0 5 8
- 0.038867 2 3 cbr 40 ------- 1 0.0 3.0 6 9
+ 0.039032 2 3 cbr 40 ------- 1 0.0 3.0 17 24
- 0.03908 2 3 cbr 1000 ------- 2 1.0 3.1 6 21
+ 0.0408 2 3 cbr 1000 ------- 2 1.0 3.1 7 25
+ 0.041032 2 3 cbr 40 ------- 1 0.0 3.0 18 26
+ 0.043032 2 3 cbr 40 ------- 1 0.0 3.0 19 27
r 0.043653 2 3 cbr 1000 ------- 2 1.0 3.1 5 18
r 0.043867 2 3 cbr 40 ------- 1 0.0 3.0 5 8
r 0.04408 2 3 cbr 40 ------- 1 0.0 3.0 6 9
- 0.044413 2 3 cbr 1000 ------- 2 1.0 3.1 7 25
+ 0.045032 2 3 cbr 40 ------- 1 0.0 3.0 20 29
+ 0.0458 2 3 cbr 1000 ------- 2 1.0 3.1 8 28
+ 0.047032 2 3 cbr 40 ------- 1 0.0 3.0 21 30
+ 0.049032 2 3 cbr 40 ------- 1 0.0 3.0 22 31
r 0.049413 2 3 cbr 1000 ------- 2 1.0 3.1 6 21
- 0.049747 2 3 cbr 40 ------- 1 0.0 3.0 7 10
- 0.04996 2 3 cbr 40 ------- 1 0.0 3.0 8 12
- 0.050173 2 3 cbr 1000 ------- 2 1.0 3.1 8 28
+ 0.0508 2 3 cbr 1000 ------- 2 1.0 3.1 9 32
+ 0.051032 2 3 cbr 40 ------- 1 0.0 3.0 23 33
+ 0.053032 2 3 cbr 40 ------- 1 0.0 3.0 24 34
r 0.054747 2 3 cbr 1000 ------- 2 1.0 3.1 7 25
r 0.05496 2 3 cbr 40 ------- 1 0.0 3.0 7 10
+ 0.055032 2 3 cbr 40 ------- 1 0.0 3.0 25 36
r 0.055173 2 3 cbr 40 ------- 1 0.0 3.0 8 12
- 0.055507 2 3 cbr 1000 ------- 2 1.0 3.1 9 32
+ 0.0558 2 3 cbr 1000 ------- 2 1.0 3.1 10 35
+ 0.057032 2 3 cbr 40 ------- 1 0.0 3.0 26 37
+ 0.059032 2 3 cbr 40 ------- 1 0.0 3.0 27 38
r 0.060507 2 3 cbr 1000 ------- 2 1.0 3.1 8 28
+ 0.0608 2 3 cbr 1000 ------- 2 1.0 3.1 11 39
- 0.06084 2 3 cbr 40 ------- 1 0.0 3.0 9 13
+ 0.061032 2 3 cbr 40 ------- 1 0.0 3.0 28 40
- 0.061053 2 3 cbr 40 ------- 1 0.0 3.0 10 15
- 0.061267 2 3 cbr 1000 ------- 2 1.0 3.1 10 35
+ 0.063032 2 3 cbr 40 ------- 1 0.0 3.0 29 41
+ 0.065032 2 3 cbr 40 ------- 1 0.0 3.0 30 43
+ 0.0658 2 3 cbr 1000 ------- 2 1.0 3.1 12 42
r 0.06584 2 3 cbr 1000 ------- 2 1.0 3.1 9 32
r 0.066053 2 3 cbr 40 ------- 1 0.0 3.0 9 13
r 0.066267 2 3 cbr 40 ------- 1 0.0 3.0 10 15
- 0.0666 2 3 cbr 1000 ------- 2 1.0 3.1 11 39
+ 0.067032 2 3 cbr 40 ------- 1 0.0 3.0 31 44
+ 0.069032 2 3 cbr 40 ------- 1 0.0 3.0 32 45
+ 0.0708 2 3 cbr 1000 ------- 2 1.0 3.1 13 46
+ 0.071032 2 3 cbr 40 ------- 1 0.0 3.0 33 47
r 0.0716 2 3 cbr 1000 ------- 2 1.0 3.1 10 35
- 0.071933 2 3 cbr 40 ------- 1 0.0 3.0 11 16
- 0.072147 2 3 cbr 40 ------- 1 0.0 3.0 12 17
- 0.07236 2 3 cbr 1000 ------- 2 1.0 3.1 12 42
+ 0.073032 2 3 cbr 40 ------- 1 0.0 3.0 34 48
+ 0.075032 2 3 cbr 40 ------- 1 0.0 3.0 35 50
+ 0.0758 2 3 cbr 1000 ------- 2 1.0 3.1 14 49
r 0.076933 2 3 cbr 1000 ------- 2 1.0 3.1 11 39
+ 0.077032 2 3 cbr 40 ------- 1 0.0 3.0 36 51
r 0.077147 2 3 cbr 40 ------- 1 0.0 3.0 11 16
r 0.07736 2 3 cbr 40 ------- 1 0.0 3.0 12 17
- 0.077693 2 3 cbr 1000 ------- 2 1.0 3.1 13 46
+ 0.079032 2 3 cbr 40 ------- 1 0.0 3.0 37 52
+ 0.0808 2 3 cbr 1000 ------- 2 1.0 3.1 15 53
+ 0.081032 2 3 cbr 40 ------- 1 0.0 3.0 38 54
r 0.082693 2 3 cbr 1000 ------- 2 1.0 3.1 12 42
- 0.083027 2 3 cbr 40 ------- 1 0.0 3.0 13 19
+ 0.083032 2 3 cbr 40 ------- 1 0.0 3.0 39 55
- 0.08324 2 3 cbr 40 ------- 1 0.0 3.0 14 20
- 0.083453 2 3 cbr 1000 ------- 2 1.0 3.1 14 49
+ 0.085032 2 3 cbr 40 ------- 1 0.0 3.0 40 57
+ 0.0858 2 3 cbr 1000 ------- 2 1.0 3.1 16 56
+ 0.087032 2 3 cbr 40 ------- 1 0.0 3.0 41 58
r 0.088027 2 3 cbr 1000 ------- 2 1.0 3.1 13 46
r 0.08824 2 3 cbr 40 ------- 1 0.0 3.0 13 19
r 0.088453 2 3 cbr 40 ------- 1 0.0 3.0 14 20
- 0.088787 2 3 cbr 1000 ------- 2 1.0 3.1 15 53
+ 0.089032 2 3 cbr 40 ------- 1 0.0 3.0 42 59
+ 0.0908 2 3 cbr 1000 ------- 2 1.0 3.1 17 60
+ 0.091032 2 3 cbr 40 ------- 1 0.0 3.0 43 61
+ 0.093032 2 3 cbr 40 ------- 1 0.0 3.0 44 62
r 0.093787 2 3 cbr 1000 ------- 2 1.0 3.1 14 49
- 0.09412 2 3 cbr 40 ------- 1 0.0 3.0 15 22
- 0.094333 2 3 cbr 40 ------- 1 0.0 3.0 16 23
- 0.094547 2 3 cbr 1000 ------- 2 1.0 3.1 16 56
+ 0.095032 2 3 cbr 40 ------- 1 0.0 3.0 45 64
+ 0.0958 2 3 cbr 1000 ------- 2 1.0 3.1 18 63
+ 0.097032 2 3 cbr 40 ------- 1 0.0 3.0 46 65
+ 0.099032 2 3 cbr 40 ------- 1 0.0 3.0 47 66
r 0.09912 2 3 cbr 1000 ------- 2 1.0 3.1 15 53
r 0.099333 2 3 cbr 40 ------- 1 0.0 3.0 15 22
r 0.099547 2 3 cbr 40 ------- 1 0.0 3.0 16 23
- 0.09988 2 3 cbr 1000 ------- 2 1.0 3.1 17 60
+ 0.1008 2 3 cbr 1000 ------- 2 1.0 3.1 19 67
+ 0.101032 2 3 cbr 40 ------- 1 0.0 3.0 48 68
+ 0.103032 2 3 cbr 40 ------- 1 0.0 3.0 49 69
r 0.10488 2 3 cbr 1000 ------- 2 1.0 3.1 16 56
+ 0.105032 2 3 cbr 40 ------- 1 0.0 3.0 50 71
- 0.105213 2 3 cbr 40 ------- 1 0.0 3.0 17 24
- 0.105427 2 3 cbr 40 ------- 1 0.0 3.0 18 26
- 0.10564 2 3 cbr 40 ------- 1 0.0 3.0 19 27
+ 0.1058 2 3 cbr 1000 ------- 2 1.0 3.1 20 70
- 0.105853 2 3 cbr 40 ------- 1 0.0 3.0 20 29
- 0.106067 2 3 cbr 1000 ------- 2 1.0 3.1 18 63
+ 0.107032 2 3 cbr 40 ------- 1 0.0 3.0 51 72
+ 0.109032 2 3 cbr 40 ------- 1 0.0 3.0 52 73
r 0.110213 2 3 cbr 1000 ------- 2 1.0 3.1 17 60
r 0.110427 2 3 cbr 40 ------- 1 0.0 3.0 17 24
r 0.11064 2 3 cbr 40 ------- 1 0.0 3.0 18 26
+ 0.1108 2 3 cbr 1000 ------- 2 1.0 3.1 21 74
r 0.110853 2 3 cbr 40 ------- 1 0.0 3.0 19 27
+ 0.111032 2 3 cbr 40 ------- 1 0.0 3.0 53 75
r 0.111067 2 3 cbr 40 ------- 1 0.0 3.0 20 29
- 0.1114 2 3 cbr 1000 ------- 2 1.0 3.1 19 67
+ 0.113032 2 3 cbr 40 ------- 1 0.0 3.0 54 76
+ 0.115032 2 3 cbr 40 ------- 1 0.0 3.0 55 78
+ 0.1158 2 3 cbr 1000 ------- 2 1.0 3.1 22 77
r 0.1164 2 3 cbr 1000 ------- 2 1.0 3.1 18 63
- 0.116733 2 3 cbr 40 ------- 1 0.0 3.0 21 30
- 0.116947 2 3 cbr 40 ------- 1 0.0 3.0 22 31
+ 0.117032 2 3 cbr 40 ------- 1 0.0 3.0 56 79
- 0.11716 2 3 cbr 40 ------- 1 0.0 3.0 23 33
- 0.117373 2 3 cbr 40 ------- 1 0.0 3.0 24 34
- 0.117587 2 3 cbr 1000 ------- 2 1.0 3.1 20 70
+ 0.119032 2 3 cbr 40 ------- 1 0.0 3.0 57 80
+ 0.1208 2 3 cbr 1000 ------- 2 1.0 3.1 23 81
+ 0.121032 2 3 cbr 40 ------- 1 0.0 3.0 58 82
r 0.121733 2 3 cbr 1000 ------- 2 1.0 3.1 19 67
r 0.121947 2 3 cbr 40 ------- 1 0.0 3.0 21 30
r 0.12216 2 3 cbr 40 ------- 1 0.0 3.0 22 31
r 0.122373 2 3 cbr 40 ------- 1 0.0 3.0 23 33
r 0.122587 2 3 cbr 40 ------- 1 0.0 3.0 24 34
- 0.12292 2 3 cbr 1000 ------- 2 1.0 3.1 21 74
+ 0.123032 2 3 cbr 40 ------- 1 0.0 3.0 59 83
+ 0.125032 2 3 cbr 40 ------- 1 0.0 3.0 60 85
+ 0.1258 2 3 cbr 1000 ------- 2 1.0 3.1 24 84
+ 0.127032 2 3 cbr 40 ------- 1 0.0 3.0 61 86
r 0.12792 2 3 cbr 1000 ------- 2 1.0 3.1 20 70
- 0.128253 2 3 cbr 40 ------- 1 0.0 3.0 25 36
- 0.128467 2 3 cbr 40 ------- 1 0.0 3.0 26 37
- 0.12868 2 3 cbr 40 ------- 1 0.0 3.0 27 38
- 0.128893 2 3 cbr 40 ------- 1 0.0 3.0 28 40
+ 0.129032 2 3 cbr 40 ------- 1 0.0 3.0 62 87
- 0.129107 2 3 cbr 1000 ------- 2 1.0 3.1 22 77
+ 0.1308 2 3 cbr 1000 ------- 2 1.0 3.1 25 88
+ 0.131032 2 3 cbr 40 ------- 1 0.0 3.0 63 89
+ 0.133032 2 3 cbr 40 ------- 1 0.0 3.0 64 90
r 0.133253 2 3 cbr 1000 ------- 2 1.0 3.1 21 74
r 0.133467 2 3 cbr 40 ------- 1 0.0 3.0 25 36
r 0.13368 2 3 cbr 40 ------- 1 0.0 3.0 26 37
r 0.133893 2 3 cbr 40 ------- 1 0.0 3.0 27 38
r 0.134107 2 3 cbr 40 ------- 1 0.0 3.0 28 40
- 0.13444 2 3 cbr 1000 ------- 2 1.0 3.1 23 81
+ 0.135032 2 3 cbr 40 ------- 1 0.0 3.0 65 92
+ 0.1358 2 3 cbr 1000 ------- 2 1.0 3.1 26 91
+ 0.137032 2 3 cbr 40 ------- 1 0.0 3.0 66 93
+ 0.139032 2 3 cbr 40 ------- 1 0.0 3.0 67 94
r 0.13944 2 3 cbr 1000 ------- 2 1.0 3.1 22 77
- 0.139773 2 3 cbr 40 ------- 1 0.0 3.0 29 41
- 0.139987 2 3 cbr 40 ------- 1 0.0 3.0 30 43
- 0.1402 2 3 cbr 40 ------- 1 0.0 3.0 31 44
- 0.140413 2 3 cbr 40 ------- 1 0.0 3.0 32 45
- 0.140627 2 3 cbr 1000 ------- 2 1.0 3.1 24 84
+ 0.1408 2 3 cbr 1000 ------- 2 1.0 3.1 27 95
+ 0.141032 2 3 cbr 40 ------- 1 0.0 3.0 68 96
+ 0.143032 2 3 cbr 40 ------- 1 0.0 3.0 69 97
r 0.144773 2 3 cbr 1000 ------- 2 1.0 3.1 23 81
r 0.144987 2 3 cbr 40 ------- 1 0.0 3.0 29 41
+ 0.145032 2 3 cbr 40 ------- 1 0.0 3.0 70 99
r 0.1452 2 3 cbr 40 ------- 1 0.0 3.0 30 43
r 0.145413 2 3 cbr 40 ------- 1 0.0 3.0 31 44
r 0.145627 2 3 cbr 40 ------- 1 0.0 3.0 32 45
+ 0.1458 2 3 cbr 1000 ------- 2 1.0 3.1 28 98
- 0.14596 2 3 cbr 1000 ------- 2 1.0 3.1 25 88
+ 0.147032 2 3 cbr 40 ------- 1 0.0 3.0 71 100
+ 0.149032 2 3 cbr 40 ------- 1 0.0 3.0 72 101
+ 0.1508 2 3 cbr 1000 ------- 2 1.0 3.1 29 102
r 0.15096 2 3 cbr 1000 ------- 2 1.0 3.1 24 84
+ 0.151032 2 3 cbr 40 ------- 1 0.0 3.0 73 103
- 0.151293 2 3 cbr 40 ------- 1 0.0 3.0 33 47
- 0.151507 2 3 cbr 40 ------- 1 0.0 3.0 34 48
- 0.15172 2 3 cbr 40 ------- 1 0.0 3.0 35 50
- 0.151933 2 3 cbr 1000 ------- 2 1.0 3.1 26 91
+ 0.153032 2 3 cbr 40 ------- 1 0.0 3.0 74 104
+ 0.155032 2 3 cbr 40 ------- 1 0.0 3.0 75 106
+ 0.1558 2 3 cbr 1000 ------- 2 1.0 3.1 30 105
r 0.156293 2 3 cbr 1000 ------- 2 1.0 3.1 25 88
r 0.156507 2 3 cbr 40 ------- 1 0.0 3.0 33 47
r 0.15672 2 3 cbr 40 ------- 1 0.0 3.0 34 48
r 0.156933 2 3 cbr 40 ------- 1 0.0 3.0 35 50
+ 0.157032 2 3 cbr 40 ------- 1 0.0 3.0 76 107
- 0.157267 2 3 cbr 1000 ------- 2 1.0 3.1 27 95
+ 0.159032 2 3 cbr 40 ------- 1 0.0 3.0 77 108
+ 0.1608 2 3 cbr 1000 ------- 2 1.0 3.1 31 109
+ 0.161032 2 3 cbr 40 ------- 1 0.0 3.0 78 110
r 0.162267 2 3 cbr 1000 ------- 2 1.0 3.1 26 91
- 0.1626 2 3 cbr 40 ------- 1 0.0 3.0 36 51
- 0.162813 2 3 cbr 40 ------- 1 0.0 3.0 37 52
- 0.163027 2 3 cbr 40 ------- 1 0.0 3.0 38 54
+ 0.163032 2 3 cbr 40 ------- 1 0.0 3.0 79 111
- 0.16324 2 3 cbr 40 ------- 1 0.0 3.0 39 55
- 0.163453 2 3 cbr 1000 ------- 2 1.0 3.1 28 98
+ 0.165032 2 3 cbr 40 ------- 1 0.0 3.0 80 113
+ 0.1658 2 3 cbr 1000 ------- 2 1.0 3.1 32 112
+ 0.167032 2 3 cbr 40 ------- 1 0.0 3.0 81 114
r 0.1676 2 3 cbr 1000 ------- 2 1.0 3.1 27 95
r 0.167813 2 3 cbr 40 ------- 1 0.0 3.0 36 51
r 0.168027 2 3 cbr 40 ------- 1 0.0 3.0 37 52
r 0.16824 2 3 cbr 40 ------- 1 0.0 3.0 38 54
r 0.168453 2 3 cbr 40 ------- 1 0.0 3.0 39 55
- 0.168787 2 3 cbr 1000 ------- 2 1.0 3.1 29 102
+ 0.169032 2 3 cbr 40 ------- 1 0.0 3.0 82 115
+ 0.1708 2 3 cbr 1000 ------- 2 1.0 3.1 33 116
+ 0.171032 2 3 cbr 40 ------- 1 0.0 3.0 83 117
+ 0.173032 2 3 cbr 40 ------- 1 0.0 3.0 84 118
r 0.173787 2 3 cbr 1000 ------- 2 1.0 3.1 28 98
- 0.17412 2 3 cbr 40 ------- 1 0.0 3.0 40 57
- 0.174333 2 3 cbr 40 ------- 1 0.0 3.0 41 58
- 0.174547 2 3 cbr 40 ------- 1 0.0 3.0 42 59
- 0.17476 2 3 cbr 40 ------- 1 0.0 3.0 43 61
- 0.174973 2 3 cbr 1000 ------- 2 1.0 3.1 30 105
+ 0.175032 2 3 cbr 40 ------- 1 0.0 3.0 85 120
+ 0.1758 2 3 cbr 1000 ------- 2 1.0 3.1 34 119
+ 0.177032 2 3 cbr 40 ------- 1 0.0 3.0 86 121
+ 0.179032 2 3 cbr 40 ------- 1 0.0 3.0 87 122
r 0.17912 2 3 cbr 1000 ------- 2 1.0 3.1 29 102
r 0.179333 2 3 cbr 40 ------- 1 0.0 3.0 40 57
r 0.179547 2 3 cbr 40 ------- 1 0.0 3.0 41 58
r 0.17976 2 3 cbr 40 ------- 1 0.0 3.0 42 59
r 0.179973 2 3 cbr 40 ------- 1 0.0 3.0 43 61
- 0.180307 2 3 cbr 40 ------- 1 0.0 3.0 44 62
- 0.18052 2 3 cbr 40 ------- 1 0.0 3.0 45 64
- 0.180733 2 3 cbr 1000 ------- 2 1.0 3.1 31 109
+ 0.1808 2 3 cbr 1000 ------- 2 1.0 3.1 35 123
+ 0.181032 2 3 cbr 40 ------- 1 0.0 3.0 88 124
+ 0.183032 2 3 cbr 40 ------- 1 0.0 3.0 89 125
+ 0.185032 2 3 cbr 40 ------- 1 0.0 3.0 90 127
r 0.185307 2 3 cbr 1000 ------- 2 1.0 3.1 30 105
r 0.18552 2 3 cbr 40 ------- 1 0.0 3.0 44 62
r 0.185733 2 3 cbr 40 ------- 1 0.0 3.0 45 64
+ 0.1858 2 3 cbr 1000 ------- 2 1.0 3.1 36 126
- 0.186067 2 3 cbr 1000 ------- 2 1.0 3.1 32 112
+ 0.187032 2 3 cbr 40 ------- 1 0.0 3.0 91 128
+ 0.189032 2 3 cbr 40 ------- 1 0.0 3.0 92 129
+ 0.1908 2 3 cbr 1000 ------- 2 1.0 3.1 37 130
+ 0.191032 2 3 cbr 40 ------- 1 0.0 3.0 93 131
r 0.191067 2 3 cbr 1000 ------- 2 1.0 3.1 31 109
- 0.1914 2 3 cbr 40 ------- 1 0.0 3.0 46 65
- 0.191613 2 3 cbr 40 ------- 1 0.0 3.0 47 66
- 0.191827 2 3 cbr 40 ------- 1 0.0 3.0 48 68
- 0.19204 2 3 cbr 40 ------- 1 0.0 3.0 49 69
- 0.192253 2 3 cbr 1000 ------- 2 1.0 3.1 33 116
+ 0.193032 2 3 cbr 40 ------- 1 0.0 3.0 94 132
+ 0.195032 2 3 cbr 40 ------- 1 0.0 3.0 95 134
+ 0.1958 2 3 cbr 1000 ------- 2 1.0 3.1 38 133
r 0.1964 2 3 cbr 1000 ------- 2 1.0 3.1 32 112
r 0.196613 2 3 cbr 40 ------- 1 0.0 3.0 46 65
r 0.196827 2 3 cbr 40 ------- 1 0.0 3.0 47 66
+ 0.197032 2 3 cbr 40 ------- 1 0.0 3.0 96 135
r 0.19704 2 3 cbr 40 ------- 1 0.0 3.0 48 68
r 0.197253 2 3 cbr 40 ------- 1 0.0 3.0 49 69
- 0.197587 2 3 cbr 1000 ------- 2 1.0 3.1 34 119
+ 0.199032 2 3 cbr 40 ------- 1 0.0 3.0 97 136
+ 0.2008 2 3 cbr 1000 ------- 2 1.0 3.1 39 137
+ 0.201032 2 3 cbr 40 ------- 1 0.0 3.0 98 138
r 0.202587 2 3 cbr 1000 ------- 2 1.0 3.1 33 116
- 0.20292 2 3 cbr 40 ------- 1 0.0 3.0 50 71
+ 0.203032 2 3 cbr 40 ------- 1 0.0 3.0 99 139
- 0.203133 2 3 cbr 40 ------- 1 0.0 3.0 51 72
- 0.203347 2 3 cbr 40 ------- 1 0.0 3.0 52 73
- 0.20356 2 3 cbr 40 ------- 1 0.0 3.0 53 75
- 0.203773 2 3 cbr 40 ------- 1 0.0 3.0 54 76
- 0.203987 2 3 cbr 40 ------- 1 0.0 3.0 55 78
- 0.2042 2 3 cbr 1000 ------- 2 1.0 3.1 35 123
+ 0.205032 2 3 cbr 40 ------- 1 0.0 3.0 100 141
+ 0.2058 2 3 cbr 1000 ------- 2 1.0 3.1 40 140
+ 0.207032 2 3 cbr 40 ------- 1 0.0 3.0 101 142
r 0.20792 2 3 cbr 1000 ------- 2 1.0 3.1 34 119
r 0.208133 2 3 cbr 40 ------- 1 0.0 3.0 50 71
r 0.208347 2 3 cbr 40 ------- 1 0.0 3.0 51 72
r 0.20856 2 3 cbr 40 ------- 1 0.0 3.0 52 73
r 0.208773 2 3 cbr 40 ------- 1 0.0 3.0 53 75
r 0.208987 2 3 cbr 40 ------- 1 0.0 3.0 54 76
+ 0.209032 2 3 cbr 40 ------- 1 0.0 3.0 102 143
r 0.2092 2 3 cbr 40 ------- 1 0.0 3.0 55 78
- 0.209533 2 3 cbr 1000 ------- 2 1.0 3.1 36 126
+ 0.2108 2 3 cbr 1000 ------- 2 1.0 3.1 41 144
+ 0.211032 2 3 cbr 40 ------- 1 0.0 3.0 103 145
+ 0.213032 2 3 cbr 40 ------- 1 0.0 3.0 104 146
r 0.214533 2 3 cbr 1000 ------- 2 1.0 3.1 35 123
- 0.214867 2 3 cbr 40 ------- 1 0.0 3.0 56 79
+ 0.215032 2 3 cbr 40 ------- 1 0.0 3.0 105 148
- 0.21508 2 3 cbr 40 ------- 1 0.0 3.0 57 80
- 0.215293 2 3 cbr 40 ------- 1 0.0 3.0 58 82
- 0.215507 2 3 cbr 40 ------- 1 0.0 3.0 59 83
- 0.21572 2 3 cbr 40 ------- 1 0.0 3.0 60 85
+ 0.2158 2 3 cbr 1000 ------- 2 1.0 3.1 42 147
- 0.215933 2 3 cbr 40 ------- 1 0.0 3.0 61 86
- 0.216147 2 3 cbr 40 ------- 1 0.0 3.0 62 87
- 0.21636 2 3 cbr 1000 ------- 2 1.0 3.1 37 130
+ 0.217032 2 3 cbr 40 ------- 1 0.0 3.0 106 149
+ 0.219032 2 3 cbr 40 ------- 1 0.0 3.0 107 150
r 0.219867 2 3 cbr 1000 ------- 2 1.0 3.1 36 126
r 0.22008 2 3 cbr 40 ------- 1 0.0 3.0 56 79
r 0.220293 2 3 cbr 40 ------- 1 0.0 3.0 57 80
r 0.220507 2 3 cbr 40 ------- 1 0.0 3.0 58 82
r 0.22072 2 3 cbr 40 ------- 1 0.0 3.0 59 83
+ 0.2208 2 3 cbr 1000 ------- 2 1.0 3.1 43 151
r 0.220933 2 3 cbr 40 ------- 1 0.0 3.0 60 85
+ 0.221032 2 3 cbr 40 ------- 1 0.0 3.0 108 152
r 0.221147 2 3 cbr 40 ------- 1 0.0 3.0 61 86
r 0.22136 2 3 cbr 40 ------- 1 0.0 3.0 62 87
- 0.221693 2 3 cbr 1000 ------- 2 1.0 3.1 38 133
+ 0.223032 2 3 cbr 40 ------- 1 0.0 3.0 109 153
+ 0.225032 2 3 cbr 40 ------- 1 0.0 3.0 110 155
+ 0.2258 2 3 cbr 1000 ------- 2 1.0 3.1 44 154
r 0.226693 2 3 cbr 1000 ------- 2 1.0 3.1 37 130
- 0.227027 2 3 cbr 40 ------- 1 0.0 3.0 63 89
+ 0.227032 2 3 cbr 40 ------- 1 0.0 3.0 111 156
- 0.22724 2 3 cbr 40 ------- 1 0.0 3.0 64 90
- 0.227453 2 3 cbr 40 ------- 1 0.0 3.0 65 92
- 0.227667 2 3 cbr 40 ------- 1 0.0 3.0 66 93
- 0.22788 2 3 cbr 40 ------- 1 0.0 3.0 67 94
- 0.228093 2 3 cbr 40 ------- 1 0.0 3.0 68 96
- 0.228307 2 3 cbr 40 ------- 1 0.0 3.0 69 97
- 0.22852 2 3 cbr 1000 ------- 2 1.0 3.1 39 137
+ 0.229032 2 3 cbr 40 ------- 1 0.0 3.0 112 157
+ 0.2308 2 3 cbr 1000 ------- 2 1.0 3.1 45 158
+ 0.231032 2 3 cbr 40 ------- 1 0.0 3.0 113 159
r 0.232027 2 3 cbr 1000 ------- 2 1.0 3.1 38 133
r 0.23224 2 3 cbr 40 ------- 1 0.0 3.0 63 89
r 0.232453 2 3 cbr 40 ------- 1 0.0 3.0 64 90
r 0.232667 2 3 cbr 40 ------- 1 0.0 3.0 65 92
r 0.23288 2 3 cbr 40 ------- 1 0.0 3.0 66 93
+ 0.233032 2 3 cbr 40 ------- 1 0.0 3.0 114 160
r 0.233093 2 3 cbr 40 ------- 1 0.0 3.0 67 94
r 0.233307 2 3 cbr 40 ------- 1 0.0 3.0 68 96
r 0.23352 2 3 cbr 40 ------- 1 0.0 3.0 69 97
- 0.233853 2 3 cbr 1000 ------- 2 1.0 3.1 40 140
+ 0.235032 2 3 cbr 40 ------- 1 0.0 3.0 115 162
+ 0.2358 2 3 cbr 1000 ------- 2 1.0 3.1 46 161
+ 0.237032 2 3 cbr 40 ------- 1 0.0 3.0 116 163
r 0.238853 2 3 cbr 1000 ------- 2 1.0 3.1 39 137
+ 0.239032 2 3 cbr 40 ------- 1 0.0 3.0 117 164
- 0.239187 2 3 cbr 40 ------- 1 0.0 3.0 70 99
- 0.2394 2 3 cbr 40 ------- 1 0.0 3.0 71 100
- 0.239613 2 3 cbr 40 ------- 1 0.0 3.0 72 101
- 0.239827 2 3 cbr 40 ------- 1 0.0 3.0 73 103
- 0.24004 2 3 cbr 40 ------- 1 0.0 3.0 74 104
- 0.240253 2 3 cbr 40 ------- 1 0.0 3.0 75 106
- 0.240467 2 3 cbr 40 ------- 1 0.0 3.0 76 107
- 0.24068 2 3 cbr 40 ------- 1 0.0 3.0 77 108
+ 0.2408 2 3 cbr 1000 ------- 2 1.0 3.1 47 165
- 0.240893 2 3 cbr 1000 ------- 2 1.0 3.1 41 144
+ 0.241032 2 3 cbr 40 ------- 1 0.0 3.0 118 166
+ 0.243032 2 3 cbr 40 ------- 1 0.0 3.0 119 167
r 0.244187 2 3 cbr 1000 ------- 2 1.0 3.1 40 140
r 0.2444 2 3 cbr 40 ------- 1 0.0 3.0 70 99
r 0.244613 2 3 cbr 40 ------- 1 0.0 3.0 71 100
r 0.244827 2 3 cbr 40 ------- 1 0.0 3.0 72 101
+ 0.245032 2 3 cbr 40 ------- 1 0.0 3.0 120 169
r 0.24504 2 3 cbr 40 ------- 1 0.0 3.0 73 103
r 0.245253 2 3 cbr 40 ------- 1 0.0 3.0 74 104
r 0.245467 2 3 cbr 40 ------- 1 0.0 3.0 75 106
r 0.24568 2 3 cbr 40 ------- 1 0.0 3.0 76 107
+ 0.2458 2 3 cbr 1000 ------- 2 1.0 3.1 48 168
r 0.245893 2 3 cbr 40 ------- 1 0.0 3.0 77 108
- 0.246227 2 3 cbr 40 ------- 1 0.0 3.0 78 110
- 0.24644 2 3 cbr 40 ------- 1 0.0 3.0 79 111
- 0.246653 2 3 cbr 40 ------- 1 0.0 3.0 80 113
- 0.246867 2 3 cbr 1000 ------- 2 1.0 3.1 42 147
+ 0.247032 2 3 cbr 40 ------- 1 0.0 3.0 121 170
+ 0.249032 2 3 cbr 40 ------- 1 0.0 3.0 122 171
+ 0.2508 2 3 cbr 1000 ------- 2 1.0 3.1 49 172
+ 0.251032 2 3 cbr 40 ------- 1 0.0 3.0 123 173
r 0.251227 2 3 cbr 1000 ------- 2 1.0 3.1 41 144
r 0.25144 2 3 cbr 40 ------- 1 0.0 3.0 78 110
r 0.251653 2 3 cbr 40 ------- 1 0.0 3.0 79 111
r 0.251867 2 3 cbr 40 ------- 1 0.0 3.0 80 113
- 0.2522 2 3 cbr 40 ------- 1 0.0 3.0 81 114
- 0.252413 2 3 cbr 40 ------- 1 0.0 3.0 82 115
- 0.252627 2 3 cbr 40 ------- 1 0.0 3.0 83 117
- 0.25284 2 3 cbr 40 ------- 1 0.0 3.0 84 118
+ 0.253032 2 3 cbr 40 ------- 1 0.0 3.0 124 174
- 0.253053 2 3 cbr 40 ------- 1 0.0 3.0 85 120
- 0.253267 2 3 cbr 1000 ------- 2 1.0 3.1 43 151
+ 0.255032 2 3 cbr 40 ------- 1 0.0 3.0 125 176
+ 0.2558 2 3 cbr 1000 ------- 2 1.0 3.1 50 175
+ 0.257032 2 3 cbr 40 ------- 1 0.0 3.0 126 177
r 0.2572 2 3 cbr 1000 ------- 2 1.0 3.1 42 147
r 0.257413 2 3 cbr 40 ------- 1 0.0 3.0 81 114
r 0.257627 2 3 cbr 40 ------- 1 0.0 3.0 82 115
r 0.25784 2 3 cbr 40 ------- 1 0.0 3.0 83 117
r 0.258053 2 3 cbr 40 ------- 1 0.0 3.0 84 118
r 0.258267 2 3 cbr 40 ------- 1 0.0 3.0 85 120
- 0.2586 2 3 cbr 1000 ------- 2 1.0 3.1 44 154
+ 0.259032 2 3 cbr 40 ------- 1 0.0 3.0 127 178
+ 0.2608 2 3 cbr 1000 ------- 2 1.0 3.1 51 179
+ 0.261032 2 3 cbr 40 ------- 1 0.0 3.0 128 180
+ 0.263032 2 3 cbr 40 ------- 1 0.0 3.0 129 181
r 0.2636 2 3 cbr 1000 ------- 2 1.0 3.1 43 151
- 0.263933 2 3 cbr 40 ------- 1 0.0 3.0 86 121
- 0.264147 2 3 cbr 40 ------- 1 0.0 3.0 87 122
- 0.26436 2 3 cbr 40 ------- 1 0.0 3.0 88 124
- 0.264573 2 3 cbr 40 ------- 1 0.0 3.0 89 125
- 0.264787 2 3 cbr 40 ------- 1 0.0 3.0 90 127
- 0.265 2 3 cbr 40 ------- 1 0.0 3.0 91 128
+ 0.265032 2 3 cbr 40 ------- 1 0.0 3.0 130 183
- 0.265213 2 3 cbr 40 ------- 1 0.0 3.0 92 129
- 0.265427 2 3 cbr 1000 ------- 2 1.0 3.1 45 158
+ 0.2658 2 3 cbr 1000 ------- 2 1.0 3.1 52 182
+ 0.267032 2 3 cbr 40 ------- 1 0.0 3.0 131 184
r 0.268933 2 3 cbr 1000 ------- 2 1.0 3.1 44 154
+ 0.269032 2 3 cbr 40 ------- 1 0.0 3.0 132 185
r 0.269147 2 3 cbr 40 ------- 1 0.0 3.0 86 121
r 0.26936 2 3 cbr 40 ------- 1 0.0 3.0 87 122
r 0.269573 2 3 cbr 40 ------- 1 0.0 3.0 88 124
r 0.269787 2 3 cbr 40 ------- 1 0.0 3.0 89 125
r 0.27 2 3 cbr 40 ------- 1 0.0 3.0 90 127
r 0.270213 2 3 cbr 40 ------- 1 0.0 3.0 91 128
r 0.270427 2 3 cbr 40 ------- 1 0.0 3.0 92 129
- 0.27076 2 3 cbr 1000 ------- 2 1.0 3.1 46 161
+ 0.2708 2 3 cbr 1000 ------- 2 1.0 3.1 53 186
+ 0.271032 2 3 cbr 40 ------- 1 0.0 3.0 133 187
+ 0.273032 2 3 cbr 40 ------- 1 0.0 3.0 134 188
+ 0.275032 2 3 cbr 40 ------- 1 0.0 3.0 135 190
r 0.27576 2 3 cbr 1000 ------- 2 1.0 3.1 45 158
+ 0.2758 2 3 cbr 1000 ------- 2 1.0 3.1 54 189
- 0.276093 2 3 cbr 40 ------- 1 0.0 3.0 93 131
- 0.276307 2 3 cbr 40 ------- 1 0.0 3.0 94 132
- 0.27652 2 3 cbr 40 ------- 1 0.0 3.0 95 134
- 0.276733 2 3 cbr 40 ------- 1 0.0 3.0 96 135
- 0.276947 2 3 cbr 40 ------- 1 0.0 3.0 97 136
+ 0.277032 2 3 cbr 40 ------- 1 0.0 3.0 136 191
- 0.27716 2 3 cbr 40 ------- 1 0.0 3.0 98 138
- 0.277373 2 3 cbr 40 ------- 1 0.0 3.0 99 139
- 0.277587 2 3 cbr 40 ------- 1 0.0 3.0 100 141
- 0.2778 2 3 cbr 1000 ------- 2 1.0 3.1 47 165
+ 0.279032 2 3 cbr 40 ------- 1 0.0 3.0 137 192
+ 0.2808 2 3 cbr 1000 ------- 2 1.0 3.1 55 193
+ 0.281032 2 3 cbr 40 ------- 1 0.0 3.0 138 194
r 0.281093 2 3 cbr 1000 ------- 2 1.0 3.1 46 161
r 0.281307 2 3 cbr 40 ------- 1 0.0 3.0 93 131
r 0.28152 2 3 cbr 40 ------- 1 0.0 3.0 94 132
r 0.281733 2 3 cbr 40 ------- 1 0.0 3.0 95 134
r 0.281947 2 3 cbr 40 ------- 1 0.0 3.0 96 135
r 0.28216 2 3 cbr 40 ------- 1 0.0 3.0 97 136
r 0.282373 2 3 cbr 40 ------- 1 0.0 3.0 98 138
r 0.282587 2 3 cbr 40 ------- 1 0.0 3.0 99 139
r 0.2828 2 3 cbr 40 ------- 1 0.0 3.0 100 141
+ 0.283032 2 3 cbr 40 ------- 1 0.0 3.0 139 195
- 0.283133 2 3 cbr 1000 ------- 2 1.0 3.1 48 168
+ 0.285032 2 3 cbr 40 ------- 1 0.0 3.0 140 197
+ 0.2858 2 3 cbr 1000 ------- 2 1.0 3.1 56 196
+ 0.287032 2 3 cbr 40 ------- 1 0.0 3.0 141 198
r 0.288133 2 3 cbr 1000 ------- 2 1.0 3.1 47 165
- 0.288467 2 3 cbr 40 ------- 1 0.0 3.0 101 142
- 0.28868 2 3 cbr 40 ------- 1 0.0 3.0 102 143
- 0.288893 2 3 cbr 40 ------- 1 0.0 3.0 103 145
+ 0.289032 2 3 cbr 40 ------- 1 0.0 3.0 142 199
- 0.289107 2 3 cbr 40 ------- 1 0.0 3.0 104 146
- 0.28932 2 3 cbr 40 ------- 1 0.0 3.0 105 148
- 0.289533 2 3 cbr 40 ------- 1 0.0 3.0 106 149
- 0.289747 2 3 cbr 40 ------- 1 0.0 3.0 107 150
- 0.28996 2 3 cbr 1000 ------- 2 1.0 3.1 49 172
+ 0.2908 2 3 cbr 1000 ------- 2 1.0 3.1 57 200
+ 0.291032 2 3 cbr 40 ------- 1 0.0 3.0 143 201
+ 0.293032 2 3 cbr 40 ------- 1 0.0 3.0 144 202
r 0.293467 2 3 cbr 1000 ------- 2 1.0 3.1 48 168
r 0.29368 2 3 cbr 40 ------- 1 0.0 3.0 101 142
r 0.293893 2 3 cbr 40 ------- 1 0.0 3.0 102 143
r 0.294107 2 3 cbr 40 ------- 1 0.0 3.0 103 145
r 0.29432 2 3 cbr 40 ------- 1 0.0 3.0 104 146
r 0.294533 2 3 cbr 40 ------- 1 0.0 3.0 105 148
r 0.294747 2 3 cbr 40 ------- 1 0.0 3.0 106 149
r 0.29496 2 3 cbr 40 ------- 1 0.0 3.0 107 150
+ 0.295032 2 3 cbr 40 ------- 1 0.0 3.0 145 204
- 0.295293 2 3 cbr 40 ------- 1 0.0 3.0 108 152
- 0.295507 2 3 cbr 40 ------- 1 0.0 3.0 109 153
- 0.29572 2 3 cbr 40 ------- 1 0.0 3.0 110 155
+ 0.2958 2 3 cbr 1000 ------- 2 1.0 3.1 58 203
- 0.295933 2 3 cbr 40 ------- 1 0.0 3.0 111 156
- 0.296147 2 3 cbr 40 ------- 1 0.0 3.0 112 157
- 0.29636 2 3 cbr 1000 ------- 2 1.0 3.1 50 175
+ 0.297032 2 3 cbr 40 ------- 1 0.0 3.0 146 205
+ 0.299032 2 3 cbr 40 ------- 1 0.0 3.0 147 206
r 0.300293 2 3 cbr 1000 ------- 2 1.0 3.1 49 172
r 0.300507 2 3 cbr 40 ------- 1 0.0 3.0 108 152
r 0.30072 2 3 cbr 40 ------- 1 0.0 3.0 109 153
+ 0.3008 2 3 cbr 1000 ------- 2 1.0 3.1 59 207
r 0.300933 2 3 cbr 40 ------- 1 0.0 3.0 110 155
+ 0.301032 2 3 cbr 40 ------- 1 0.0 3.0 148 208
r 0.301147 2 3 cbr 40 ------- 1 0.0 3.0 111 156
r 0.30136 2 3 cbr 40 ------- 1 0.0 3.0 112 157
- 0.301693 2 3 cbr 1000 ------- 2 1.0 3.1 51 179
+ 0.303032 2 3 cbr 40 ------- 1 0.0 3.0 149 209
+ 0.305032 2 3 cbr 40 ------- 1 0.0 3.0 150 211
+ 0.3058 2 3 cbr 1000 ------- 2 1.0 3.1 60 210
r 0.306693 2 3 cbr 1000 ------- 2 1.0 3.1 50 175
- 0.307027 2 3 cbr 40 ------- 1 0.0 3.0 113 159
+ 0.307032 2 3 cbr 40 ------- 1 0.0 3.0 151 212
- 0.30724 2 3 cbr 40 ------- 1 0.0 3.0 114 160
- 0.307453 2 3 cbr 40 ------- 1 0.0 3.0 115 162
- 0.307667 2 3 cbr 40 ------- 1 0.0 3.0 116 163
- 0.30788 2 3 cbr 40 ------- 1 0.0 3.0 117 164
- 0.308093 2 3 cbr 40 ------- 1 0.0 3.0 118 166
- 0.308307 2 3 cbr 40 ------- 1 0.0 3.0 119 167
- 0.30852 2 3 cbr 40 ------- 1 0.0 3.0 120 169
- 0.308733 2 3 cbr 1000 ------- 2 1.0 3.1 52 182
+ 0.309032 2 3 cbr 40 ------- 1 0.0 3.0 152 213
+ 0.3108 2 3 cbr 1000 ------- 2 1.0 3.1 61 214
+ 0.311032 2 3 cbr 40 ------- 1 0.0 3.0 153 215
r 0.312027 2 3 cbr 1000 ------- 2 1.0 3.1 51 179
r 0.31224 2 3 cbr 40 ------- 1 0.0 3.0 113 159
r 0.312453 2 3 cbr 40 ------- 1 0.0 3.0 114 160
r 0.312667 2 3 cbr 40 ------- 1 0.0 3.0 115 162
r 0.31288 2 3 cbr 40 ------- 1 0.0 3.0 116 163
+ 0.313032 2 3 cbr 40 ------- 1 0.0 3.0 154 216
r 0.313093 2 3 cbr 40 ------- 1 0.0 3.0 117 164
r 0.313307 2 3 cbr 40 ------- 1 0.0 3.0 118 166
r 0.31352 2 3 cbr 40 ------- 1 0.0 3.0 119 167
r 0.313733 2 3 cbr 40 ------- 1 0.0 3.0 120 169
- 0.314067 2 3 cbr 1000 ------- 2 1.0 3.1 53 186
+ 0.315032 2 3 cbr 40 ------- 1 0.0 3.0 155 218
+ 0.3158 2 3 cbr 1000 ------- 2 1.0 3.1 62 217
+ 0.317032 2 3 cbr 40 ------- 1 0.0 3.0 156 219
+ 0.319032 2 3 cbr 40 ------- 1 0.0 3.0 157 220
r 0.319067 2 3 cbr 1000 ------- 2 1.0 3.1 52 182
- 0.3194 2 3 cbr 40 ------- 1 0.0 3.0 121 170
- 0.319613 2 3 cbr 40 ------- 1 0.0 3.0 122 171
- 0.319827 2 3 cbr 40 ------- 1 0.0 3.0 123 173
- 0.32004 2 3 cbr 40 ------- 1 0.0 3.0 124 174
- 0.320253 2 3 cbr 40 ------- 1 0.0 3.0 125 176
- 0.320467 2 3 cbr 40 ------- 1 0.0 3.0 126 177
- 0.32068 2 3 cbr 40 ------- 1 0.0 3.0 127 178
+ 0.3208 2 3 cbr 1000 ------- 2 1.0 3.1 63 221
- 0.320893 2 3 cbr 1000 ------- 2 1.0 3.1 54 189
+ 0.321032 2 3 cbr 40 ------- 1 0.0 3.0 158 222
+ 0.323032 2 3 cbr 40 ------- 1 0.0 3.0 159 223
r 0.3244 2 3 cbr 1000 ------- 2 1.0 3.1 53 186
r 0.324613 2 3 cbr 40 ------- 1 0.0 3.0 121 170
r 0.324827 2 3 cbr 40 ------- 1 0.0 3.0 122 171
+ 0.325032 2 3 cbr 40 ------- 1 0.0 3.0 160 225
r 0.32504 2 3 cbr 40 ------- 1 0.0 3.0 123 173
r 0.325253 2 3 cbr 40 ------- 1 0.0 3.0 124 174
r 0.325467 2 3 cbr 40 ------- 1 0.0 3.0 125 176
r 0.32568 2 3 cbr 40 ------- 1 0.0 3.0 126 177
+ 0.3258 2 3 cbr 1000 ------- 2 1.0 3.1 64 224
r 0.325893 2 3 cbr 40 ------- 1 0.0 3.0 127 178
- 0.326227 2 3 cbr 1000 ------- 2 1.0 3.1 55 193
+ 0.327032 2 3 cbr 40 ------- 1 0.0 3.0 161 226
+ 0.329032 2 3 cbr 40 ------- 1 0.0 3.0 162 227
+ 0.3308 2 3 cbr 1000 ------- 2 1.0 3.1 65 228
+ 0.331032 2 3 cbr 40 ------- 1 0.0 3.0 163 229
r 0.331227 2 3 cbr 1000 ------- 2 1.0 3.1 54 189
- 0.33156 2 3 cbr 40 ------- 1 0.0 3.0 128 180
- 0.331773 2 3 cbr 40 ------- 1 0.0 3.0 129 181
- 0.331987 2 3 cbr 40 ------- 1 0.0 3.0 130 183
- 0.3322 2 3 cbr 40 ------- 1 0.0 3.0 131 184
- 0.332413 2 3 cbr 40 ------- 1 0.0 3.0 132 185
- 0.332627 2 3 cbr 40 ------- 1 0.0 3.0 133 187
- 0.33284 2 3 cbr 40 ------- 1 0.0 3.0 134 188
+ 0.333032 2 3 cbr 40 ------- 1 0.0 3.0 164 230
- 0.333053 2 3 cbr 1000 ------- 2 1.0 3.1 56 196
+ 0.335032 2 3 cbr 40 ------- 1 0.0 3.0 165 232
+ 0.3358 2 3 cbr 1000 ------- 2 1.0 3.1 66 231
r 0.33656 2 3 cbr 1000 ------- 2 1.0 3.1 55 193
r 0.336773 2 3 cbr 40 ------- 1 0.0 3.0 128 180
r 0.336987 2 3 cbr 40 ------- 1 0.0 3.0 129 181
+ 0.337032 2 3 cbr 40 ------- 1 0.0 3.0 166 233
r 0.3372 2 3 cbr 40 ------- 1 0.0 3.0 130 183
r 0.337413 2 3 cbr 40 ------- 1 0.0 3.0 131 184
r 0.337627 2 3 cbr 40 ------- 1 0.0 3.0 132 185
r 0.33784 2 3 cbr 40 ------- 1 0.0 3.0 133 187
r 0.338053 2 3 cbr 40 ------- 1 0.0 3.0 134 188
- 0.338387 2 3 cbr 1000 ------- 2 1.0 3.1 57 200
+ 0.339032 2 3 cbr 40 ------- 1 0.0 3.0 167 234
+ 0.3408 2 3 cbr 1000 ------- 2 1.0 3.1 67 235
+ 0.341032 2 3 cbr 40 ------- 1 0.0 3.0 168 236
+ 0.343032 2 3 cbr 40 ------- 1 0.0 3.0 169 237
r 0.343387 2 3 cbr 1000 ------- 2 1.0 3.1 56 196
- 0.34372 2 3 cbr 40 ------- 1 0.0 3.0 135 190
- 0.343933 2 3 cbr 40 ------- 1 0.0 3.0 136 191
- 0.344147 2 3 cbr 40 ------- 1 0.0 3.0 137 192
- 0.34436 2 3 cbr 40 ------- 1 0.0 3.0 138 194
- 0.344573 2 3 cbr 40 ------- 1 0.0 3.0 139 195
- 0.344787 2 3 cbr 40 ------- 1 0.0 3.0 140 197
- 0.345 2 3 cbr 40 ------- 1 0.0 3.0 141 198
+ 0.345032 2 3 cbr 40 ------- 1 0.0 3.0 170 239
- 0.345213 2 3 cbr 1000 ------- 2 1.0 3.1 58 203
+ 0.3458 2 3 cbr 1000 ------- 2 1.0 3.1 68 238
+ 0.347032 2 3 cbr 40 ------- 1 0.0 3.0 171 240
r 0.34872 2 3 cbr 1000 ------- 2 1.0 3.1 57 200
r 0.348933 2 3 cbr 40 ------- 1 0.0 3.0 135 190
+ 0.349032 2 3 cbr 40 ------- 1 0.0 3.0 172 241
r 0.349147 2 3 cbr 40 ------- 1 0.0 3.0 136 191
r 0.34936 2 3 cbr 40 ------- 1 0.0 3.0 137 192
r 0.349573 2 3 cbr 40 ------- 1 0.0 3.0 138 194
r 0.349787 2 3 cbr 40 ------- 1 0.0 3.0 139 195