+ 0 0 2 tcp 40 ------- 0 0.0 3.0 0 0 0 0x0 0 0
- 0 0 2 tcp 40 ------- 0 0.0 3.0 0 0 0 0x0 0 0
r 4e-05 0 2 tcp 40 ------- 0 0.0 3.0 0 0 0 0x0 0 0
+ 4e-05 2 3 tcp 40 ------- 0 0.0 3.0 0 0 0 0x0 0 0
- 4e-05 2 3 tcp 40 ------- 0 0.0 3.0 0 0 0 0x0 0 0
r 0.10044 2 3 tcp 40 ------- 0 0.0 3.0 0 0 0 0x0 0 0
+ 0.20044 3 2 ack 40 ------- 0 3.0 0.0 0 1 0 0x0 0 0
- 0.20044 3 2 ack 40 ------- 0 3.0 0.0 0 1 0 0x0 0 0
r 0.30084 3 2 ack 40 ------- 0 3.0 0.0 0 1 0 0x0 0 0
+ 0.30084 2 0 ack 40 ------- 0 3.0 0.0 0 1 0 0x0 0 0
- 0.30084 2 0 ack 40 ------- 0 3.0 0.0 0 1 0 0x0 0 0
r 0.30088 2 0 ack 40 ------- 0 3.0 0.0 0 1 0 0x0 0 0
+ 0.30088 0 2 tcp 1000 ------- 0 0.0 3.0 1 2 0 0x0 0 0
- 0.30088 0 2 tcp 1000 ------- 0 0.0 3.0 1 2 0 0x0 0 0
+ 0.30088 0 2 tcp 1000 ------- 0 0.0 3.0 2 3 0 0x0 0 0
r 0.30188 0 2 tcp 1000 ------- 0 0.0 3.0 1 2 0 0x0 0 0
+ 0.30188 2 3 tcp 1000 ------- 0 0.0 3.0 1 2 0 0x0 0 0
- 0.30188 2 3 tcp 1000 ------- 0 0.0 3.0 1 2 0 0x0 0 0
- 0.30188 0 2 tcp 1000 ------- 0 0.0 3.0 2 3 0 0x0 0 0
r 0.30288 0 2 tcp 1000 ------- 0 0.0 3.0 2 3 0 0x0 0 0
+ 0.30288 2 3 tcp 1000 ------- 0 0.0 3.0 2 3 0 0x0 0 0
- 0.31188 2 3 tcp 1000 ------- 0 0.0 3.0 2 3 0 0x0 0 0
r 0.41188 2 3 tcp 1000 ------- 0 0.0 3.0 1 2 0 0x0 0 0
r 0.42188 2 3 tcp 1000 ------- 0 0.0 3.0 2 3 0 0x0 0 0
+ 0.42188 3 2 ack 40 ------- 0 3.0 0.0 2 4 0 0x0 0 0
- 0.42188 3 2 ack 40 ------- 0 3.0 0.0 2 4 0 0x0 0 0
r 0.52228 3 2 ack 40 ------- 0 3.0 0.0 2 4 0 0x0 0 0
+ 0.52228 2 0 ack 40 ------- 0 3.0 0.0 2 4 0 0x0 0 0
- 0.52228 2 0 ack 40 ------- 0 3.0 0.0 2 4 0 0x0 0 0
r 0.52232 2 0 ack 40 ------- 0 3.0 0.0 2 4 0 0x0 0 0
+ 0.52232 0 2 tcp 1000 ------- 0 0.0 3.0 3 5 0 0x0 0 0
- 0.52232 0 2 tcp 1000 ------- 0 0.0 3.0 3 5 0 0x0 0 0
+ 0.52232 0 2 tcp 1000 ------- 0 0.0 3.0 4 6 0 0x0 0 0
+ 0.52232 0 2 tcp 1000 ------- 0 0.0 3.0 5 7 0 0x0 0 0
r 0.52332 0 2 tcp 1000 ------- 0 0.0 3.0 3 5 0 0x0 0 0
+ 0.52332 2 3 tcp 1000 ------- 0 0.0 3.0 3 5 0 0x0 0 0
- 0.52332 2 3 tcp 1000 ------- 0 0.0 3.0 3 5 0 0x0 0 0
- 0.52332 0 2 tcp 1000 ------- 0 0.0 3.0 4 6 0 0x0 0 0
r 0.52432 0 2 tcp 1000 ------- 0 0.0 3.0 4 6 0 0x0 0 0
+ 0.52432 2 3 tcp 1000 ------- 0 0.0 3.0 4 6 0 0x0 0 0
- 0.52432 0 2 tcp 1000 ------- 0 0.0 3.0 5 7 0 0x0 0 0
r 0.52532 0 2 tcp 1000 ------- 0 0.0 3.0 5 7 0 0x0 0 0
+ 0.52532 2 3 tcp 1000 ------- 0 0.0 3.0 5 7 0 0x0 0 0
- 0.53332 2 3 tcp 1000 ------- 0 0.0 3.0 4 6 0 0x0 0 0
- 0.54332 2 3 tcp 1000 ------- 0 0.0 3.0 5 7 0 0x0 0 0
r 0.63332 2 3 tcp 1000 ------- 0 0.0 3.0 3 5 0 0x0 0 0
r 0.64332 2 3 tcp 1000 ------- 0 0.0 3.0 4 6 0 0x0 0 0
+ 0.64332 3 2 ack 40 ------- 0 3.0 0.0 4 8 0 0x0 0 0
- 0.64332 3 2 ack 40 ------- 0 3.0 0.0 4 8 0 0x0 0 0
r 0.65332 2 3 tcp 1000 ------- 0 0.0 3.0 5 7 0 0x0 0 0
r 0.74372 3 2 ack 40 ------- 0 3.0 0.0 4 8 0 0x0 0 0
+ 0.74372 2 0 ack 40 ------- 0 3.0 0.0 4 8 0 0x0 0 0
- 0.74372 2 0 ack 40 ------- 0 3.0 0.0 4 8 0 0x0 0 0
r 0.74376 2 0 ack 40 ------- 0 3.0 0.0 4 8 0 0x0 0 0
+ 0.74376 0 2 tcp 1000 ------- 0 0.0 3.0 6 9 0 0x0 0 0
- 0.74376 0 2 tcp 1000 ------- 0 0.0 3.0 6 9 0 0x0 0 0
+ 0.74376 0 2 tcp 1000 ------- 0 0.0 3.0 7 10 0 0x0 0 0
r 0.74476 0 2 tcp 1000 ------- 0 0.0 3.0 6 9 0 0x0 0 0
+ 0.74476 2 3 tcp 1000 ------- 0 0.0 3.0 6 9 0 0x0 0 0
- 0.74476 2 3 tcp 1000 ------- 0 0.0 3.0 6 9 0 0x0 0 0
- 0.74476 0 2 tcp 1000 ------- 0 0.0 3.0 7 10 0 0x0 0 0
r 0.74576 0 2 tcp 1000 ------- 0 0.0 3.0 7 10 0 0x0 0 0
+ 0.74576 2 3 tcp 1000 ------- 0 0.0 3.0 7 10 0 0x0 0 0
+ 0.75332 3 2 ack 40 ------- 0 3.0 0.0 5 11 0 0x0 0 0
- 0.75332 3 2 ack 40 ------- 0 3.0 0.0 5 11 0 0x0 0 0
- 0.75476 2 3 tcp 1000 ------- 0 0.0 3.0 7 10 0 0x0 0 0
r 0.85372 3 2 ack 40 ------- 0 3.0 0.0 5 11 0 0x0 0 0
+ 0.85372 2 0 ack 40 ------- 0 3.0 0.0 5 11 0 0x0 0 0
- 0.85372 2 0 ack 40 ------- 0 3.0 0.0 5 11 0 0x0 0 0
r 0.85376 2 0 ack 40 ------- 0 3.0 0.0 5 11 0 0x0 0 0
r 0.85476 2 3 tcp 1000 ------- 0 0.0 3.0 6 9 0 0x0 0 0
r 0.86476 2 3 tcp 1000 ------- 0 0.0 3.0 7 10 0 0x0 0 0
+ 0.86476 3 2 ack 40 ------- 0 3.0 0.0 7 12 0 0x0 0 0
- 0.86476 3 2 ack 40 ------- 0 3.0 0.0 7 12 0 0x0 0 0
r 0.96516 3 2 ack 40 ------- 0 3.0 0.0 7 12 0 0x0 0 0
+ 0.96516 2 0 ack 40 ------- 0 3.0 0.0 7 12 0 0x0 0 0
- 0.96516 2 0 ack 40 ------- 0 3.0 0.0 7 12 0 0x0 0 0
r 0.9652 2 0 ack 40 ------- 0 3.0 0.0 7 12 0 0x0 0 0
