+ 0 0 2 tcp 40 ------- 0 0.0 3.0 0 0 0 0x0 0 0
- 0 0 2 tcp 40 ------- 0 0.0 3.0 0 0 0 0x0 0 0
r 4e-05 0 2 tcp 40 ------- 0 0.0 3.0 0 0 0 0x0 0 0
+ 0.30088 0 2 tcp 1000 ------- 0 0.0 3.0 1 2 0 0x0 0 0
- 0.30088 0 2 tcp 1000 ------- 0 0.0 3.0 1 2 0 0x0 0 0
+ 0.30088 0 2 tcp 1000 ------- 0 0.0 3.0 2 3 0 0x0 0 0
r 0.30188 0 2 tcp 1000 ------- 0 0.0 3.0 1 2 0 0x0 0 0
- 0.30188 0 2 tcp 1000 ------- 0 0.0 3.0 2 3 0 0x0 0 0
r 0.30288 0 2 tcp 1000 ------- 0 0.0 3.0 2 3 0 0x0 0 0
+ 0.52232 0 2 tcp 1000 ------- 0 0.0 3.0 3 5 0 0x0 0 0
- 0.52232 0 2 tcp 1000 ------- 0 0.0 3.0 3 5 0 0x0 0 0
+ 0.52232 0 2 tcp 1000 ------- 0 0.0 3.0 4 6 0 0x0 0 0
+ 0.52232 0 2 tcp 1000 ------- 0 0.0 3.0 5 7 0 0x0 0 0
r 0.52332 0 2 tcp 1000 ------- 0 0.0 3.0 3 5 0 0x0 0 0
- 0.52332 0 2 tcp 1000 ------- 0 0.0 3.0 4 6 0 0x0 0 0
r 0.52432 0 2 tcp 1000 ------- 0 0.0 3.0 4 6 0 0x0 0 0
- 0.52432 0 2 tcp 1000 ------- 0 0.0 3.0 5 7 0 0x0 0 0
r 0.52532 0 2 tcp 1000 ------- 0 0.0 3.0 5 7 0 0x0 0 0
+ 0.74376 0 2 tcp 1000 ------- 0 0.0 3.0 6 9 0 0x0 0 0
- 0.74376 0 2 tcp 1000 ------- 0 0.0 3.0 6 9 0 0x0 0 0
+ 0.74376 0 2 tcp 1000 ------- 0 0.0 3.0 7 10 0 0x0 0 0
r 0.74476 0 2 tcp 1000 ------- 0 0.0 3.0 6 9 0 0x0 0 0
- 0.74476 0 2 tcp 1000 ------- 0 0.0 3.0 7 10 0 0x0 0 0
r 0.74576 0 2 tcp 1000 ------- 0 0.0 3.0 7 10 0 0x0 0 0
