+ 0.1 0 2 tcp 40 ------- 0 0.0 4.0 0 0
- 0.1 0 2 tcp 40 ------- 0 0.0 4.0 0 0
r 0.105032 0 2 tcp 40 ------- 0 0.0 4.0 0 0
+ 0.105032 2 3 tcp 40 ------- 0 0.0 4.0 0 0
- 0.105032 2 3 tcp 40 ------- 0 0.0 4.0 0 0
r 0.125192 2 3 tcp 40 ------- 0 0.0 4.0 0 0
+ 0.125192 3 4 tcp 40 ------- 0 0.0 4.0 0 0
- 0.125192 3 4 tcp 40 ------- 0 0.0 4.0 0 0
r 0.130224 3 4 tcp 40 ------- 0 0.0 4.0 0 0
+ 0.130224 4 3 ack 40 ------- 0 4.0 0.0 0 1
- 0.130224 4 3 ack 40 ------- 0 4.0 0.0 0 1
r 0.135256 4 3 ack 40 ------- 0 4.0 0.0 0 1
+ 0.135256 3 2 ack 40 ------- 0 4.0 0.0 0 1
- 0.135256 3 2 ack 40 ------- 0 4.0 0.0 0 1
r 0.155416 3 2 ack 40 ------- 0 4.0 0.0 0 1
+ 0.155416 2 0 ack 40 ------- 0 4.0 0.0 0 1
- 0.155416 2 0 ack 40 ------- 0 4.0 0.0 0 1
r 0.160448 2 0 ack 40 ------- 0 4.0 0.0 0 1
+ 0.160448 0 2 tcp 1040 ------- 0 0.0 4.0 1 2
- 0.160448 0 2 tcp 1040 ------- 0 0.0 4.0 1 2
+ 0.160448 0 2 tcp 1040 ------- 0 0.0 4.0 2 3
- 0.16128 0 2 tcp 1040 ------- 0 0.0 4.0 2 3
r 0.16628 0 2 tcp 1040 ------- 0 0.0 4.0 1 2
+ 0.16628 2 3 tcp 1040 ------- 0 0.0 4.0 1 2
- 0.16628 2 3 tcp 1040 ------- 0 0.0 4.0 1 2
r 0.167112 0 2 tcp 1040 ------- 0 0.0 4.0 2 3
+ 0.167112 2 3 tcp 1040 ------- 0 0.0 4.0 2 3
- 0.17044 2 3 tcp 1040 ------- 0 0.0 4.0 2 3
r 0.19044 2 3 tcp 1040 ------- 0 0.0 4.0 1 2
+ 0.19044 3 4 tcp 1040 ------- 0 0.0 4.0 1 2
- 0.19044 3 4 tcp 1040 ------- 0 0.0 4.0 1 2
r 0.1946 2 3 tcp 1040 ------- 0 0.0 4.0 2 3
+ 0.1946 3 4 tcp 1040 ------- 0 0.0 4.0 2 3
- 0.1946 3 4 tcp 1040 ------- 0 0.0 4.0 2 3
r 0.196272 3 4 tcp 1040 ------- 0 0.0 4.0 1 2
+ 0.196272 4 3 ack 40 ------- 0 4.0 0.0 1 4
- 0.196272 4 3 ack 40 ------- 0 4.0 0.0 1 4
+ 0.2 1 2 cbr 500 ------- 0 1.0 5.0 0 5
- 0.2 1 2 cbr 500 ------- 0 1.0 5.0 0 5
r 0.200432 3 4 tcp 1040 ------- 0 0.0 4.0 2 3
+ 0.200432 4 3 ack 40 ------- 0 4.0 0.0 2 6
- 0.200432 4 3 ack 40 ------- 0 4.0 0.0 2 6
r 0.201304 4 3 ack 40 ------- 0 4.0 0.0 1 4
+ 0.201304 3 2 ack 40 ------- 0 4.0 0.0 1 4
- 0.201304 3 2 ack 40 ------- 0 4.0 0.0 1 4
+ 0.205 1 2 cbr 500 ------- 0 1.0 5.0 1 7
- 0.205 1 2 cbr 500 ------- 0 1.0 5.0 1 7
r 0.2054 1 2 cbr 500 ------- 0 1.0 5.0 0 5
+ 0.2054 2 3 cbr 500 ------- 0 1.0 5.0 0 5
- 0.2054 2 3 cbr 500 ------- 0 1.0 5.0 0 5
r 0.205464 4 3 ack 40 ------- 0 4.0 0.0 2 6
+ 0.205464 3 2 ack 40 ------- 0 4.0 0.0 2 6
- 0.205464 3 2 ack 40 ------- 0 4.0 0.0 2 6
+ 0.21 1 2 cbr 500 ------- 0 1.0 5.0 2 8
- 0.21 1 2 cbr 500 ------- 0 1.0 5.0 2 8
r 0.2104 1 2 cbr 500 ------- 0 1.0 5.0 1 7
+ 0.2104 2 3 cbr 500 ------- 0 1.0 5.0 1 7
- 0.2104 2 3 cbr 500 ------- 0 1.0 5.0 1 7
+ 0.215 1 2 cbr 500 ------- 0 1.0 5.0 3 9
- 0.215 1 2 cbr 500 ------- 0 1.0 5.0 3 9
r 0.2154 1 2 cbr 500 ------- 0 1.0 5.0 2 8
+ 0.2154 2 3 cbr 500 ------- 0 1.0 5.0 2 8
- 0.2154 2 3 cbr 500 ------- 0 1.0 5.0 2 8
+ 0.22 1 2 cbr 500 ------- 0 1.0 5.0 4 10
- 0.22 1 2 cbr 500 ------- 0 1.0 5.0 4 10
r 0.2204 1 2 cbr 500 ------- 0 1.0 5.0 3 9
+ 0.2204 2 3 cbr 500 ------- 0 1.0 5.0 3 9
- 0.2204 2 3 cbr 500 ------- 0 1.0 5.0 3 9
r 0.221464 3 2 ack 40 ------- 0 4.0 0.0 1 4
+ 0.221464 2 0 ack 40 ------- 0 4.0 0.0 1 4
- 0.221464 2 0 ack 40 ------- 0 4.0 0.0 1 4
+ 0.225 1 2 cbr 500 ------- 0 1.0 5.0 5 11
- 0.225 1 2 cbr 500 ------- 0 1.0 5.0 5 11
r 0.2254 1 2 cbr 500 ------- 0 1.0 5.0 4 10
+ 0.2254 2 3 cbr 500 ------- 0 1.0 5.0 4 10
- 0.2254 2 3 cbr 500 ------- 0 1.0 5.0 4 10
r 0.225624 3 2 ack 40 ------- 0 4.0 0.0 2 6
+ 0.225624 2 0 ack 40 ------- 0 4.0 0.0 2 6
- 0.225624 2 0 ack 40 ------- 0 4.0 0.0 2 6
r 0.226496 2 0 ack 40 ------- 0 4.0 0.0 1 4
+ 0.226496 0 2 tcp 1040 ------- 0 0.0 4.0 3 12
- 0.226496 0 2 tcp 1040 ------- 0 0.0 4.0 3 12
+ 0.226496 0 2 tcp 1040 ------- 0 0.0 4.0 4 13
- 0.227328 0 2 tcp 1040 ------- 0 0.0 4.0 4 13
r 0.2274 2 3 cbr 500 ------- 0 1.0 5.0 0 5
+ 0.2274 3 5 cbr 500 ------- 0 1.0 5.0 0 5
- 0.2274 3 5 cbr 500 ------- 0 1.0 5.0 0 5
+ 0.23 1 2 cbr 500 ------- 0 1.0 5.0 6 14
- 0.23 1 2 cbr 500 ------- 0 1.0 5.0 6 14
r 0.2304 1 2 cbr 500 ------- 0 1.0 5.0 5 11
+ 0.2304 2 3 cbr 500 ------- 0 1.0 5.0 5 11
- 0.2304 2 3 cbr 500 ------- 0 1.0 5.0 5 11
r 0.230656 2 0 ack 40 ------- 0 4.0 0.0 2 6
+ 0.230656 0 2 tcp 1040 ------- 0 0.0 4.0 5 15
- 0.230656 0 2 tcp 1040 ------- 0 0.0 4.0 5 15
+ 0.230656 0 2 tcp 1040 ------- 0 0.0 4.0 6 16
- 0.231488 0 2 tcp 1040 ------- 0 0.0 4.0 6 16
r 0.232328 0 2 tcp 1040 ------- 0 0.0 4.0 3 12
+ 0.232328 2 3 tcp 1040 ------- 0 0.0 4.0 3 12
r 0.2324 2 3 cbr 500 ------- 0 1.0 5.0 1 7
+ 0.2324 3 5 cbr 500 ------- 0 1.0 5.0 1 7
- 0.2324 3 5 cbr 500 ------- 0 1.0 5.0 1 7
- 0.2324 2 3 tcp 1040 ------- 0 0.0 4.0 3 12
r 0.2328 3 5 cbr 500 ------- 0 1.0 5.0 0 5
r 0.23316 0 2 tcp 1040 ------- 0 0.0 4.0 4 13
+ 0.23316 2 3 tcp 1040 ------- 0 0.0 4.0 4 13
+ 0.235 1 2 cbr 500 ------- 0 1.0 5.0 7 17
- 0.235 1 2 cbr 500 ------- 0 1.0 5.0 7 17
r 0.2354 1 2 cbr 500 ------- 0 1.0 5.0 6 14
+ 0.2354 2 3 cbr 500 ------- 0 1.0 5.0 6 14
r 0.236488 0 2 tcp 1040 ------- 0 0.0 4.0 5 15
+ 0.236488 2 3 tcp 1040 ------- 0 0.0 4.0 5 15
- 0.23656 2 3 tcp 1040 ------- 0 0.0 4.0 4 13
r 0.23732 0 2 tcp 1040 ------- 0 0.0 4.0 6 16
+ 0.23732 2 3 tcp 1040 ------- 0 0.0 4.0 6 16
r 0.2374 2 3 cbr 500 ------- 0 1.0 5.0 2 8
+ 0.2374 3 5 cbr 500 ------- 0 1.0 5.0 2 8
- 0.2374 3 5 cbr 500 ------- 0 1.0 5.0 2 8
r 0.2378 3 5 cbr 500 ------- 0 1.0 5.0 1 7
+ 0.24 1 2 cbr 500 ------- 0 1.0 5.0 8 18
- 0.24 1 2 cbr 500 ------- 0 1.0 5.0 8 18
r 0.2404 1 2 cbr 500 ------- 0 1.0 5.0 7 17
+ 0.2404 2 3 cbr 500 ------- 0 1.0 5.0 7 17
- 0.24072 2 3 cbr 500 ------- 0 1.0 5.0 6 14
r 0.2424 2 3 cbr 500 ------- 0 1.0 5.0 3 9
+ 0.2424 3 5 cbr 500 ------- 0 1.0 5.0 3 9
- 0.2424 3 5 cbr 500 ------- 0 1.0 5.0 3 9
- 0.24272 2 3 tcp 1040 ------- 0 0.0 4.0 5 15
r 0.2428 3 5 cbr 500 ------- 0 1.0 5.0 2 8
+ 0.245 1 2 cbr 500 ------- 0 1.0 5.0 9 19
- 0.245 1 2 cbr 500 ------- 0 1.0 5.0 9 19
r 0.2454 1 2 cbr 500 ------- 0 1.0 5.0 8 18
+ 0.2454 2 3 cbr 500 ------- 0 1.0 5.0 8 18
- 0.24688 2 3 tcp 1040 ------- 0 0.0 4.0 6 16
r 0.2474 2 3 cbr 500 ------- 0 1.0 5.0 4 10
+ 0.2474 3 5 cbr 500 ------- 0 1.0 5.0 4 10
- 0.2474 3 5 cbr 500 ------- 0 1.0 5.0 4 10
r 0.2478 3 5 cbr 500 ------- 0 1.0 5.0 3 9
+ 0.25 1 2 cbr 500 ------- 0 1.0 5.0 10 20
- 0.25 1 2 cbr 500 ------- 0 1.0 5.0 10 20
r 0.2504 1 2 cbr 500 ------- 0 1.0 5.0 9 19
+ 0.2504 2 3 cbr 500 ------- 0 1.0 5.0 9 19
- 0.25104 2 3 cbr 500 ------- 0 1.0 5.0 7 17
r 0.2524 2 3 cbr 500 ------- 0 1.0 5.0 5 11
+ 0.2524 3 5 cbr 500 ------- 0 1.0 5.0 5 11
- 0.2524 3 5 cbr 500 ------- 0 1.0 5.0 5 11
r 0.2528 3 5 cbr 500 ------- 0 1.0 5.0 4 10
- 0.25304 2 3 cbr 500 ------- 0 1.0 5.0 8 18
+ 0.255 1 2 cbr 500 ------- 0 1.0 5.0 11 21
- 0.255 1 2 cbr 500 ------- 0 1.0 5.0 11 21
- 0.25504 2 3 cbr 500 ------- 0 1.0 5.0 9 19
r 0.2554 1 2 cbr 500 ------- 0 1.0 5.0 10 20
+ 0.2554 2 3 cbr 500 ------- 0 1.0 5.0 10 20
r 0.25656 2 3 tcp 1040 ------- 0 0.0 4.0 3 12
+ 0.25656 3 4 tcp 1040 ------- 0 0.0 4.0 3 12
- 0.25656 3 4 tcp 1040 ------- 0 0.0 4.0 3 12
- 0.25704 2 3 cbr 500 ------- 0 1.0 5.0 10 20
r 0.2578 3 5 cbr 500 ------- 0 1.0 5.0 5 11
+ 0.26 1 2 cbr 500 ------- 0 1.0 5.0 12 22
- 0.26 1 2 cbr 500 ------- 0 1.0 5.0 12 22
r 0.2604 1 2 cbr 500 ------- 0 1.0 5.0 11 21
+ 0.2604 2 3 cbr 500 ------- 0 1.0 5.0 11 21
- 0.2604 2 3 cbr 500 ------- 0 1.0 5.0 11 21
r 0.26072 2 3 tcp 1040 ------- 0 0.0 4.0 4 13
+ 0.26072 3 4 tcp 1040 ------- 0 0.0 4.0 4 13
- 0.26072 3 4 tcp 1040 ------- 0 0.0 4.0 4 13
r 0.262392 3 4 tcp 1040 ------- 0 0.0 4.0 3 12
+ 0.262392 4 3 ack 40 ------- 0 4.0 0.0 3 23
- 0.262392 4 3 ack 40 ------- 0 4.0 0.0 3 23
r 0.26272 2 3 cbr 500 ------- 0 1.0 5.0 6 14
+ 0.26272 3 5 cbr 500 ------- 0 1.0 5.0 6 14
- 0.26272 3 5 cbr 500 ------- 0 1.0 5.0 6 14
+ 0.265 1 2 cbr 500 ------- 0 1.0 5.0 13 24
- 0.265 1 2 cbr 500 ------- 0 1.0 5.0 13 24
r 0.2654 1 2 cbr 500 ------- 0 1.0 5.0 12 22
+ 0.2654 2 3 cbr 500 ------- 0 1.0 5.0 12 22
- 0.2654 2 3 cbr 500 ------- 0 1.0 5.0 12 22
r 0.266552 3 4 tcp 1040 ------- 0 0.0 4.0 4 13
+ 0.266552 4 3 ack 40 ------- 0 4.0 0.0 4 25
- 0.266552 4 3 ack 40 ------- 0 4.0 0.0 4 25
r 0.26688 2 3 tcp 1040 ------- 0 0.0 4.0 5 15
+ 0.26688 3 4 tcp 1040 ------- 0 0.0 4.0 5 15
- 0.26688 3 4 tcp 1040 ------- 0 0.0 4.0 5 15
r 0.267424 4 3 ack 40 ------- 0 4.0 0.0 3 23
+ 0.267424 3 2 ack 40 ------- 0 4.0 0.0 3 23
- 0.267424 3 2 ack 40 ------- 0 4.0 0.0 3 23
r 0.26812 3 5 cbr 500 ------- 0 1.0 5.0 6 14
+ 0.27 1 2 cbr 500 ------- 0 1.0 5.0 14 26
- 0.27 1 2 cbr 500 ------- 0 1.0 5.0 14 26
r 0.2704 1 2 cbr 500 ------- 0 1.0 5.0 13 24
+ 0.2704 2 3 cbr 500 ------- 0 1.0 5.0 13 24
- 0.2704 2 3 cbr 500 ------- 0 1.0 5.0 13 24
r 0.27104 2 3 tcp 1040 ------- 0 0.0 4.0 6 16
+ 0.27104 3 4 tcp 1040 ------- 0 0.0 4.0 6 16
- 0.27104 3 4 tcp 1040 ------- 0 0.0 4.0 6 16
r 0.271584 4 3 ack 40 ------- 0 4.0 0.0 4 25
+ 0.271584 3 2 ack 40 ------- 0 4.0 0.0 4 25
- 0.271584 3 2 ack 40 ------- 0 4.0 0.0 4 25
r 0.272712 3 4 tcp 1040 ------- 0 0.0 4.0 5 15
+ 0.272712 4 3 ack 40 ------- 0 4.0 0.0 5 27
- 0.272712 4 3 ack 40 ------- 0 4.0 0.0 5 27
r 0.27304 2 3 cbr 500 ------- 0 1.0 5.0 7 17
+ 0.27304 3 5 cbr 500 ------- 0 1.0 5.0 7 17
- 0.27304 3 5 cbr 500 ------- 0 1.0 5.0 7 17
+ 0.275 1 2 cbr 500 ------- 0 1.0 5.0 15 28
- 0.275 1 2 cbr 500 ------- 0 1.0 5.0 15 28
r 0.27504 2 3 cbr 500 ------- 0 1.0 5.0 8 18
+ 0.27504 3 5 cbr 500 ------- 0 1.0 5.0 8 18
- 0.27504 3 5 cbr 500 ------- 0 1.0 5.0 8 18
r 0.2754 1 2 cbr 500 ------- 0 1.0 5.0 14 26
+ 0.2754 2 3 cbr 500 ------- 0 1.0 5.0 14 26
- 0.2754 2 3 cbr 500 ------- 0 1.0 5.0 14 26
r 0.276872 3 4 tcp 1040 ------- 0 0.0 4.0 6 16
+ 0.276872 4 3 ack 40 ------- 0 4.0 0.0 6 29
- 0.276872 4 3 ack 40 ------- 0 4.0 0.0 6 29
r 0.27704 2 3 cbr 500 ------- 0 1.0 5.0 9 19
+ 0.27704 3 5 cbr 500 ------- 0 1.0 5.0 9 19
- 0.27704 3 5 cbr 500 ------- 0 1.0 5.0 9 19
r 0.277744 4 3 ack 40 ------- 0 4.0 0.0 5 27
+ 0.277744 3 2 ack 40 ------- 0 4.0 0.0 5 27
- 0.277744 3 2 ack 40 ------- 0 4.0 0.0 5 27
r 0.27844 3 5 cbr 500 ------- 0 1.0 5.0 7 17
r 0.27904 2 3 cbr 500 ------- 0 1.0 5.0 10 20
+ 0.27904 3 5 cbr 500 ------- 0 1.0 5.0 10 20
- 0.27904 3 5 cbr 500 ------- 0 1.0 5.0 10 20
+ 0.28 1 2 cbr 500 ------- 0 1.0 5.0 16 30
- 0.28 1 2 cbr 500 ------- 0 1.0 5.0 16 30
r 0.2804 1 2 cbr 500 ------- 0 1.0 5.0 15 28
+ 0.2804 2 3 cbr 500 ------- 0 1.0 5.0 15 28
- 0.2804 2 3 cbr 500 ------- 0 1.0 5.0 15 28
r 0.28044 3 5 cbr 500 ------- 0 1.0 5.0 8 18
r 0.281904 4 3 ack 40 ------- 0 4.0 0.0 6 29
+ 0.281904 3 2 ack 40 ------- 0 4.0 0.0 6 29
- 0.281904 3 2 ack 40 ------- 0 4.0 0.0 6 29
r 0.2824 2 3 cbr 500 ------- 0 1.0 5.0 11 21
+ 0.2824 3 5 cbr 500 ------- 0 1.0 5.0 11 21
- 0.2824 3 5 cbr 500 ------- 0 1.0 5.0 11 21
r 0.28244 3 5 cbr 500 ------- 0 1.0 5.0 9 19
r 0.28444 3 5 cbr 500 ------- 0 1.0 5.0 10 20
+ 0.285 1 2 cbr 500 ------- 0 1.0 5.0 17 31
- 0.285 1 2 cbr 500 ------- 0 1.0 5.0 17 31
r 0.2854 1 2 cbr 500 ------- 0 1.0 5.0 16 30
+ 0.2854 2 3 cbr 500 ------- 0 1.0 5.0 16 30
- 0.2854 2 3 cbr 500 ------- 0 1.0 5.0 16 30
r 0.2874 2 3 cbr 500 ------- 0 1.0 5.0 12 22
+ 0.2874 3 5 cbr 500 ------- 0 1.0 5.0 12 22
- 0.2874 3 5 cbr 500 ------- 0 1.0 5.0 12 22
r 0.287584 3 2 ack 40 ------- 0 4.0 0.0 3 23
+ 0.287584 2 0 ack 40 ------- 0 4.0 0.0 3 23
- 0.287584 2 0 ack 40 ------- 0 4.0 0.0 3 23
r 0.2878 3 5 cbr 500 ------- 0 1.0 5.0 11 21
+ 0.29 1 2 cbr 500 ------- 0 1.0 5.0 18 32
- 0.29 1 2 cbr 500 ------- 0 1.0 5.0 18 32
r 0.2904 1 2 cbr 500 ------- 0 1.0 5.0 17 31
+ 0.2904 2 3 cbr 500 ------- 0 1.0 5.0 17 31
- 0.2904 2 3 cbr 500 ------- 0 1.0 5.0 17 31
r 0.291744 3 2 ack 40 ------- 0 4.0 0.0 4 25
+ 0.291744 2 0 ack 40 ------- 0 4.0 0.0 4 25
- 0.291744 2 0 ack 40 ------- 0 4.0 0.0 4 25
r 0.2924 2 3 cbr 500 ------- 0 1.0 5.0 13 24
+ 0.2924 3 5 cbr 500 ------- 0 1.0 5.0 13 24
- 0.2924 3 5 cbr 500 ------- 0 1.0 5.0 13 24
r 0.292616 2 0 ack 40 ------- 0 4.0 0.0 3 23
+ 0.292616 0 2 tcp 1040 ------- 0 0.0 4.0 7 33
- 0.292616 0 2 tcp 1040 ------- 0 0.0 4.0 7 33
+ 0.292616 0 2 tcp 1040 ------- 0 0.0 4.0 8 34
r 0.2928 3 5 cbr 500 ------- 0 1.0 5.0 12 22
- 0.293448 0 2 tcp 1040 ------- 0 0.0 4.0 8 34
+ 0.295 1 2 cbr 500 ------- 0 1.0 5.0 19 35
- 0.295 1 2 cbr 500 ------- 0 1.0 5.0 19 35
r 0.2954 1 2 cbr 500 ------- 0 1.0 5.0 18 32
+ 0.2954 2 3 cbr 500 ------- 0 1.0 5.0 18 32
- 0.2954 2 3 cbr 500 ------- 0 1.0 5.0 18 32
r 0.296776 2 0 ack 40 ------- 0 4.0 0.0 4 25
+ 0.296776 0 2 tcp 1040 ------- 0 0.0 4.0 9 36
- 0.296776 0 2 tcp 1040 ------- 0 0.0 4.0 9 36
+ 0.296776 0 2 tcp 1040 ------- 0 0.0 4.0 10 37
r 0.2974 2 3 cbr 500 ------- 0 1.0 5.0 14 26
+ 0.2974 3 5 cbr 500 ------- 0 1.0 5.0 14 26
- 0.2974 3 5 cbr 500 ------- 0 1.0 5.0 14 26
- 0.297608 0 2 tcp 1040 ------- 0 0.0 4.0 10 37
r 0.2978 3 5 cbr 500 ------- 0 1.0 5.0 13 24
r 0.297904 3 2 ack 40 ------- 0 4.0 0.0 5 27
+ 0.297904 2 0 ack 40 ------- 0 4.0 0.0 5 27
- 0.297904 2 0 ack 40 ------- 0 4.0 0.0 5 27
r 0.298448 0 2 tcp 1040 ------- 0 0.0 4.0 7 33
+ 0.298448 2 3 tcp 1040 ------- 0 0.0 4.0 7 33
- 0.298448 2 3 tcp 1040 ------- 0 0.0 4.0 7 33
r 0.29928 0 2 tcp 1040 ------- 0 0.0 4.0 8 34
+ 0.29928 2 3 tcp 1040 ------- 0 0.0 4.0 8 34
+ 0.3 1 2 cbr 500 ------- 0 1.0 5.0 20 38
- 0.3 1 2 cbr 500 ------- 0 1.0 5.0 20 38
r 0.3004 1 2 cbr 500 ------- 0 1.0 5.0 19 35
+ 0.3004 2 3 cbr 500 ------- 0 1.0 5.0 19 35
r 0.302064 3 2 ack 40 ------- 0 4.0 0.0 6 29
+ 0.302064 2 0 ack 40 ------- 0 4.0 0.0 6 29
- 0.302064 2 0 ack 40 ------- 0 4.0 0.0 6 29
r 0.3024 2 3 cbr 500 ------- 0 1.0 5.0 15 28
+ 0.3024 3 5 cbr 500 ------- 0 1.0 5.0 15 28
- 0.3024 3 5 cbr 500 ------- 0 1.0 5.0 15 28
r 0.302608 0 2 tcp 1040 ------- 0 0.0 4.0 9 36
+ 0.302608 2 3 tcp 1040 ------- 0 0.0 4.0 9 36
- 0.302608 2 3 tcp 1040 ------- 0 0.0 4.0 8 34
r 0.3028 3 5 cbr 500 ------- 0 1.0 5.0 14 26
r 0.302936 2 0 ack 40 ------- 0 4.0 0.0 5 27
+ 0.302936 0 2 tcp 1040 ------- 0 0.0 4.0 11 39
- 0.302936 0 2 tcp 1040 ------- 0 0.0 4.0 11 39
+ 0.302936 0 2 tcp 1040 ------- 0 0.0 4.0 12 40
r 0.30344 0 2 tcp 1040 ------- 0 0.0 4.0 10 37
+ 0.30344 2 3 tcp 1040 ------- 0 0.0 4.0 10 37
- 0.303768 0 2 tcp 1040 ------- 0 0.0 4.0 12 40
+ 0.305 1 2 cbr 500 ------- 0 1.0 5.0 21 41
- 0.305 1 2 cbr 500 ------- 0 1.0 5.0 21 41
r 0.3054 1 2 cbr 500 ------- 0 1.0 5.0 20 38
+ 0.3054 2 3 cbr 500 ------- 0 1.0 5.0 20 38
- 0.306768 2 3 cbr 500 ------- 0 1.0 5.0 19 35
r 0.307096 2 0 ack 40 ------- 0 4.0 0.0 6 29
+ 0.307096 0 2 tcp 1040 ------- 0 0.0 4.0 13 42
- 0.307096 0 2 tcp 1040 ------- 0 0.0 4.0 13 42
+ 0.307096 0 2 tcp 1040 ------- 0 0.0 4.0 14 43
r 0.3074 2 3 cbr 500 ------- 0 1.0 5.0 16 30
+ 0.3074 3 5 cbr 500 ------- 0 1.0 5.0 16 30
- 0.3074 3 5 cbr 500 ------- 0 1.0 5.0 16 30
r 0.3078 3 5 cbr 500 ------- 0 1.0 5.0 15 28
- 0.307928 0 2 tcp 1040 ------- 0 0.0 4.0 14 43
r 0.308768 0 2 tcp 1040 ------- 0 0.0 4.0 11 39
+ 0.308768 2 3 tcp 1040 ------- 0 0.0 4.0 11 39
- 0.308768 2 3 tcp 1040 ------- 0 0.0 4.0 9 36
r 0.3096 0 2 tcp 1040 ------- 0 0.0 4.0 12 40
+ 0.3096 2 3 tcp 1040 ------- 0 0.0 4.0 12 40
+ 0.31 1 2 cbr 500 ------- 0 1.0 5.0 22 44
- 0.31 1 2 cbr 500 ------- 0 1.0 5.0 22 44
r 0.3104 1 2 cbr 500 ------- 0 1.0 5.0 21 41
+ 0.3104 2 3 cbr 500 ------- 0 1.0 5.0 21 41
r 0.3124 2 3 cbr 500 ------- 0 1.0 5.0 17 31
+ 0.3124 3 5 cbr 500 ------- 0 1.0 5.0 17 31
- 0.3124 3 5 cbr 500 ------- 0 1.0 5.0 17 31
r 0.3128 3 5 cbr 500 ------- 0 1.0 5.0 16 30
r 0.312928 0 2 tcp 1040 ------- 0 0.0 4.0 13 42
+ 0.312928 2 3 tcp 1040 ------- 0 0.0 4.0 13 42
- 0.312928 2 3 tcp 1040 ------- 0 0.0 4.0 10 37
r 0.31376 0 2 tcp 1040 ------- 0 0.0 4.0 14 43
+ 0.31376 2 3 tcp 1040 ------- 0 0.0 4.0 14 43
+ 0.315 1 2 cbr 500 ------- 0 1.0 5.0 23 45
- 0.315 1 2 cbr 500 ------- 0 1.0 5.0 23 45
r 0.3154 1 2 cbr 500 ------- 0 1.0 5.0 22 44
+ 0.3154 2 3 cbr 500 ------- 0 1.0 5.0 22 44
- 0.317088 2 3 cbr 500 ------- 0 1.0 5.0 20 38
r 0.3174 2 3 cbr 500 ------- 0 1.0 5.0 18 32
+ 0.3174 3 5 cbr 500 ------- 0 1.0 5.0 18 32
- 0.3174 3 5 cbr 500 ------- 0 1.0 5.0 18 32
r 0.3178 3 5 cbr 500 ------- 0 1.0 5.0 17 31
- 0.319088 2 3 tcp 1040 ------- 0 0.0 4.0 11 39
+ 0.32 1 2 cbr 500 ------- 0 1.0 5.0 24 46
- 0.32 1 2 cbr 500 ------- 0 1.0 5.0 24 46
r 0.3204 1 2 cbr 500 ------- 0 1.0 5.0 23 45
+ 0.3204 2 3 cbr 500 ------- 0 1.0 5.0 23 45
r 0.322608 2 3 tcp 1040 ------- 0 0.0 4.0 7 33
+ 0.322608 3 4 tcp 1040 ------- 0 0.0 4.0 7 33
- 0.322608 3 4 tcp 1040 ------- 0 0.0 4.0 7 33
r 0.3228 3 5 cbr 500 ------- 0 1.0 5.0 18 32
- 0.323248 2 3 tcp 1040 ------- 0 0.0 4.0 12 40
+ 0.325 1 2 cbr 500 ------- 0 1.0 5.0 25 47
- 0.325 1 2 cbr 500 ------- 0 1.0 5.0 25 47
r 0.3254 1 2 cbr 500 ------- 0 1.0 5.0 24 46
+ 0.3254 2 3 cbr 500 ------- 0 1.0 5.0 24 46
r 0.326768 2 3 tcp 1040 ------- 0 0.0 4.0 8 34
+ 0.326768 3 4 tcp 1040 ------- 0 0.0 4.0 8 34
- 0.326768 3 4 tcp 1040 ------- 0 0.0 4.0 8 34
- 0.327408 2 3 cbr 500 ------- 0 1.0 5.0 21 41
r 0.32844 3 4 tcp 1040 ------- 0 0.0 4.0 7 33
+ 0.32844 4 3 ack 40 ------- 0 4.0 0.0 7 48
- 0.32844 4 3 ack 40 ------- 0 4.0 0.0 7 48
r 0.328768 2 3 cbr 500 ------- 0 1.0 5.0 19 35
+ 0.328768 3 5 cbr 500 ------- 0 1.0 5.0 19 35
- 0.328768 3 5 cbr 500 ------- 0 1.0 5.0 19 35
- 0.329408 2 3 tcp 1040 ------- 0 0.0 4.0 13 42
+ 0.33 1 2 cbr 500 ------- 0 1.0 5.0 26 49
- 0.33 1 2 cbr 500 ------- 0 1.0 5.0 26 49
r 0.3304 1 2 cbr 500 ------- 0 1.0 5.0 25 47
+ 0.3304 2 3 cbr 500 ------- 0 1.0 5.0 25 47
r 0.3326 3 4 tcp 1040 ------- 0 0.0 4.0 8 34
+ 0.3326 4 3 ack 40 ------- 0 4.0 0.0 8 50
- 0.3326 4 3 ack 40 ------- 0 4.0 0.0 8 50
r 0.332928 2 3 tcp 1040 ------- 0 0.0 4.0 9 36
+ 0.332928 3 4 tcp 1040 ------- 0 0.0 4.0 9 36
- 0.332928 3 4 tcp 1040 ------- 0 0.0 4.0 9 36
r 0.333472 4 3 ack 40 ------- 0 4.0 0.0 7 48
+ 0.333472 3 2 ack 40 ------- 0 4.0 0.0 7 48
- 0.333472 3 2 ack 40 ------- 0 4.0 0.0 7 48
- 0.333568 2 3 tcp 1040 ------- 0 0.0 4.0 14 43
r 0.334168 3 5 cbr 500 ------- 0 1.0 5.0 19 35
+ 0.335 1 2 cbr 500 ------- 0 1.0 5.0 27 51
- 0.335 1 2 cbr 500 ------- 0 1.0 5.0 27 51
r 0.3354 1 2 cbr 500 ------- 0 1.0 5.0 26 49
+ 0.3354 2 3 cbr 500 ------- 0 1.0 5.0 26 49
r 0.337088 2 3 tcp 1040 ------- 0 0.0 4.0 10 37
+ 0.337088 3 4 tcp 1040 ------- 0 0.0 4.0 10 37
- 0.337088 3 4 tcp 1040 ------- 0 0.0 4.0 10 37
r 0.337632 4 3 ack 40 ------- 0 4.0 0.0 8 50
+ 0.337632 3 2 ack 40 ------- 0 4.0 0.0 8 50
- 0.337632 3 2 ack 40 ------- 0 4.0 0.0 8 50
- 0.337728 2 3 cbr 500 ------- 0 1.0 5.0 22 44
r 0.33876 3 4 tcp 1040 ------- 0 0.0 4.0 9 36
+ 0.33876 4 3 ack 40 ------- 0 4.0 0.0 9 52
- 0.33876 4 3 ack 40 ------- 0 4.0 0.0 9 52
r 0.339088 2 3 cbr 500 ------- 0 1.0 5.0 20 38
+ 0.339088 3 5 cbr 500 ------- 0 1.0 5.0 20 38
- 0.339088 3 5 cbr 500 ------- 0 1.0 5.0 20 38
- 0.339728 2 3 cbr 500 ------- 0 1.0 5.0 23 45
+ 0.34 1 2 cbr 500 ------- 0 1.0 5.0 28 53
- 0.34 1 2 cbr 500 ------- 0 1.0 5.0 28 53
r 0.3404 1 2 cbr 500 ------- 0 1.0 5.0 27 51
+ 0.3404 2 3 cbr 500 ------- 0 1.0 5.0 27 51
- 0.341728 2 3 cbr 500 ------- 0 1.0 5.0 24 46
r 0.34292 3 4 tcp 1040 ------- 0 0.0 4.0 10 37
+ 0.34292 4 3 ack 40 ------- 0 4.0 0.0 10 54
- 0.34292 4 3 ack 40 ------- 0 4.0 0.0 10 54
r 0.343248 2 3 tcp 1040 ------- 0 0.0 4.0 11 39
+ 0.343248 3 4 tcp 1040 ------- 0 0.0 4.0 11 39
- 0.343248 3 4 tcp 1040 ------- 0 0.0 4.0 11 39
- 0.343728 2 3 cbr 500 ------- 0 1.0 5.0 25 47
r 0.343792 4 3 ack 40 ------- 0 4.0 0.0 9 52
+ 0.343792 3 2 ack 40 ------- 0 4.0 0.0 9 52
- 0.343792 3 2 ack 40 ------- 0 4.0 0.0 9 52
r 0.344488 3 5 cbr 500 ------- 0 1.0 5.0 20 38
+ 0.345 1 2 cbr 500 ------- 0 1.0 5.0 29 55
- 0.345 1 2 cbr 500 ------- 0 1.0 5.0 29 55
r 0.3454 1 2 cbr 500 ------- 0 1.0 5.0 28 53
+ 0.3454 2 3 cbr 500 ------- 0 1.0 5.0 28 53
- 0.345728 2 3 cbr 500 ------- 0 1.0 5.0 26 49
r 0.347408 2 3 tcp 1040 ------- 0 0.0 4.0 12 40
+ 0.347408 3 4 tcp 1040 ------- 0 0.0 4.0 12 40
- 0.347408 3 4 tcp 1040 ------- 0 0.0 4.0 12 40
- 0.347728 2 3 cbr 500 ------- 0 1.0 5.0 27 51
r 0.347952 4 3 ack 40 ------- 0 4.0 0.0 10 54
+ 0.347952 3 2 ack 40 ------- 0 4.0 0.0 10 54
- 0.347952 3 2 ack 40 ------- 0 4.0 0.0 10 54
r 0.34908 3 4 tcp 1040 ------- 0 0.0 4.0 11 39
+ 0.34908 4 3 ack 40 ------- 0 4.0 0.0 11 56
- 0.34908 4 3 ack 40 ------- 0 4.0 0.0 11 56
r 0.349408 2 3 cbr 500 ------- 0 1.0 5.0 21 41
+ 0.349408 3 5 cbr 500 ------- 0 1.0 5.0 21 41
- 0.349408 3 5 cbr 500 ------- 0 1.0 5.0 21 41
- 0.349728 2 3 cbr 500 ------- 0 1.0 5.0 28 53
+ 0.35 1 2 cbr 500 ------- 0 1.0 5.0 30 57
- 0.35 1 2 cbr 500 ------- 0 1.0 5.0 30 57
r 0.3504 1 2 cbr 500 ------- 0 1.0 5.0 29 55
+ 0.3504 2 3 cbr 500 ------- 0 1.0 5.0 29 55
- 0.351728 2 3 cbr 500 ------- 0 1.0 5.0 29 55
r 0.35324 3 4 tcp 1040 ------- 0 0.0 4.0 12 40
+ 0.35324 4 3 ack 40 ------- 0 4.0 0.0 12 58
- 0.35324 4 3 ack 40 ------- 0 4.0 0.0 12 58
r 0.353568 2 3 tcp 1040 ------- 0 0.0 4.0 13 42
+ 0.353568 3 4 tcp 1040 ------- 0 0.0 4.0 13 42
- 0.353568 3 4 tcp 1040 ------- 0 0.0 4.0 13 42
r 0.353632 3 2 ack 40 ------- 0 4.0 0.0 7 48
+ 0.353632 2 0 ack 40 ------- 0 4.0 0.0 7 48
- 0.353632 2 0 ack 40 ------- 0 4.0 0.0 7 48
r 0.354112 4 3 ack 40 ------- 0 4.0 0.0 11 56
+ 0.354112 3 2 ack 40 ------- 0 4.0 0.0 11 56
- 0.354112 3 2 ack 40 ------- 0 4.0 0.0 11 56
r 0.354808 3 5 cbr 500 ------- 0 1.0 5.0 21 41
+ 0.355 1 2 cbr 500 ------- 0 1.0 5.0 31 59
- 0.355 1 2 cbr 500 ------- 0 1.0 5.0 31 59
r 0.3554 1 2 cbr 500 ------- 0 1.0 5.0 30 57
+ 0.3554 2 3 cbr 500 ------- 0 1.0 5.0 30 57
- 0.3554 2 3 cbr 500 ------- 0 1.0 5.0 30 57
r 0.357728 2 3 tcp 1040 ------- 0 0.0 4.0 14 43
+ 0.357728 3 4 tcp 1040 ------- 0 0.0 4.0 14 43
- 0.357728 3 4 tcp 1040 ------- 0 0.0 4.0 14 43
r 0.357792 3 2 ack 40 ------- 0 4.0 0.0 8 50
+ 0.357792 2 0 ack 40 ------- 0 4.0 0.0 8 50
- 0.357792 2 0 ack 40 ------- 0 4.0 0.0 8 50
r 0.358272 4 3 ack 40 ------- 0 4.0 0.0 12 58
+ 0.358272 3 2 ack 40 ------- 0 4.0 0.0 12 58
- 0.358272 3 2 ack 40 ------- 0 4.0 0.0 12 58
r 0.358664 2 0 ack 40 ------- 0 4.0 0.0 7 48
+ 0.358664 0 2 tcp 1040 ------- 0 0.0 4.0 15 60
- 0.358664 0 2 tcp 1040 ------- 0 0.0 4.0 15 60
+ 0.358664 0 2 tcp 1040 ------- 0 0.0 4.0 16 61
r 0.3594 3 4 tcp 1040 ------- 0 0.0 4.0 13 42
+ 0.3594 4 3 ack 40 ------- 0 4.0 0.0 13 62
- 0.3594 4 3 ack 40 ------- 0 4.0 0.0 13 62
- 0.359496 0 2 tcp 1040 ------- 0 0.0 4.0 16 61
r 0.359728 2 3 cbr 500 ------- 0 1.0 5.0 22 44
+ 0.359728 3 5 cbr 500 ------- 0 1.0 5.0 22 44
- 0.359728 3 5 cbr 500 ------- 0 1.0 5.0 22 44
+ 0.36 1 2 cbr 500 ------- 0 1.0 5.0 32 63
- 0.36 1 2 cbr 500 ------- 0 1.0 5.0 32 63
r 0.3604 1 2 cbr 500 ------- 0 1.0 5.0 31 59
+ 0.3604 2 3 cbr 500 ------- 0 1.0 5.0 31 59
- 0.3604 2 3 cbr 500 ------- 0 1.0 5.0 31 59
r 0.361728 2 3 cbr 500 ------- 0 1.0 5.0 23 45
+ 0.361728 3 5 cbr 500 ------- 0 1.0 5.0 23 45
- 0.361728 3 5 cbr 500 ------- 0 1.0 5.0 23 45
r 0.362824 2 0 ack 40 ------- 0 4.0 0.0 8 50
+ 0.362824 0 2 tcp 1040 ------- 0 0.0 4.0 17 64
- 0.362824 0 2 tcp 1040 ------- 0 0.0 4.0 17 64
+ 0.362824 0 2 tcp 1040 ------- 0 0.0 4.0 18 65
r 0.36356 3 4 tcp 1040 ------- 0 0.0 4.0 14 43
+ 0.36356 4 3 ack 40 ------- 0 4.0 0.0 14 66
- 0.36356 4 3 ack 40 ------- 0 4.0 0.0 14 66
- 0.363656 0 2 tcp 1040 ------- 0 0.0 4.0 18 65
r 0.363728 2 3 cbr 500 ------- 0 1.0 5.0 24 46
+ 0.363728 3 5 cbr 500 ------- 0 1.0 5.0 24 46
- 0.363728 3 5 cbr 500 ------- 0 1.0 5.0 24 46
r 0.363952 3 2 ack 40 ------- 0 4.0 0.0 9 52
+ 0.363952 2 0 ack 40 ------- 0 4.0 0.0 9 52
- 0.363952 2 0 ack 40 ------- 0 4.0 0.0 9 52
r 0.364432 4 3 ack 40 ------- 0 4.0 0.0 13 62
+ 0.364432 3 2 ack 40 ------- 0 4.0 0.0 13 62
- 0.364432 3 2 ack 40 ------- 0 4.0 0.0 13 62
r 0.364496 0 2 tcp 1040 ------- 0 0.0 4.0 15 60
+ 0.364496 2 3 tcp 1040 ------- 0 0.0 4.0 15 60
- 0.364496 2 3 tcp 1040 ------- 0 0.0 4.0 15 60
+ 0.365 1 2 cbr 500 ------- 0 1.0 5.0 33 67
- 0.365 1 2 cbr 500 ------- 0 1.0 5.0 33 67
r 0.365128 3 5 cbr 500 ------- 0 1.0 5.0 22 44
r 0.365328 0 2 tcp 1040 ------- 0 0.0 4.0 16 61
+ 0.365328 2 3 tcp 1040 ------- 0 0.0 4.0 16 61
r 0.3654 1 2 cbr 500 ------- 0 1.0 5.0 32 63
+ 0.3654 2 3 cbr 500 ------- 0 1.0 5.0 32 63
r 0.365728 2 3 cbr 500 ------- 0 1.0 5.0 25 47
+ 0.365728 3 5 cbr 500 ------- 0 1.0 5.0 25 47
- 0.365728 3 5 cbr 500 ------- 0 1.0 5.0 25 47
r 0.367128 3 5 cbr 500 ------- 0 1.0 5.0 23 45
r 0.367728 2 3 cbr 500 ------- 0 1.0 5.0 26 49
+ 0.367728 3 5 cbr 500 ------- 0 1.0 5.0 26 49
- 0.367728 3 5 cbr 500 ------- 0 1.0 5.0 26 49
r 0.368112 3 2 ack 40 ------- 0 4.0 0.0 10 54
+ 0.368112 2 0 ack 40 ------- 0 4.0 0.0 10 54
- 0.368112 2 0 ack 40 ------- 0 4.0 0.0 10 54
r 0.368592 4 3 ack 40 ------- 0 4.0 0.0 14 66
+ 0.368592 3 2 ack 40 ------- 0 4.0 0.0 14 66
- 0.368592 3 2 ack 40 ------- 0 4.0 0.0 14 66
r 0.368656 0 2 tcp 1040 ------- 0 0.0 4.0 17 64
+ 0.368656 2 3 tcp 1040 ------- 0 0.0 4.0 17 64
- 0.368656 2 3 tcp 1040 ------- 0 0.0 4.0 16 61
r 0.368984 2 0 ack 40 ------- 0 4.0 0.0 9 52
+ 0.368984 0 2 tcp 1040 ------- 0 0.0 4.0 19 68
- 0.368984 0 2 tcp 1040 ------- 0 0.0 4.0 19 68
+ 0.368984 0 2 tcp 1040 ------- 0 0.0 4.0 20 69
r 0.369128 3 5 cbr 500 ------- 0 1.0 5.0 24 46
r 0.369488 0 2 tcp 1040 ------- 0 0.0 4.0 18 65
+ 0.369488 2 3 tcp 1040 ------- 0 0.0 4.0 18 65
r 0.369728 2 3 cbr 500 ------- 0 1.0 5.0 27 51
+ 0.369728 3 5 cbr 500 ------- 0 1.0 5.0 27 51
- 0.369728 3 5 cbr 500 ------- 0 1.0 5.0 27 51
- 0.369816 0 2 tcp 1040 ------- 0 0.0 4.0 20 69
+ 0.37 1 2 cbr 500 ------- 0 1.0 5.0 34 70
- 0.37 1 2 cbr 500 ------- 0 1.0 5.0 34 70
r 0.3704 1 2 cbr 500 ------- 0 1.0 5.0 33 67
+ 0.3704 2 3 cbr 500 ------- 0 1.0 5.0 33 67
r 0.371128 3 5 cbr 500 ------- 0 1.0 5.0 25 47
r 0.371728 2 3 cbr 500 ------- 0 1.0 5.0 28 53
+ 0.371728 3 5 cbr 500 ------- 0 1.0 5.0 28 53
- 0.371728 3 5 cbr 500 ------- 0 1.0 5.0 28 53
- 0.372816 2 3 cbr 500 ------- 0 1.0 5.0 32 63
r 0.373128 3 5 cbr 500 ------- 0 1.0 5.0 26 49
r 0.373144 2 0 ack 40 ------- 0 4.0 0.0 10 54
+ 0.373144 0 2 tcp 1040 ------- 0 0.0 4.0 21 71
- 0.373144 0 2 tcp 1040 ------- 0 0.0 4.0 21 71
+ 0.373144 0 2 tcp 1040 ------- 0 0.0 4.0 22 72
r 0.373728 2 3 cbr 500 ------- 0 1.0 5.0 29 55
+ 0.373728 3 5 cbr 500 ------- 0 1.0 5.0 29 55
- 0.373728 3 5 cbr 500 ------- 0 1.0 5.0 29 55
- 0.373976 0 2 tcp 1040 ------- 0 0.0 4.0 22 72
r 0.374272 3 2 ack 40 ------- 0 4.0 0.0 11 56
+ 0.374272 2 0 ack 40 ------- 0 4.0 0.0 11 56
- 0.374272 2 0 ack 40 ------- 0 4.0 0.0 11 56
r 0.374816 0 2 tcp 1040 ------- 0 0.0 4.0 19 68
+ 0.374816 2 3 tcp 1040 ------- 0 0.0 4.0 19 68
- 0.374816 2 3 tcp 1040 ------- 0 0.0 4.0 17 64
+ 0.375 1 2 cbr 500 ------- 0 1.0 5.0 35 73
- 0.375 1 2 cbr 500 ------- 0 1.0 5.0 35 73
r 0.375128 3 5 cbr 500 ------- 0 1.0 5.0 27 51
r 0.3754 1 2 cbr 500 ------- 0 1.0 5.0 34 70
+ 0.3754 2 3 cbr 500 ------- 0 1.0 5.0 34 70
r 0.375648 0 2 tcp 1040 ------- 0 0.0 4.0 20 69
+ 0.375648 2 3 tcp 1040 ------- 0 0.0 4.0 20 69
r 0.377128 3 5 cbr 500 ------- 0 1.0 5.0 28 53
r 0.3774 2 3 cbr 500 ------- 0 1.0 5.0 30 57
+ 0.3774 3 5 cbr 500 ------- 0 1.0 5.0 30 57
- 0.3774 3 5 cbr 500 ------- 0 1.0 5.0 30 57
r 0.378432 3 2 ack 40 ------- 0 4.0 0.0 12 58
+ 0.378432 2 0 ack 40 ------- 0 4.0 0.0 12 58
- 0.378432 2 0 ack 40 ------- 0 4.0 0.0 12 58
r 0.378976 0 2 tcp 1040 ------- 0 0.0 4.0 21 71
+ 0.378976 2 3 tcp 1040 ------- 0 0.0 4.0 21 71
- 0.378976 2 3 tcp 1040 ------- 0 0.0 4.0 18 65
r 0.379128 3 5 cbr 500 ------- 0 1.0 5.0 29 55
r 0.379304 2 0 ack 40 ------- 0 4.0 0.0 11 56
+ 0.379304 0 2 tcp 1040 ------- 0 0.0 4.0 23 74
- 0.379304 0 2 tcp 1040 ------- 0 0.0 4.0 23 74
+ 0.379304 0 2 tcp 1040 ------- 0 0.0 4.0 24 75
r 0.379808 0 2 tcp 1040 ------- 0 0.0 4.0 22 72
+ 0.379808 2 3 tcp 1040 ------- 0 0.0 4.0 22 72
+ 0.38 1 2 cbr 500 ------- 0 1.0 5.0 36 76
- 0.38 1 2 cbr 500 ------- 0 1.0 5.0 36 76
- 0.380136 0 2 tcp 1040 ------- 0 0.0 4.0 24 75
r 0.3804 1 2 cbr 500 ------- 0 1.0 5.0 35 73
+ 0.3804 2 3 cbr 500 ------- 0 1.0 5.0 35 73
r 0.3824 2 3 cbr 500 ------- 0 1.0 5.0 31 59
+ 0.3824 3 5 cbr 500 ------- 0 1.0 5.0 31 59
- 0.3824 3 5 cbr 500 ------- 0 1.0 5.0 31 59
r 0.3828 3 5 cbr 500 ------- 0 1.0 5.0 30 57
- 0.383136 2 3 cbr 500 ------- 0 1.0 5.0 33 67
r 0.383464 2 0 ack 40 ------- 0 4.0 0.0 12 58
+ 0.383464 0 2 tcp 1040 ------- 0 0.0 4.0 25 77
- 0.383464 0 2 tcp 1040 ------- 0 0.0 4.0 25 77
+ 0.383464 0 2 tcp 1040 ------- 0 0.0 4.0 26 78
- 0.384296 0 2 tcp 1040 ------- 0 0.0 4.0 26 78
r 0.384592 3 2 ack 40 ------- 0 4.0 0.0 13 62
+ 0.384592 2 0 ack 40 ------- 0 4.0 0.0 13 62
- 0.384592 2 0 ack 40 ------- 0 4.0 0.0 13 62
+ 0.385 1 2 cbr 500 ------- 0 1.0 5.0 37 79
- 0.385 1 2 cbr 500 ------- 0 1.0 5.0 37 79
r 0.385136 0 2 tcp 1040 ------- 0 0.0 4.0 23 74
+ 0.385136 2 3 tcp 1040 ------- 0 0.0 4.0 23 74
- 0.385136 2 3 tcp 1040 ------- 0 0.0 4.0 19 68
r 0.3854 1 2 cbr 500 ------- 0 1.0 5.0 36 76
+ 0.3854 2 3 cbr 500 ------- 0 1.0 5.0 36 76
r 0.385968 0 2 tcp 1040 ------- 0 0.0 4.0 24 75
+ 0.385968 2 3 tcp 1040 ------- 0 0.0 4.0 24 75
r 0.3878 3 5 cbr 500 ------- 0 1.0 5.0 31 59
r 0.388656 2 3 tcp 1040 ------- 0 0.0 4.0 15 60
+ 0.388656 3 4 tcp 1040 ------- 0 0.0 4.0 15 60
- 0.388656 3 4 tcp 1040 ------- 0 0.0 4.0 15 60
r 0.388752 3 2 ack 40 ------- 0 4.0 0.0 14 66
+ 0.388752 2 0 ack 40 ------- 0 4.0 0.0 14 66
- 0.388752 2 0 ack 40 ------- 0 4.0 0.0 14 66
r 0.389296 0 2 tcp 1040 ------- 0 0.0 4.0 25 77
+ 0.389296 2 3 tcp 1040 ------- 0 0.0 4.0 25 77
- 0.389296 2 3 cbr 500 ------- 0 1.0 5.0 34 70
r 0.389624 2 0 ack 40 ------- 0 4.0 0.0 13 62
+ 0.389624 0 2 tcp 1040 ------- 0 0.0 4.0 27 80
- 0.389624 0 2 tcp 1040 ------- 0 0.0 4.0 27 80
+ 0.389624 0 2 tcp 1040 ------- 0 0.0 4.0 28 81
+ 0.39 1 2 cbr 500 ------- 0 1.0 5.0 38 82
- 0.39 1 2 cbr 500 ------- 0 1.0 5.0 38 82
r 0.390128 0 2 tcp 1040 ------- 0 0.0 4.0 26 78
+ 0.390128 2 3 tcp 1040 ------- 0 0.0 4.0 26 78
r 0.3904 1 2 cbr 500 ------- 0 1.0 5.0 37 79
+ 0.3904 2 3 cbr 500 ------- 0 1.0 5.0 37 79
- 0.390456 0 2 tcp 1040 ------- 0 0.0 4.0 28 81
- 0.391296 2 3 tcp 1040 ------- 0 0.0 4.0 20 69
r 0.392816 2 3 tcp 1040 ------- 0 0.0 4.0 16 61
+ 0.392816 3 4 tcp 1040 ------- 0 0.0 4.0 16 61
- 0.392816 3 4 tcp 1040 ------- 0 0.0 4.0 16 61
r 0.393784 2 0 ack 40 ------- 0 4.0 0.0 14 66
+ 0.393784 0 2 tcp 1040 ------- 0 0.0 4.0 29 83
- 0.393784 0 2 tcp 1040 ------- 0 0.0 4.0 29 83
+ 0.393784 0 2 tcp 1040 ------- 0 0.0 4.0 30 84
r 0.394488 3 4 tcp 1040 ------- 0 0.0 4.0 15 60
+ 0.394488 4 3 ack 40 ------- 0 4.0 0.0 15 85
- 0.394488 4 3 ack 40 ------- 0 4.0 0.0 15 85
- 0.394616 0 2 tcp 1040 ------- 0 0.0 4.0 30 84
r 0.394816 2 3 cbr 500 ------- 0 1.0 5.0 32 63