s 1.000000000 _0_ AGT  --- 0 ping 64 [0.00 0 0] ------- [0:0 -1:0 32 0] 
r 1.000000000 _0_ RTR  --- 0 ping 64 [0.00 0 0] ------- [0:0 -1:0 32 0] 
s 1.000000000 _0_ RTR  --- 0 ping 64 [0.00 0 0] ------- [0:0 -1:0 32 0] 
s 1.000000000 _1_ AGT  --- 1 ping 64 [0.00 0 0] ------- [1:0 -1:0 32 0] 
r 1.000000000 _1_ RTR  --- 1 ping 64 [0.00 0 0] ------- [1:0 -1:0 32 0] 
s 1.000000000 _1_ RTR  --- 1 ping 64 [0.00 0 0] ------- [1:0 -1:0 32 0] 
s 1.000000000 _2_ AGT  --- 2 ping 64 [0.00 0 0] ------- [2:0 -1:0 32 0] 
r 1.000000000 _2_ RTR  --- 2 ping 64 [0.00 0 0] ------- [2:0 -1:0 32 0] 
s 1.000000000 _2_ RTR  --- 2 ping 64 [0.00 0 0] ------- [2:0 -1:0 32 0] 
s 1.021025000 _0_ MAC  --- 0 ping 64 [0.00 -1 0] ------- [0:0 -1:0 32 0] 
r 1.064025207 _1_ MAC  --- 0 ping 64 [0.00 -1 0] ------- [0:0 -1:0 32 0] 
r 1.064025691 _2_ MAC  --- 0 ping 64 [0.00 -1 0] ------- [0:0 -1:0 32 0] 
r 1.064050207 _1_ RTR  --- 0 ping 64 [0.00 -1 0] ------- [0:0 -1:0 32 0] 
r 1.064050207 _1_ AGT  --- 0 ping 64 [0.00 -1 0] ------- [0:0 -1:0 32 0] 
s 1.064050207 _1_ AGT  --- 3 ping 64 [0.00 0 0] ------- [1:0 -1:0 32 0] 
r 1.064050207 _1_ RTR  --- 3 ping 64 [0.00 0 0] ------- [1:0 -1:0 32 0] 
s 1.064050207 _1_ RTR  --- 3 ping 64 [0.00 0 0] ------- [1:0 -1:0 32 0] 
r 1.064050691 _2_ RTR  --- 0 ping 64 [0.00 -1 0] ------- [0:0 -1:0 32 0] 
r 1.064050691 _2_ AGT  --- 0 ping 64 [0.00 -1 0] ------- [0:0 -1:0 32 0] 
s 1.064050691 _2_ AGT  --- 4 ping 64 [0.00 0 0] ------- [2:0 -1:0 32 0] 
r 1.064050691 _2_ RTR  --- 4 ping 64 [0.00 0 0] ------- [2:0 -1:0 32 0] 
s 1.064050691 _2_ RTR  --- 4 ping 64 [0.00 0 0] ------- [2:0 -1:0 32 0] 
s 1.086025207 _1_ MAC  --- 1 ping 64 [0.00 -1 1] ------- [1:0 -1:0 32 0] 
r 1.129025415 _0_ MAC  --- 1 ping 64 [0.00 -1 1] ------- [1:0 -1:0 32 0] 
r 1.129025691 _2_ MAC  --- 1 ping 64 [0.00 -1 1] ------- [1:0 -1:0 32 0] 
r 1.129050415 _0_ RTR  --- 1 ping 64 [0.00 -1 1] ------- [1:0 -1:0 32 0] 
r 1.129050415 _0_ AGT  --- 1 ping 64 [0.00 -1 1] ------- [1:0 -1:0 32 0] 
s 1.129050415 _0_ AGT  --- 5 ping 64 [0.00 0 0] ------- [0:0 -1:0 32 0] 
r 1.129050415 _0_ RTR  --- 5 ping 64 [0.00 0 0] ------- [0:0 -1:0 32 0] 
s 1.129050415 _0_ RTR  --- 5 ping 64 [0.00 0 0] ------- [0:0 -1:0 32 0] 
r 1.129050691 _2_ RTR  --- 1 ping 64 [0.00 -1 1] ------- [1:0 -1:0 32 0] 
r 1.129050691 _2_ AGT  --- 1 ping 64 [0.00 -1 1] ------- [1:0 -1:0 32 0] 
s 1.129050691 _2_ AGT  --- 6 ping 64 [0.00 0 0] ------- [2:0 -1:0 32 0] 
r 1.129050691 _2_ RTR  --- 6 ping 64 [0.00 0 0] ------- [2:0 -1:0 32 0] 
s 1.129050691 _2_ RTR  --- 6 ping 64 [0.00 0 0] ------- [2:0 -1:0 32 0] 
s 1.143025691 _2_ MAC  --- 2 ping 64 [0.00 -1 2] ------- [2:0 -1:0 32 0] 
r 1.186026174 _1_ MAC  --- 2 ping 64 [0.00 -1 2] ------- [2:0 -1:0 32 0] 
r 1.186026381 _0_ MAC  --- 2 ping 64 [0.00 -1 2] ------- [2:0 -1:0 32 0] 
r 1.186051174 _1_ RTR  --- 2 ping 64 [0.00 -1 2] ------- [2:0 -1:0 32 0] 
r 1.186051174 _1_ AGT  --- 2 ping 64 [0.00 -1 2] ------- [2:0 -1:0 32 0] 
s 1.186051174 _1_ AGT  --- 7 ping 64 [0.00 0 0] ------- [1:0 -1:0 32 0] 
r 1.186051174 _1_ RTR  --- 7 ping 64 [0.00 0 0] ------- [1:0 -1:0 32 0] 
s 1.186051174 _1_ RTR  --- 7 ping 64 [0.00 0 0] ------- [1:0 -1:0 32 0] 
r 1.186051381 _0_ RTR  --- 2 ping 64 [0.00 -1 2] ------- [2:0 -1:0 32 0] 
r 1.186051381 _0_ AGT  --- 2 ping 64 [0.00 -1 2] ------- [2:0 -1:0 32 0] 
s 1.186051381 _0_ AGT  --- 8 ping 64 [0.00 0 0] ------- [0:0 -1:0 32 0] 
r 1.186051381 _0_ RTR  --- 8 ping 64 [0.00 0 0] ------- [0:0 -1:0 32 0] 
s 1.186051381 _0_ RTR  --- 8 ping 64 [0.00 0 0] ------- [0:0 -1:0 32 0] 
s 1.244025691 _2_ MAC  --- 4 ping 64 [0.00 -1 2] ------- [2:0 -1:0 32 0] 
r 1.287026174 _1_ MAC  --- 4 ping 64 [0.00 -1 2] ------- [2:0 -1:0 32 0] 
r 1.287026381 _0_ MAC  --- 4 ping 64 [0.00 -1 2] ------- [2:0 -1:0 32 0] 
r 1.287051174 _1_ RTR  --- 4 ping 64 [0.00 -1 2] ------- [2:0 -1:0 32 0] 
r 1.287051174 _1_ AGT  --- 4 ping 64 [0.00 -1 2] ------- [2:0 -1:0 32 0] 
r 1.287051381 _0_ RTR  --- 4 ping 64 [0.00 -1 2] ------- [2:0 -1:0 32 0] 
r 1.287051381 _0_ AGT  --- 4 ping 64 [0.00 -1 2] ------- [2:0 -1:0 32 0] 
s 1.320026174 _1_ MAC  --- 3 ping 64 [0.00 -1 1] ------- [1:0 -1:0 32 0] 
r 1.363026382 _0_ MAC  --- 3 ping 64 [0.00 -1 1] ------- [1:0 -1:0 32 0] 
r 1.363026657 _2_ MAC  --- 3 ping 64 [0.00 -1 1] ------- [1:0 -1:0 32 0] 
r 1.363051382 _0_ RTR  --- 3 ping 64 [0.00 -1 1] ------- [1:0 -1:0 32 0] 
r 1.363051382 _0_ AGT  --- 3 ping 64 [0.00 -1 1] ------- [1:0 -1:0 32 0] 
r 1.363051657 _2_ RTR  --- 3 ping 64 [0.00 -1 1] ------- [1:0 -1:0 32 0] 
r 1.363051657 _2_ AGT  --- 3 ping 64 [0.00 -1 1] ------- [1:0 -1:0 32 0] 
s 1.382026657 _2_ MAC  --- 6 ping 64 [0.00 -1 2] ------- [2:0 -1:0 32 0] 
r 1.425027141 _1_ MAC  --- 6 ping 64 [0.00 -1 2] ------- [2:0 -1:0 32 0] 
r 1.425027348 _0_ MAC  --- 6 ping 64 [0.00 -1 2] ------- [2:0 -1:0 32 0] 
r 1.425052141 _1_ RTR  --- 6 ping 64 [0.00 -1 2] ------- [2:0 -1:0 32 0] 
r 1.425052141 _1_ AGT  --- 6 ping 64 [0.00 -1 2] ------- [2:0 -1:0 32 0] 
r 1.425052348 _0_ RTR  --- 6 ping 64 [0.00 -1 2] ------- [2:0 -1:0 32 0] 
r 1.425052348 _0_ AGT  --- 6 ping 64 [0.00 -1 2] ------- [2:0 -1:0 32 0] 
s 1.437027348 _0_ MAC  --- 5 ping 64 [0.00 -1 0] ------- [0:0 -1:0 32 0] 
r 1.480027556 _1_ MAC  --- 5 ping 64 [0.00 -1 0] ------- [0:0 -1:0 32 0] 
r 1.480028039 _2_ MAC  --- 5 ping 64 [0.00 -1 0] ------- [0:0 -1:0 32 0] 
r 1.480052556 _1_ RTR  --- 5 ping 64 [0.00 -1 0] ------- [0:0 -1:0 32 0] 
r 1.480052556 _1_ AGT  --- 5 ping 64 [0.00 -1 0] ------- [0:0 -1:0 32 0] 
r 1.480053039 _2_ RTR  --- 5 ping 64 [0.00 -1 0] ------- [0:0 -1:0 32 0] 
r 1.480053039 _2_ AGT  --- 5 ping 64 [0.00 -1 0] ------- [0:0 -1:0 32 0] 
s 1.495027348 _0_ MAC  --- 8 ping 64 [0.00 -1 0] ------- [0:0 -1:0 32 0] 
r 1.538027556 _1_ MAC  --- 8 ping 64 [0.00 -1 0] ------- [0:0 -1:0 32 0] 
r 1.538028039 _2_ MAC  --- 8 ping 64 [0.00 -1 0] ------- [0:0 -1:0 32 0] 
r 1.538052556 _1_ RTR  --- 8 ping 64 [0.00 -1 0] ------- [0:0 -1:0 32 0] 
r 1.538052556 _1_ AGT  --- 8 ping 64 [0.00 -1 0] ------- [0:0 -1:0 32 0] 
r 1.538053039 _2_ RTR  --- 8 ping 64 [0.00 -1 0] ------- [0:0 -1:0 32 0] 
r 1.538053039 _2_ AGT  --- 8 ping 64 [0.00 -1 0] ------- [0:0 -1:0 32 0] 
s 1.610027556 _1_ MAC  --- 7 ping 64 [0.00 -1 1] ------- [1:0 -1:0 32 0] 
r 1.653027763 _0_ MAC  --- 7 ping 64 [0.00 -1 1] ------- [1:0 -1:0 32 0] 
r 1.653028039 _2_ MAC  --- 7 ping 64 [0.00 -1 1] ------- [1:0 -1:0 32 0] 
r 1.653052763 _0_ RTR  --- 7 ping 64 [0.00 -1 1] ------- [1:0 -1:0 32 0] 
r 1.653052763 _0_ AGT  --- 7 ping 64 [0.00 -1 1] ------- [1:0 -1:0 32 0] 
r 1.653053039 _2_ RTR  --- 7 ping 64 [0.00 -1 1] ------- [1:0 -1:0 32 0] 
r 1.653053039 _2_ AGT  --- 7 ping 64 [0.00 -1 1] ------- [1:0 -1:0 32 0] 
