s 1.000000000 _0_ AGT  --- 0 ping 64 [0.00 0 0] ------- [0:0 -1:0 32 0] 
r 1.000000000 _0_ RTR  --- 0 ping 64 [0.00 0 0] ------- [0:0 -1:0 32 0] 
s 1.000000000 _0_ RTR  --- 0 ping 64 [0.00 0 0] ------- [0:0 -1:0 32 0] 
s 1.000000000 _1_ AGT  --- 1 ping 64 [0.00 0 0] ------- [1:0 -1:0 32 0] 
r 1.000000000 _1_ RTR  --- 1 ping 64 [0.00 0 0] ------- [1:0 -1:0 32 0] 
s 1.000000000 _1_ RTR  --- 1 ping 64 [0.00 0 0] ------- [1:0 -1:0 32 0] 
s 1.021025000 _0_ MAC  --- 0 ping 64 [0.00 -1 0] ------- [0:0 -1:0 32 0] 
r 1.064025207 _1_ MAC  --- 0 ping 64 [0.00 -1 0] ------- [0:0 -1:0 32 0] 
r 1.064050207 _1_ RTR  --- 0 ping 64 [0.00 -1 0] ------- [0:0 -1:0 32 0] 
r 1.064050207 _1_ AGT  --- 0 ping 64 [0.00 -1 0] ------- [0:0 -1:0 32 0] 
s 1.064050207 _1_ AGT  --- 2 ping 64 [0.00 0 0] ------- [1:0 -1:0 32 0] 
r 1.064050207 _1_ RTR  --- 2 ping 64 [0.00 0 0] ------- [1:0 -1:0 32 0] 
s 1.064050207 _1_ RTR  --- 2 ping 64 [0.00 0 0] ------- [1:0 -1:0 32 0] 
s 1.128025207 _1_ MAC  --- 1 ping 64 [0.00 -1 1] ------- [1:0 -1:0 32 0] 
r 1.171025415 _0_ MAC  --- 1 ping 64 [0.00 -1 1] ------- [1:0 -1:0 32 0] 
r 1.171050415 _0_ RTR  --- 1 ping 64 [0.00 -1 1] ------- [1:0 -1:0 32 0] 
r 1.171050415 _0_ AGT  --- 1 ping 64 [0.00 -1 1] ------- [1:0 -1:0 32 0] 
s 1.171050415 _0_ AGT  --- 3 ping 64 [0.00 0 0] ------- [0:0 -1:0 32 0] 
r 1.171050415 _0_ RTR  --- 3 ping 64 [0.00 0 0] ------- [0:0 -1:0 32 0] 
s 1.171050415 _0_ RTR  --- 3 ping 64 [0.00 0 0] ------- [0:0 -1:0 32 0] 
s 1.193025207 _1_ MAC  --- 2 ping 64 [0.00 -1 1] ------- [1:0 -1:0 32 0] 
r 1.236025415 _0_ MAC  --- 2 ping 64 [0.00 -1 1] ------- [1:0 -1:0 32 0] 
r 1.236050415 _0_ RTR  --- 2 ping 64 [0.00 -1 1] ------- [1:0 -1:0 32 0] 
r 1.236050415 _0_ AGT  --- 2 ping 64 [0.00 -1 1] ------- [1:0 -1:0 32 0] 
s 1.279025415 _0_ MAC  --- 3 ping 64 [0.00 -1 0] ------- [0:0 -1:0 32 0] 
r 1.322025622 _1_ MAC  --- 3 ping 64 [0.00 -1 0] ------- [0:0 -1:0 32 0] 
r 1.322050622 _1_ RTR  --- 3 ping 64 [0.00 -1 0] ------- [0:0 -1:0 32 0] 
r 1.322050622 _1_ AGT  --- 3 ping 64 [0.00 -1 0] ------- [0:0 -1:0 32 0] 
