s 17.208000000 _1_ MAC  --- 0 SYNC 9 [0.13 1 1] 
s 18.667000207 _0_ MAC  --- 0 SYNC 9 [0.10 0 1] 
s 20.087000415 _1_ MAC  --- 0 SYNC 9 [0.12 1 0] 
s 32.985000622 _0_ MAC  --- 0 SYNC 9 [0.11 0 1] 
s 34.402000830 _1_ MAC  --- 0 SYNC 9 [0.13 1 0] 
s 40.000000000 _0_ AGT  --- 0 ping 64 [0.00 0 0] ------- [0:0 -1:0 32 0] 
r 40.000000000 _0_ RTR  --- 0 ping 64 [0.00 0 0] ------- [0:0 -1:0 32 0] 
s 40.000000000 _0_ RTR  --- 0 ping 64 [0.00 0 0] ------- [0:0 -1:0 32 0] 
s 40.000000000 _1_ AGT  --- 1 ping 64 [0.00 0 0] ------- [1:0 -1:0 32 0] 
r 40.000000000 _1_ RTR  --- 1 ping 64 [0.00 0 0] ------- [1:0 -1:0 32 0] 
s 40.000000000 _1_ RTR  --- 1 ping 64 [0.00 0 0] ------- [1:0 -1:0 32 0] 
s 40.193200830 _1_ MAC  --- 1 ping 64 [0.00 -1 1] ------- [1:0 -1:0 32 0] 
r 40.236201037 _0_ MAC  --- 1 ping 64 [0.00 -1 1] ------- [1:0 -1:0 32 0] 
r 40.236226037 _0_ RTR  --- 1 ping 64 [0.00 -1 1] ------- [1:0 -1:0 32 0] 
r 40.236226037 _0_ AGT  --- 1 ping 64 [0.00 -1 1] ------- [1:0 -1:0 32 0] 
s 40.236226037 _0_ AGT  --- 2 ping 64 [0.00 0 0] ------- [0:0 -1:0 32 0] 
r 40.236226037 _0_ RTR  --- 2 ping 64 [0.00 0 0] ------- [0:0 -1:0 32 0] 
s 40.236226037 _0_ RTR  --- 2 ping 64 [0.00 0 0] ------- [0:0 -1:0 32 0] 
s 41.670201037 _0_ MAC  --- 0 ping 64 [0.00 -1 0] ------- [0:0 -1:0 32 0] 
r 41.713201245 _1_ MAC  --- 0 ping 64 [0.00 -1 0] ------- [0:0 -1:0 32 0] 
r 41.713226245 _1_ RTR  --- 0 ping 64 [0.00 -1 0] ------- [0:0 -1:0 32 0] 
r 41.713226245 _1_ AGT  --- 0 ping 64 [0.00 -1 0] ------- [0:0 -1:0 32 0] 
s 41.713226245 _1_ AGT  --- 3 ping 64 [0.00 0 0] ------- [1:0 -1:0 32 0] 
r 41.713226245 _1_ RTR  --- 3 ping 64 [0.00 0 0] ------- [1:0 -1:0 32 0] 
s 41.713226245 _1_ RTR  --- 3 ping 64 [0.00 0 0] ------- [1:0 -1:0 32 0] 
s 43.107201037 _0_ MAC  --- 2 ping 64 [0.00 -1 0] ------- [0:0 -1:0 32 0] 
r 43.150201245 _1_ MAC  --- 2 ping 64 [0.00 -1 0] ------- [0:0 -1:0 32 0] 
r 43.150226245 _1_ RTR  --- 2 ping 64 [0.00 -1 0] ------- [0:0 -1:0 32 0] 
r 43.150226245 _1_ AGT  --- 2 ping 64 [0.00 -1 0] ------- [0:0 -1:0 32 0] 
s 44.522200830 _1_ MAC  --- 3 ping 64 [0.00 -1 1] ------- [1:0 -1:0 32 0] 
r 44.565201037 _0_ MAC  --- 3 ping 64 [0.00 -1 1] ------- [1:0 -1:0 32 0] 
r 44.565226037 _0_ RTR  --- 3 ping 64 [0.00 -1 1] ------- [1:0 -1:0 32 0] 
r 44.565226037 _0_ AGT  --- 3 ping 64 [0.00 -1 1] ------- [1:0 -1:0 32 0] 
s 47.301001037 _0_ MAC  --- 0 SYNC 9 [0.13 0 1] 
s 48.759001245 _1_ MAC  --- 0 SYNC 9 [0.10 1 0] 
s 61.637001452 _0_ MAC  --- 0 SYNC 9 [0.12 0 1] 
s 63.080001660 _1_ MAC  --- 0 SYNC 9 [0.11 1 0] 
s 75.971001867 _0_ MAC  --- 0 SYNC 9 [0.12 0 1] 
s 77.400002075 _1_ MAC  --- 0 SYNC 9 [0.12 1 0] 
s 90.313002282 _0_ MAC  --- 0 SYNC 9 [0.11 0 1] 
s 91.739002490 _1_ MAC  --- 0 SYNC 9 [0.11 1 0] 
