s 17.208000000 _1_ MAC  --- 0 SYNC 9 [0.13 1 1] 
s 18.654000207 _0_ MAC  --- 0 SYNC 9 [0.12 0 1] 
s 20.072000415 _1_ MAC  --- 0 SYNC 9 [0.13 1 0] 
s 21.515000898 _2_ MAC  --- 0 SYNC 9 [0.12 2 1] 
s 32.981000622 _0_ MAC  --- 0 SYNC 9 [0.12 0 1] 
s 34.420000830 _1_ MAC  --- 0 SYNC 9 [0.11 1 0] 
s 35.848001313 _2_ MAC  --- 0 SYNC 9 [0.12 2 1] 
s 40.000000000 _0_ AGT  --- 0 ping 64 [0.00 0 0] ------- [0:0 -1:0 32 0] 
r 40.000000000 _0_ RTR  --- 0 ping 64 [0.00 0 0] ------- [0:0 -1:0 32 0] 
s 40.000000000 _0_ RTR  --- 0 ping 64 [0.00 0 0] ------- [0:0 -1:0 32 0] 
s 40.223202004 _0_ MAC  --- 0 ping 64 [0.00 -1 0] ------- [0:0 -1:0 32 0] 
r 40.266202211 _1_ MAC  --- 0 ping 64 [0.00 -1 0] ------- [0:0 -1:0 32 0] 
r 40.266202695 _2_ MAC  --- 0 ping 64 [0.00 -1 0] ------- [0:0 -1:0 32 0] 
r 40.266227211 _1_ RTR  --- 0 ping 64 [0.00 -1 0] ------- [0:0 -1:0 32 0] 
r 40.266227211 _1_ AGT  --- 0 ping 64 [0.00 -1 0] ------- [0:0 -1:0 32 0] 
s 40.266227211 _1_ AGT  --- 1 ping 64 [0.00 0 0] ------- [1:0 -1:0 32 0] 
r 40.266227211 _1_ RTR  --- 1 ping 64 [0.00 0 0] ------- [1:0 -1:0 32 0] 
s 40.266227211 _1_ RTR  --- 1 ping 64 [0.00 0 0] ------- [1:0 -1:0 32 0] 
r 40.266227695 _2_ RTR  --- 0 ping 64 [0.00 -1 0] ------- [0:0 -1:0 32 0] 
r 40.266227695 _2_ AGT  --- 0 ping 64 [0.00 -1 0] ------- [0:0 -1:0 32 0] 
s 40.266227695 _2_ AGT  --- 2 ping 64 [0.00 0 0] ------- [2:0 -1:0 32 0] 
r 40.266227695 _2_ RTR  --- 2 ping 64 [0.00 0 0] ------- [2:0 -1:0 32 0] 
s 40.266227695 _2_ RTR  --- 2 ping 64 [0.00 0 0] ------- [2:0 -1:0 32 0] 
s 41.000000000 _1_ AGT  --- 3 ping 64 [0.00 0 0] ------- [1:0 -1:0 32 0] 
r 41.000000000 _1_ RTR  --- 3 ping 64 [0.00 0 0] ------- [1:0 -1:0 32 0] 
s 41.000000000 _1_ RTR  --- 3 ping 64 [0.00 0 0] ------- [1:0 -1:0 32 0] 
s 41.645201313 _2_ MAC  --- 2 ping 64 [0.00 -1 2] ------- [2:0 -1:0 32 0] 
r 41.688201797 _1_ MAC  --- 2 ping 64 [0.00 -1 2] ------- [2:0 -1:0 32 0] 
r 41.688202004 _0_ MAC  --- 2 ping 64 [0.00 -1 2] ------- [2:0 -1:0 32 0] 
r 41.688226797 _1_ RTR  --- 2 ping 64 [0.00 -1 2] ------- [2:0 -1:0 32 0] 
r 41.688226797 _1_ AGT  --- 2 ping 64 [0.00 -1 2] ------- [2:0 -1:0 32 0] 
r 41.688227004 _0_ RTR  --- 2 ping 64 [0.00 -1 2] ------- [2:0 -1:0 32 0] 
r 41.688227004 _0_ AGT  --- 2 ping 64 [0.00 -1 2] ------- [2:0 -1:0 32 0] 
s 42.000000000 _2_ AGT  --- 4 ping 64 [0.00 0 0] ------- [2:0 -1:0 32 0] 
r 42.000000000 _2_ RTR  --- 4 ping 64 [0.00 0 0] ------- [2:0 -1:0 32 0] 
s 42.000000000 _2_ RTR  --- 4 ping 64 [0.00 0 0] ------- [2:0 -1:0 32 0] 
s 43.067201313 _2_ MAC  --- 4 ping 64 [0.00 -1 2] ------- [2:0 -1:0 32 0] 
r 43.110201797 _1_ MAC  --- 4 ping 64 [0.00 -1 2] ------- [2:0 -1:0 32 0] 
r 43.110202004 _0_ MAC  --- 4 ping 64 [0.00 -1 2] ------- [2:0 -1:0 32 0] 
r 43.110226797 _1_ RTR  --- 4 ping 64 [0.00 -1 2] ------- [2:0 -1:0 32 0] 
r 43.110226797 _1_ AGT  --- 4 ping 64 [0.00 -1 2] ------- [2:0 -1:0 32 0] 
s 43.110226797 _1_ AGT  --- 5 ping 64 [0.00 0 0] ------- [1:0 -1:0 32 0] 
r 43.110226797 _1_ RTR  --- 5 ping 64 [0.00 0 0] ------- [1:0 -1:0 32 0] 
s 43.110226797 _1_ RTR  --- 5 ping 64 [0.00 0 0] ------- [1:0 -1:0 32 0] 
r 43.110227004 _0_ RTR  --- 4 ping 64 [0.00 -1 2] ------- [2:0 -1:0 32 0] 
r 43.110227004 _0_ AGT  --- 4 ping 64 [0.00 -1 2] ------- [2:0 -1:0 32 0] 
s 43.110227004 _0_ AGT  --- 6 ping 64 [0.00 0 0] ------- [0:0 -1:0 32 0] 
r 43.110227004 _0_ RTR  --- 6 ping 64 [0.00 0 0] ------- [0:0 -1:0 32 0] 
s 43.110227004 _0_ RTR  --- 6 ping 64 [0.00 0 0] ------- [0:0 -1:0 32 0] 
s 44.497201797 _1_ MAC  --- 1 ping 64 [0.00 -1 1] ------- [1:0 -1:0 32 0] 
r 44.540202004 _0_ MAC  --- 1 ping 64 [0.00 -1 1] ------- [1:0 -1:0 32 0] 
r 44.540202280 _2_ MAC  --- 1 ping 64 [0.00 -1 1] ------- [1:0 -1:0 32 0] 
r 44.540227004 _0_ RTR  --- 1 ping 64 [0.00 -1 1] ------- [1:0 -1:0 32 0] 
r 44.540227004 _0_ AGT  --- 1 ping 64 [0.00 -1 1] ------- [1:0 -1:0 32 0] 
r 44.540227280 _2_ RTR  --- 1 ping 64 [0.00 -1 1] ------- [1:0 -1:0 32 0] 
r 44.540227280 _2_ AGT  --- 1 ping 64 [0.00 -1 1] ------- [1:0 -1:0 32 0] 
s 45.923201797 _1_ MAC  --- 3 ping 64 [0.00 -1 1] ------- [1:0 -1:0 32 0] 
r 45.966202004 _0_ MAC  --- 3 ping 64 [0.00 -1 1] ------- [1:0 -1:0 32 0] 
r 45.966202280 _2_ MAC  --- 3 ping 64 [0.00 -1 1] ------- [1:0 -1:0 32 0] 
r 45.966227004 _0_ RTR  --- 3 ping 64 [0.00 -1 1] ------- [1:0 -1:0 32 0] 
r 45.966227004 _0_ AGT  --- 3 ping 64 [0.00 -1 1] ------- [1:0 -1:0 32 0] 
s 45.966227004 _0_ AGT  --- 7 ping 64 [0.00 0 0] ------- [0:0 -1:0 32 0] 
r 45.966227004 _0_ RTR  --- 7 ping 64 [0.00 0 0] ------- [0:0 -1:0 32 0] 
s 45.966227004 _0_ RTR  --- 7 ping 64 [0.00 0 0] ------- [0:0 -1:0 32 0] 
r 45.966227280 _2_ RTR  --- 3 ping 64 [0.00 -1 1] ------- [1:0 -1:0 32 0] 
r 45.966227280 _2_ AGT  --- 3 ping 64 [0.00 -1 1] ------- [1:0 -1:0 32 0] 
s 45.966227280 _2_ AGT  --- 8 ping 64 [0.00 0 0] ------- [2:0 -1:0 32 0] 
r 45.966227280 _2_ RTR  --- 8 ping 64 [0.00 0 0] ------- [2:0 -1:0 32 0] 
s 45.966227280 _2_ RTR  --- 8 ping 64 [0.00 0 0] ------- [2:0 -1:0 32 0] 
s 47.315002004 _0_ MAC  --- 0 SYNC 9 [0.11 0 1] 
s 47.401202211 _1_ MAC  --- 5 ping 64 [0.00 -1 1] ------- [1:0 -1:0 32 0] 
r 47.444202419 _0_ MAC  --- 5 ping 64 [0.00 -1 1] ------- [1:0 -1:0 32 0] 
r 47.444202695 _2_ MAC  --- 5 ping 64 [0.00 -1 1] ------- [1:0 -1:0 32 0] 
r 47.444227419 _0_ RTR  --- 5 ping 64 [0.00 -1 1] ------- [1:0 -1:0 32 0] 
r 47.444227419 _0_ AGT  --- 5 ping 64 [0.00 -1 1] ------- [1:0 -1:0 32 0] 
r 47.444227695 _2_ RTR  --- 5 ping 64 [0.00 -1 1] ------- [1:0 -1:0 32 0] 
r 47.444227695 _2_ AGT  --- 5 ping 64 [0.00 -1 1] ------- [1:0 -1:0 32 0] 
s 48.744002211 _1_ MAC  --- 0 SYNC 9 [0.12 1 0] 
s 48.792202695 _2_ MAC  --- 8 ping 64 [0.00 -1 2] ------- [2:0 -1:0 32 0] 
r 48.835203178 _1_ MAC  --- 8 ping 64 [0.00 -1 2] ------- [2:0 -1:0 32 0] 
r 48.835203385 _0_ MAC  --- 8 ping 64 [0.00 -1 2] ------- [2:0 -1:0 32 0] 
r 48.835228178 _1_ RTR  --- 8 ping 64 [0.00 -1 2] ------- [2:0 -1:0 32 0] 
r 48.835228178 _1_ AGT  --- 8 ping 64 [0.00 -1 2] ------- [2:0 -1:0 32 0] 
r 48.835228385 _0_ RTR  --- 8 ping 64 [0.00 -1 2] ------- [2:0 -1:0 32 0] 
r 48.835228385 _0_ AGT  --- 8 ping 64 [0.00 -1 2] ------- [2:0 -1:0 32 0] 
s 50.194002695 _2_ MAC  --- 0 SYNC 9 [0.10 2 1] 
s 50.282203385 _0_ MAC  --- 6 ping 64 [0.00 -1 0] ------- [0:0 -1:0 32 0] 
r 50.325203593 _1_ MAC  --- 6 ping 64 [0.00 -1 0] ------- [0:0 -1:0 32 0] 
r 50.325204076 _2_ MAC  --- 6 ping 64 [0.00 -1 0] ------- [0:0 -1:0 32 0] 
r 50.325228593 _1_ RTR  --- 6 ping 64 [0.00 -1 0] ------- [0:0 -1:0 32 0] 
r 50.325228593 _1_ AGT  --- 6 ping 64 [0.00 -1 0] ------- [0:0 -1:0 32 0] 
r 50.325229076 _2_ RTR  --- 6 ping 64 [0.00 -1 0] ------- [0:0 -1:0 32 0] 
r 50.325229076 _2_ AGT  --- 6 ping 64 [0.00 -1 0] ------- [0:0 -1:0 32 0] 
s 51.692203385 _0_ MAC  --- 7 ping 64 [0.00 -1 0] ------- [0:0 -1:0 32 0] 
r 51.735203593 _1_ MAC  --- 7 ping 64 [0.00 -1 0] ------- [0:0 -1:0 32 0] 
r 51.735204076 _2_ MAC  --- 7 ping 64 [0.00 -1 0] ------- [0:0 -1:0 32 0] 
r 51.735228593 _1_ RTR  --- 7 ping 64 [0.00 -1 0] ------- [0:0 -1:0 32 0] 
r 51.735228593 _1_ AGT  --- 7 ping 64 [0.00 -1 0] ------- [0:0 -1:0 32 0] 
r 51.735229076 _2_ RTR  --- 7 ping 64 [0.00 -1 0] ------- [0:0 -1:0 32 0] 
r 51.735229076 _2_ AGT  --- 7 ping 64 [0.00 -1 0] ------- [0:0 -1:0 32 0] 
s 61.647003385 _0_ MAC  --- 0 SYNC 9 [0.11 0 1] 
s 63.064003593 _1_ MAC  --- 0 SYNC 9 [0.13 1 0] 
s 64.510004076 _2_ MAC  --- 0 SYNC 9 [0.12 2 1] 
s 75.977004767 _0_ MAC  --- 0 SYNC 9 [0.11 0 1] 
s 77.399004974 _1_ MAC  --- 0 SYNC 9 [0.12 1 0] 
s 78.829005458 _2_ MAC  --- 0 SYNC 9 [0.13 2 1] 
s 90.303006148 _0_ MAC  --- 0 SYNC 9 [0.12 0 1] 
s 91.732006356 _1_ MAC  --- 0 SYNC 9 [0.12 1 0] 
s 93.160006839 _2_ MAC  --- 0 SYNC 9 [0.13 2 1] 
