s 0.100000000 _0_ AGT  --- 0 ping 64 [0.00 0 0] ------- [0:0 1:0 32 0] 
r 0.100000000 _0_ RTR  --- 0 ping 64 [0.00 0 0] ------- [0:0 1:0 32 0] 
s 0.100000000 _0_ RTR  --- 0 ping 64 [0.00 0 0] ------- [0:0 1:0 32 0] 
s 0.100000000 _3_ AGT  --- 1 ping 64 [0.00 0 0] ------- [3:0 2:0 32 0] 
r 0.100000000 _3_ RTR  --- 1 ping 64 [0.00 0 0] ------- [3:0 2:0 32 0] 
s 0.100000000 _3_ RTR  --- 1 ping 64 [0.00 0 0] ------- [3:0 2:0 32 0] 
s 0.121005000 _0_ MAC  --- 0 ARP 28 [0.00 -1 0] ------- [REQUEST 0/0 0/1]
r 0.164005707 _1_ MAC  --- 0 ARP 28 [0.00 -1 0] ------- [REQUEST 0/0 0/1]
r 0.164005707 _2_ MAC  --- 0 ARP 28 [0.00 -1 0] ------- [REQUEST 0/0 0/1]
s 0.228010707 _1_ MAC  --- 0 RTS 10 [0.07 0 1] 
s 0.236006414 _3_ MAC  --- 0 ARP 28 [0.00 -1 3] ------- [REQUEST 3/3 0/2]
D 0.279007121 _2_ MAC  COL 0 ARP 28 [0.00 -1 3] ------- [REQUEST 3/3 0/2]
s 0.305010707 _1_ MAC  --- 0 RTS 10 [0.07 0 1] 
s 0.377010707 _1_ MAC  --- 0 RTS 10 [0.07 0 1] 
s 0.388011414 _0_ MAC  --- 0 CTS 10 [0.06 1 0] 
s 0.399012121 _1_ MAC  --- 0 ARP 28 [0.01 0 1] ------- [REPLY 1/1 0/0]
s 0.442012828 _0_ MAC  --- 0 ACK 10 [0.00 1 0] 
r 0.442012828 _0_ MAC  --- 0 ARP 28 [0.01 0 1] ------- [REPLY 1/1 0/0]
s 0.468011414 _0_ MAC  --- 0 RTS 10 [0.07 1 0] 
s 0.479012121 _1_ MAC  --- 0 CTS 10 [0.06 0 1] 
s 0.490012828 _0_ MAC  --- 0 ping 64 [0.01 1 0] ------- [0:0 1:0 32 0] 
s 0.533013536 _1_ MAC  --- 0 ACK 10 [0.00 0 1] 
r 0.533013536 _1_ MAC  --- 0 ping 64 [0.01 1 0] ------- [0:0 1:0 32 0] 
r 0.533038536 _1_ AGT  --- 0 ping 64 [0.01 1 0] ------- [0:0 1:0 32 0] 
s 0.533038536 _1_ AGT  --- 2 ping 64 [0.00 0 0] ------- [1:0 0:0 32 0] 
r 0.533038536 _1_ RTR  --- 2 ping 64 [0.00 0 0] ------- [1:0 0:0 32 0] 
s 0.533038536 _1_ RTR  --- 2 ping 64 [0.00 0 0] ------- [1:0 0:0 32 0] 
s 0.585012121 _1_ MAC  --- 0 RTS 10 [0.07 0 1] 
s 0.596012828 _0_ MAC  --- 0 CTS 10 [0.06 1 0] 
s 0.607013536 _1_ MAC  --- 2 ping 64 [0.01 0 1] ------- [1:0 0:0 32 0] 
s 0.650014243 _0_ MAC  --- 0 ACK 10 [0.00 1 0] 
r 0.650014243 _0_ MAC  --- 2 ping 64 [0.01 0 1] ------- [1:0 0:0 32 0] 
r 0.650039243 _0_ AGT  --- 2 ping 64 [0.01 0 1] ------- [1:0 0:0 32 0] 
D 5.000000000 _3_ IFQ  END 1 ping 64 [0.00 0 3] ------- [3:0 2:0 32 0] 
