s 0.100000000 _1_ AGT  --- 0 ping 64 [0.00 0 0] ------- [1:0 0:0 32 0] 
r 0.100000000 _1_ RTR  --- 0 ping 64 [0.00 0 0] ------- [1:0 0:0 32 0] 
s 0.100000000 _1_ RTR  --- 0 ping 64 [0.00 0 0] ------- [1:0 0:0 32 0] 
s 0.100000000 _2_ AGT  --- 1 ping 64 [0.00 0 0] ------- [2:0 3:0 32 0] 
r 0.100000000 _2_ RTR  --- 1 ping 64 [0.00 0 0] ------- [2:0 3:0 32 0] 
s 0.100000000 _2_ RTR  --- 1 ping 64 [0.00 0 0] ------- [2:0 3:0 32 0] 
s 0.121005000 _1_ MAC  --- 0 ARP 28 [0.00 -1 1] ------- [REQUEST 1/1 0/0]
r 0.164005707 _0_ MAC  --- 0 ARP 28 [0.00 -1 1] ------- [REQUEST 1/1 0/0]
r 0.164005707 _2_ MAC  --- 0 ARP 28 [0.00 -1 1] ------- [REQUEST 1/1 0/0]
s 0.186010707 _0_ MAC  --- 0 RTS 10 [0.07 1 0] 
s 0.197011414 _1_ MAC  --- 0 CTS 10 [0.06 0 1] 
s 0.208012121 _0_ MAC  --- 0 ARP 28 [0.01 1 0] ------- [REPLY 0/0 1/1]
s 0.251012828 _1_ MAC  --- 0 ACK 10 [0.00 0 1] 
r 0.251012828 _1_ MAC  --- 0 ARP 28 [0.01 1 0] ------- [REPLY 0/0 1/1]
s 0.311011414 _1_ MAC  --- 0 RTS 10 [0.07 0 1] 
s 0.322012121 _0_ MAC  --- 0 CTS 10 [0.06 1 0] 
s 0.333012828 _1_ MAC  --- 0 ping 64 [0.01 0 1] ------- [1:0 0:0 32 0] 
s 0.376013536 _0_ MAC  --- 0 ACK 10 [0.00 1 0] 
r 0.376013536 _0_ MAC  --- 0 ping 64 [0.01 0 1] ------- [1:0 0:0 32 0] 
r 0.376038536 _0_ AGT  --- 0 ping 64 [0.01 0 1] ------- [1:0 0:0 32 0] 
s 0.376038536 _0_ AGT  --- 2 ping 64 [0.00 0 0] ------- [0:0 1:0 32 0] 
r 0.376038536 _0_ RTR  --- 2 ping 64 [0.00 0 0] ------- [0:0 1:0 32 0] 
s 0.376038536 _0_ RTR  --- 2 ping 64 [0.00 0 0] ------- [0:0 1:0 32 0] 
s 0.402012121 _0_ MAC  --- 0 RTS 10 [0.07 1 0] 
s 0.413012828 _1_ MAC  --- 0 CTS 10 [0.06 0 1] 
s 0.424013536 _0_ MAC  --- 2 ping 64 [0.01 1 0] ------- [0:0 1:0 32 0] 
s 0.467014243 _1_ MAC  --- 0 ACK 10 [0.00 0 1] 
r 0.467014243 _1_ MAC  --- 2 ping 64 [0.01 1 0] ------- [0:0 1:0 32 0] 
r 0.467039243 _1_ AGT  --- 2 ping 64 [0.01 1 0] ------- [0:0 1:0 32 0] 
s 0.519013536 _2_ MAC  --- 0 ARP 28 [0.00 -1 2] ------- [REQUEST 2/2 0/3]
r 0.562014243 _1_ MAC  --- 0 ARP 28 [0.00 -1 2] ------- [REQUEST 2/2 0/3]
r 0.562014243 _3_ MAC  --- 0 ARP 28 [0.00 -1 2] ------- [REQUEST 2/2 0/3]
s 0.620019243 _3_ MAC  --- 0 RTS 10 [0.07 2 3] 
s 0.631019950 _2_ MAC  --- 0 CTS 10 [0.06 3 2] 
s 0.642020657 _3_ MAC  --- 0 ARP 28 [0.01 2 3] ------- [REPLY 3/3 2/2]
s 0.685021364 _2_ MAC  --- 0 ACK 10 [0.00 3 2] 
r 0.685021364 _2_ MAC  --- 0 ARP 28 [0.01 2 3] ------- [REPLY 3/3 2/2]
s 0.769019950 _2_ MAC  --- 0 RTS 10 [0.07 3 2] 
s 0.780020657 _3_ MAC  --- 0 CTS 10 [0.06 2 3] 
s 0.791021364 _2_ MAC  --- 1 ping 64 [0.01 3 2] ------- [2:0 3:0 32 0] 
s 0.834022071 _3_ MAC  --- 0 ACK 10 [0.00 2 3] 
r 0.834022071 _3_ MAC  --- 1 ping 64 [0.01 3 2] ------- [2:0 3:0 32 0] 
r 0.834047071 _3_ AGT  --- 1 ping 64 [0.01 3 2] ------- [2:0 3:0 32 0] 
s 0.834047071 _3_ AGT  --- 3 ping 64 [0.00 0 0] ------- [3:0 2:0 32 0] 
r 0.834047071 _3_ RTR  --- 3 ping 64 [0.00 0 0] ------- [3:0 2:0 32 0] 
s 0.834047071 _3_ RTR  --- 3 ping 64 [0.00 0 0] ------- [3:0 2:0 32 0] 
s 0.908020657 _3_ MAC  --- 0 RTS 10 [0.07 2 3] 
s 0.919021364 _2_ MAC  --- 0 CTS 10 [0.06 3 2] 
s 0.930022071 _3_ MAC  --- 3 ping 64 [0.01 2 3] ------- [3:0 2:0 32 0] 
s 0.973022778 _2_ MAC  --- 0 ACK 10 [0.00 3 2] 
r 0.973022778 _2_ MAC  --- 3 ping 64 [0.01 2 3] ------- [3:0 2:0 32 0] 
r 0.973047778 _2_ AGT  --- 3 ping 64 [0.01 2 3] ------- [3:0 2:0 32 0] 
