s 17.208000000 _1_ MAC  --- 0 SYNC 9 [0.13 1 1] 
s 18.639000707 _0_ MAC  --- 0 SYNC 9 [0.13 0 1] 
s 18.655000000 _3_ MAC  --- 0 SYNC 9 [0.11 3 3] 
D 18.658000707 _2_ MAC  SLP 0 SYNC 9 [0.11 3 3] 
s 20.082000707 _2_ MAC  --- 0 SYNC 9 [0.12 2 1] 
s 21.518001414 _3_ MAC  --- 0 SYNC 9 [0.12 3 2] 
s 22.950001414 _1_ MAC  --- 0 SYNC 9 [0.12 1 0] 
s 32.971002121 _0_ MAC  --- 0 SYNC 9 [0.13 0 1] 
s 34.429002121 _2_ MAC  --- 0 SYNC 9 [0.10 2 1] 
s 35.843002828 _3_ MAC  --- 0 SYNC 9 [0.12 3 2] 
s 37.286002828 _1_ MAC  --- 0 SYNC 9 [0.11 1 0] 
s 40.100000000 _1_ AGT  --- 0 ping 64 [0.00 0 0] ------- [1:0 0:0 32 0] 
r 40.100000000 _1_ RTR  --- 0 ping 64 [0.00 0 0] ------- [1:0 0:0 32 0] 
s 40.100000000 _1_ RTR  --- 0 ping 64 [0.00 0 0] ------- [1:0 0:0 32 0] 
s 40.198202828 _1_ MAC  --- 0 ARP 28 [0.00 -1 1] ------- [REQUEST 1/1 0/0]
r 40.241203536 _0_ MAC  --- 0 ARP 28 [0.00 -1 1] ------- [REQUEST 1/1 0/0]
r 40.241203536 _2_ MAC  --- 0 ARP 28 [0.00 -1 1] ------- [REQUEST 1/1 0/0]
s 41.683203536 _0_ MAC  --- 0 RTS 10 [0.07 1 0] 
s 41.694204243 _1_ MAC  --- 0 CTS 10 [0.06 0 1] 
s 41.705204950 _0_ MAC  --- 0 ARP 28 [0.01 1 0] ------- [REPLY 0/0 1/1]
s 41.748205657 _1_ MAC  --- 0 ACK 10 [0.00 0 1] 
r 41.748205657 _1_ MAC  --- 0 ARP 28 [0.01 1 0] ------- [REPLY 0/0 1/1]
s 43.057202828 _1_ MAC  --- 0 RTS 10 [0.07 0 1] 
s 43.068203536 _0_ MAC  --- 0 CTS 10 [0.06 1 0] 
s 43.079204243 _1_ MAC  --- 0 ping 64 [0.01 0 1] ------- [1:0 0:0 32 0] 
s 43.122204950 _0_ MAC  --- 0 ACK 10 [0.00 1 0] 
r 43.122204950 _0_ MAC  --- 0 ping 64 [0.01 0 1] ------- [1:0 0:0 32 0] 
r 43.122229950 _0_ AGT  --- 0 ping 64 [0.01 0 1] ------- [1:0 0:0 32 0] 
s 43.122229950 _0_ AGT  --- 1 ping 64 [0.00 0 0] ------- [0:0 1:0 32 0] 
r 43.122229950 _0_ RTR  --- 1 ping 64 [0.00 0 0] ------- [0:0 1:0 32 0] 
s 43.122229950 _0_ RTR  --- 1 ping 64 [0.00 0 0] ------- [0:0 1:0 32 0] 
s 44.493203536 _0_ MAC  --- 0 RTS 10 [0.07 1 0] 
s 44.504204243 _1_ MAC  --- 0 CTS 10 [0.06 0 1] 
s 44.515204950 _0_ MAC  --- 1 ping 64 [0.01 1 0] ------- [0:0 1:0 32 0] 
s 44.558205657 _1_ MAC  --- 0 ACK 10 [0.00 0 1] 
r 44.558205657 _1_ MAC  --- 1 ping 64 [0.01 1 0] ------- [0:0 1:0 32 0] 
r 44.558230657 _1_ AGT  --- 1 ping 64 [0.01 1 0] ------- [0:0 1:0 32 0] 
s 47.315003536 _0_ MAC  --- 0 SYNC 9 [0.11 0 1] 
s 48.742003536 _2_ MAC  --- 0 SYNC 9 [0.12 2 1] 
s 50.176004243 _3_ MAC  --- 0 SYNC 9 [0.12 3 2] 
s 51.599004243 _1_ MAC  --- 0 SYNC 9 [0.13 1 0] 
s 60.100000000 _2_ AGT  --- 2 ping 64 [0.00 0 0] ------- [2:0 3:0 32 0] 
r 60.100000000 _2_ RTR  --- 2 ping 64 [0.00 0 0] ------- [2:0 3:0 32 0] 
s 60.100000000 _2_ RTR  --- 2 ping 64 [0.00 0 0] ------- [2:0 3:0 32 0] 
s 60.267204950 _2_ MAC  --- 0 ARP 28 [0.00 -1 2] ------- [REQUEST 2/2 0/3]
r 60.310205657 _1_ MAC  --- 0 ARP 28 [0.00 -1 2] ------- [REQUEST 2/2 0/3]
r 60.310205657 _3_ MAC  --- 0 ARP 28 [0.00 -1 2] ------- [REQUEST 2/2 0/3]
s 61.651004950 _0_ MAC  --- 0 SYNC 9 [0.11 0 1] 
s 61.689204243 _3_ MAC  --- 0 RTS 10 [0.07 2 3] 
s 63.091004950 _2_ MAC  --- 0 SYNC 9 [0.10 2 1] 
s 63.179205657 _3_ MAC  --- 0 RTS 10 [0.07 2 3] 
s 63.190206364 _2_ MAC  --- 0 CTS 10 [0.06 3 2] 
s 63.201207071 _3_ MAC  --- 0 ARP 28 [0.01 2 3] ------- [REPLY 3/3 2/2]
s 63.244207778 _2_ MAC  --- 0 ACK 10 [0.00 3 2] 
r 63.244207778 _2_ MAC  --- 0 ARP 28 [0.01 2 3] ------- [REPLY 3/3 2/2]
s 64.522005657 _3_ MAC  --- 0 SYNC 9 [0.10 3 2] 
s 64.557206364 _2_ MAC  --- 0 RTS 10 [0.07 3 2] 
s 64.568207071 _3_ MAC  --- 0 CTS 10 [0.06 2 3] 
s 64.579207778 _2_ MAC  --- 2 ping 64 [0.01 3 2] ------- [2:0 3:0 32 0] 
s 64.622208485 _3_ MAC  --- 0 ACK 10 [0.00 2 3] 
r 64.622208485 _3_ MAC  --- 2 ping 64 [0.01 3 2] ------- [2:0 3:0 32 0] 
r 64.622233485 _3_ AGT  --- 2 ping 64 [0.01 3 2] ------- [2:0 3:0 32 0] 
s 64.622233485 _3_ AGT  --- 3 ping 64 [0.00 0 0] ------- [3:0 2:0 32 0] 
r 64.622233485 _3_ RTR  --- 3 ping 64 [0.00 0 0] ------- [3:0 2:0 32 0] 
s 64.622233485 _3_ RTR  --- 3 ping 64 [0.00 0 0] ------- [3:0 2:0 32 0] 
s 65.930005657 _1_ MAC  --- 0 SYNC 9 [0.13 1 0] 
s 67.472205657 _3_ MAC  --- 0 RTS 10 [0.07 2 3] 
s 67.483206364 _2_ MAC  --- 0 CTS 10 [0.06 3 2] 
s 67.494207071 _3_ MAC  --- 3 ping 64 [0.01 2 3] ------- [3:0 2:0 32 0] 
s 67.537207778 _2_ MAC  --- 0 ACK 10 [0.00 3 2] 
r 67.537207778 _2_ MAC  --- 3 ping 64 [0.01 2 3] ------- [3:0 2:0 32 0] 
r 67.537232778 _2_ AGT  --- 3 ping 64 [0.01 2 3] ------- [3:0 2:0 32 0] 
s 75.977006364 _0_ MAC  --- 0 SYNC 9 [0.11 0 1] 
s 77.399006364 _2_ MAC  --- 0 SYNC 9 [0.12 2 1] 
s 78.829007071 _3_ MAC  --- 0 SYNC 9 [0.13 3 2] 
s 80.272007071 _1_ MAC  --- 0 SYNC 9 [0.12 1 0] 
s 90.299007778 _0_ MAC  --- 0 SYNC 9 [0.12 0 1] 
s 91.727007778 _2_ MAC  --- 0 SYNC 9 [0.13 2 1] 
s 93.181008485 _3_ MAC  --- 0 SYNC 9 [0.10 3 2] 
s 94.599008485 _1_ MAC  --- 0 SYNC 9 [0.12 1 0] 
