s 0.100000000 _0_ AGT  --- 0 ping 64 [0.00 0 0] ------- [0:0 1:0 32 0] 
r 0.100000000 _0_ RTR  --- 0 ping 64 [0.00 0 0] ------- [0:0 1:0 32 0] 
s 0.100000000 _0_ RTR  --- 0 ping 64 [0.00 0 0] ------- [0:0 1:0 32 0] 
s 0.100000000 _2_ AGT  --- 1 ping 64 [0.00 0 0] ------- [2:0 3:0 32 0] 
r 0.100000000 _2_ RTR  --- 1 ping 64 [0.00 0 0] ------- [2:0 3:0 32 0] 
s 0.100000000 _2_ RTR  --- 1 ping 64 [0.00 0 0] ------- [2:0 3:0 32 0] 
s 0.121005000 _0_ MAC  --- 0 ARP 28 [0.00 -1 0] ------- [REQUEST 0/0 0/1]
r 0.164005707 _1_ MAC  --- 0 ARP 28 [0.00 -1 0] ------- [REQUEST 0/0 0/1]
s 0.228010707 _1_ MAC  --- 0 RTS 10 [0.07 0 1] 
s 0.239011414 _0_ MAC  --- 0 CTS 10 [0.06 1 0] 
s 0.250012121 _1_ MAC  --- 0 ARP 28 [0.01 0 1] ------- [REPLY 1/1 0/0]
s 0.293012828 _0_ MAC  --- 0 ACK 10 [0.00 1 0] 
r 0.293012828 _0_ MAC  --- 0 ARP 28 [0.01 0 1] ------- [REPLY 1/1 0/0]
s 0.353011414 _0_ MAC  --- 0 RTS 10 [0.07 1 0] 
s 0.364012121 _1_ MAC  --- 0 CTS 10 [0.06 0 1] 
s 0.375012828 _0_ MAC  --- 0 ping 64 [0.01 1 0] ------- [0:0 1:0 32 0] 
s 0.418013536 _1_ MAC  --- 0 ACK 10 [0.00 0 1] 
r 0.418013536 _1_ MAC  --- 0 ping 64 [0.01 1 0] ------- [0:0 1:0 32 0] 
r 0.418038536 _1_ AGT  --- 0 ping 64 [0.01 1 0] ------- [0:0 1:0 32 0] 
s 0.418038536 _1_ AGT  --- 2 ping 64 [0.00 0 0] ------- [1:0 0:0 32 0] 
r 0.418038536 _1_ RTR  --- 2 ping 64 [0.00 0 0] ------- [1:0 0:0 32 0] 
s 0.418038536 _1_ RTR  --- 2 ping 64 [0.00 0 0] ------- [1:0 0:0 32 0] 
s 0.444012828 _2_ MAC  --- 0 ARP 28 [0.00 -1 2] ------- [REQUEST 2/2 0/3]
r 0.487013536 _1_ MAC  --- 0 ARP 28 [0.00 -1 2] ------- [REQUEST 2/2 0/3]
r 0.487013536 _3_ MAC  --- 0 ARP 28 [0.00 -1 2] ------- [REQUEST 2/2 0/3]
s 0.527013536 _1_ MAC  --- 0 RTS 10 [0.07 0 1] 
s 0.538014243 _0_ MAC  --- 0 CTS 10 [0.06 1 0] 
s 0.549014950 _1_ MAC  --- 2 ping 64 [0.01 0 1] ------- [1:0 0:0 32 0] 
s 0.592015657 _0_ MAC  --- 0 ACK 10 [0.00 1 0] 
r 0.592015657 _0_ MAC  --- 2 ping 64 [0.01 0 1] ------- [1:0 0:0 32 0] 
r 0.592040657 _0_ AGT  --- 2 ping 64 [0.01 0 1] ------- [1:0 0:0 32 0] 
s 0.714016364 _3_ MAC  --- 0 RTS 10 [0.07 2 3] 
s 0.725017071 _2_ MAC  --- 0 CTS 10 [0.06 3 2] 
s 0.736017778 _3_ MAC  --- 0 ARP 28 [0.01 2 3] ------- [REPLY 3/3 2/2]
s 0.779018485 _2_ MAC  --- 0 ACK 10 [0.00 3 2] 
r 0.779018485 _2_ MAC  --- 0 ARP 28 [0.01 2 3] ------- [REPLY 3/3 2/2]
s 0.853017071 _2_ MAC  --- 0 RTS 10 [0.07 3 2] 
s 0.864017778 _3_ MAC  --- 0 CTS 10 [0.06 2 3] 
s 0.875018485 _2_ MAC  --- 1 ping 64 [0.01 3 2] ------- [2:0 3:0 32 0] 
s 0.918019192 _3_ MAC  --- 0 ACK 10 [0.00 2 3] 
r 0.918019192 _3_ MAC  --- 1 ping 64 [0.01 3 2] ------- [2:0 3:0 32 0] 
r 0.918044192 _3_ AGT  --- 1 ping 64 [0.01 3 2] ------- [2:0 3:0 32 0] 
s 0.918044192 _3_ AGT  --- 3 ping 64 [0.00 0 0] ------- [3:0 2:0 32 0] 
r 0.918044192 _3_ RTR  --- 3 ping 64 [0.00 0 0] ------- [3:0 2:0 32 0] 
s 0.918044192 _3_ RTR  --- 3 ping 64 [0.00 0 0] ------- [3:0 2:0 32 0] 
s 0.974017778 _3_ MAC  --- 0 RTS 10 [0.07 2 3] 
s 0.985018485 _2_ MAC  --- 0 CTS 10 [0.06 3 2] 
s 0.996019192 _3_ MAC  --- 3 ping 64 [0.01 2 3] ------- [3:0 2:0 32 0] 
s 1.039019899 _2_ MAC  --- 0 ACK 10 [0.00 3 2] 
r 1.039019899 _2_ MAC  --- 3 ping 64 [0.01 2 3] ------- [3:0 2:0 32 0] 
r 1.039044899 _2_ AGT  --- 3 ping 64 [0.01 2 3] ------- [3:0 2:0 32 0] 
