s 17.208000000 _1_ MAC  --- 0 SYNC 9 [0.13 1 1] 
s 18.654000471 _0_ MAC  --- 0 SYNC 9 [0.12 0 1] 
s 20.072000471 _2_ MAC  --- 0 SYNC 9 [0.13 2 1] 
s 21.515000943 _1_ MAC  --- 0 SYNC 9 [0.12 1 0] 
s 32.981001414 _0_ MAC  --- 0 SYNC 9 [0.12 0 1] 
s 34.420002081 _2_ MAC  --- 0 SYNC 9 [0.11 2 1] 
s 35.848002552 _1_ MAC  --- 0 SYNC 9 [0.12 1 0] 
s 40.100000000 _0_ AGT  --- 0 ping 64 [0.00 0 0] ------- [0:0 1:0 32 0] 
r 40.100000000 _0_ RTR  --- 0 ping 64 [0.00 0 0] ------- [0:0 1:0 32 0] 
s 40.100000000 _0_ RTR  --- 0 ping 64 [0.00 0 0] ------- [0:0 1:0 32 0] 
s 40.100000000 _1_ AGT  --- 1 ping 64 [0.00 0 0] ------- [1:1 2:0 32 0] 
r 40.100000000 _1_ RTR  --- 1 ping 64 [0.00 0 0] ------- [1:1 2:0 32 0] 
s 40.100000000 _1_ RTR  --- 1 ping 64 [0.00 0 0] ------- [1:1 2:0 32 0] 
s 40.100000000 _2_ AGT  --- 2 ping 64 [0.00 0 0] ------- [2:1 0:1 32 0] 
r 40.100000000 _2_ RTR  --- 2 ping 64 [0.00 0 0] ------- [2:1 0:1 32 0] 
s 40.100000000 _2_ RTR  --- 2 ping 64 [0.00 0 0] ------- [2:1 0:1 32 0] 
s 40.212203024 _0_ MAC  --- 0 ARP 28 [0.00 -1 0] ------- [REQUEST 0/0 0/1]
r 40.255203495 _1_ MAC  --- 0 ARP 28 [0.00 -1 0] ------- [REQUEST 0/0 0/1]
r 40.255203690 _2_ MAC  --- 0 ARP 28 [0.00 -1 0] ------- [REQUEST 0/0 0/1]
s 41.634202552 _1_ MAC  --- 0 ARP 28 [0.00 -1 1] ------- [REQUEST 1/1 0/2]
r 41.677203024 _0_ MAC  --- 0 ARP 28 [0.00 -1 1] ------- [REQUEST 1/1 0/2]
r 41.677203024 _2_ MAC  --- 0 ARP 28 [0.00 -1 1] ------- [REQUEST 1/1 0/2]
s 43.057203024 _2_ MAC  --- 0 ARP 28 [0.00 -1 2] ------- [REQUEST 2/2 0/0]
r 43.100203495 _1_ MAC  --- 0 ARP 28 [0.00 -1 2] ------- [REQUEST 2/2 0/0]
r 43.100203690 _0_ MAC  --- 0 ARP 28 [0.00 -1 2] ------- [REQUEST 2/2 0/0]
s 44.493202552 _1_ MAC  --- 0 RTS 10 [0.07 0 1] 
s 44.504203024 _0_ MAC  --- 0 CTS 10 [0.06 1 0] 
s 44.515203495 _1_ MAC  --- 0 ARP 28 [0.01 0 1] ------- [REPLY 1/1 0/0]
s 44.558203966 _0_ MAC  --- 0 ACK 10 [0.00 1 0] 
r 44.558203966 _0_ MAC  --- 0 ARP 28 [0.01 0 1] ------- [REPLY 1/1 0/0]
s 45.937203024 _2_ MAC  --- 0 RTS 10 [0.07 0 2] 
s 45.948203690 _0_ MAC  --- 0 CTS 10 [0.06 2 0] 
s 45.959204357 _2_ MAC  --- 2 ping 64 [0.01 0 2] ------- [2:1 0:1 32 0] 
s 46.002205024 _0_ MAC  --- 0 ACK 10 [0.00 2 0] 
r 46.002205024 _0_ MAC  --- 2 ping 64 [0.01 0 2] ------- [2:1 0:1 32 0] 
r 46.002230024 _0_ AGT  --- 2 ping 64 [0.01 0 2] ------- [2:1 0:1 32 0] 
s 46.002230024 _0_ AGT  --- 3 ping 64 [0.00 0 0] ------- [0:1 2:1 32 0] 
r 46.002230024 _0_ RTR  --- 3 ping 64 [0.00 0 0] ------- [0:1 2:1 32 0] 
s 46.002230024 _0_ RTR  --- 3 ping 64 [0.00 0 0] ------- [0:1 2:1 32 0] 
s 47.321003024 _0_ MAC  --- 0 SYNC 9 [0.11 0 1] 
s 47.359203024 _0_ MAC  --- 0 RTS 10 [0.07 1 0] 
s 47.370203495 _1_ MAC  --- 0 CTS 10 [0.06 0 1] 
s 47.381203966 _0_ MAC  --- 0 ping 64 [0.01 1 0] ------- [0:0 1:0 32 0] 
s 47.424204438 _1_ MAC  --- 0 ACK 10 [0.00 0 1] 
r 47.424204438 _1_ MAC  --- 0 ping 64 [0.01 1 0] ------- [0:0 1:0 32 0] 
r 47.424229438 _1_ AGT  --- 0 ping 64 [0.01 1 0] ------- [0:0 1:0 32 0] 
s 47.424229438 _1_ AGT  --- 4 ping 64 [0.00 0 0] ------- [1:0 0:0 32 0] 
r 47.424229438 _1_ RTR  --- 4 ping 64 [0.00 0 0] ------- [1:0 0:0 32 0] 
s 47.424229438 _1_ RTR  --- 4 ping 64 [0.00 0 0] ------- [1:0 0:0 32 0] 
s 48.759003690 _2_ MAC  --- 0 SYNC 9 [0.10 2 1] 
s 48.794203690 _2_ MAC  --- 0 RTS 10 [0.07 1 2] 
s 48.805204162 _1_ MAC  --- 0 CTS 10 [0.06 2 1] 
s 48.816204633 _2_ MAC  --- 0 ARP 28 [0.01 1 2] ------- [REPLY 2/2 1/1]
s 48.859205105 _1_ MAC  --- 0 ACK 10 [0.00 2 1] 
r 48.859205105 _1_ MAC  --- 0 ARP 28 [0.01 1 2] ------- [REPLY 2/2 1/1]
s 50.183004162 _1_ MAC  --- 0 SYNC 9 [0.11 1 0] 
s 50.235204162 _1_ MAC  --- 0 RTS 10 [0.07 2 1] 
s 50.246204633 _2_ MAC  --- 0 CTS 10 [0.06 1 2] 
s 50.257205105 _1_ MAC  --- 1 ping 64 [0.01 2 1] ------- [1:1 2:0 32 0] 
s 50.300205576 _2_ MAC  --- 0 ACK 10 [0.00 1 2] 
r 50.300205576 _2_ MAC  --- 1 ping 64 [0.01 2 1] ------- [1:1 2:0 32 0] 
r 50.300230576 _2_ AGT  --- 1 ping 64 [0.01 2 1] ------- [1:1 2:0 32 0] 
s 50.300230576 _2_ AGT  --- 5 ping 64 [0.00 0 0] ------- [2:0 1:1 32 0] 
r 50.300230576 _2_ RTR  --- 5 ping 64 [0.00 0 0] ------- [2:0 1:1 32 0] 
s 50.300230576 _2_ RTR  --- 5 ping 64 [0.00 0 0] ------- [2:0 1:1 32 0] 
s 51.653204633 _0_ MAC  --- 0 RTS 10 [0.07 2 0] 
s 51.664205300 _2_ MAC  --- 0 CTS 10 [0.06 0 2] 
s 51.675205966 _0_ MAC  --- 0 ARP 28 [0.01 2 0] ------- [REPLY 0/0 2/2]
s 51.718206633 _2_ MAC  --- 0 ACK 10 [0.00 0 2] 
r 51.718206633 _2_ MAC  --- 0 ARP 28 [0.01 2 0] ------- [REPLY 0/0 2/2]
s 53.100204633 _0_ MAC  --- 0 RTS 10 [0.07 2 0] 
s 53.111205300 _2_ MAC  --- 0 CTS 10 [0.06 0 2] 
s 53.122205966 _0_ MAC  --- 3 ping 64 [0.01 2 0] ------- [0:1 2:1 32 0] 
s 53.165206633 _2_ MAC  --- 0 ACK 10 [0.00 0 2] 
r 53.165206633 _2_ MAC  --- 3 ping 64 [0.01 2 0] ------- [0:1 2:1 32 0] 
r 53.165231633 _2_ AGT  --- 3 ping 64 [0.01 2 0] ------- [0:1 2:1 32 0] 
s 54.529204162 _1_ MAC  --- 0 RTS 10 [0.07 0 1] 
s 54.540204633 _0_ MAC  --- 0 CTS 10 [0.06 1 0] 
s 54.551205105 _1_ MAC  --- 4 ping 64 [0.01 0 1] ------- [1:0 0:0 32 0] 
s 54.594205576 _0_ MAC  --- 0 ACK 10 [0.00 1 0] 
r 54.594205576 _0_ MAC  --- 4 ping 64 [0.01 0 1] ------- [1:0 0:0 32 0] 
r 54.594230576 _0_ AGT  --- 4 ping 64 [0.01 0 1] ------- [1:0 0:0 32 0] 
s 55.969204633 _2_ MAC  --- 0 RTS 10 [0.07 1 2] 
s 55.980205105 _1_ MAC  --- 0 CTS 10 [0.06 2 1] 
s 55.991205576 _2_ MAC  --- 5 ping 64 [0.01 1 2] ------- [2:0 1:1 32 0] 
s 56.034206047 _1_ MAC  --- 0 ACK 10 [0.00 2 1] 
r 56.034206047 _1_ MAC  --- 5 ping 64 [0.01 1 2] ------- [2:0 1:1 32 0] 
r 56.034231047 _1_ AGT  --- 5 ping 64 [0.01 1 2] ------- [2:0 1:1 32 0] 
s 61.646004633 _0_ MAC  --- 0 SYNC 9 [0.11 0 1] 
s 63.087005300 _2_ MAC  --- 0 SYNC 9 [0.11 2 1] 
s 64.509005771 _1_ MAC  --- 0 SYNC 9 [0.12 1 0] 
s 75.968006243 _0_ MAC  --- 0 SYNC 9 [0.12 0 1] 
s 77.406006909 _2_ MAC  --- 0 SYNC 9 [0.12 2 1] 
s 78.849007381 _1_ MAC  --- 0 SYNC 9 [0.11 1 0] 
s 90.289007852 _0_ MAC  --- 0 SYNC 9 [0.13 0 1] 
s 91.733008519 _2_ MAC  --- 0 SYNC 9 [0.12 2 1] 
s 93.171008990 _1_ MAC  --- 0 SYNC 9 [0.11 1 0] 
