s 17.208000000 _1_ MAC  --- 0 SYNC 9 [0.13 1 1] 
s 18.639000707 _0_ MAC  --- 0 SYNC 9 [0.13 0 1] 
s 18.655000000 _3_ MAC  --- 0 SYNC 9 [0.11 3 3] 
D 18.658000707 _2_ MAC  SLP 0 SYNC 9 [0.11 3 3] 
s 20.082000707 _2_ MAC  --- 0 SYNC 9 [0.12 2 1] 
s 21.518001414 _3_ MAC  --- 0 SYNC 9 [0.12 3 2] 
s 22.950001414 _1_ MAC  --- 0 SYNC 9 [0.12 1 0] 
s 32.971002121 _0_ MAC  --- 0 SYNC 9 [0.13 0 1] 
s 34.429002121 _2_ MAC  --- 0 SYNC 9 [0.10 2 1] 
s 35.843002828 _3_ MAC  --- 0 SYNC 9 [0.12 3 2] 
s 37.286002828 _1_ MAC  --- 0 SYNC 9 [0.11 1 0] 
s 40.100000000 _0_ AGT  --- 0 ping 64 [0.00 0 0] ------- [0:0 1:0 32 0] 
r 40.100000000 _0_ RTR  --- 0 ping 64 [0.00 0 0] ------- [0:0 1:0 32 0] 
s 40.100000000 _0_ RTR  --- 0 ping 64 [0.00 0 0] ------- [0:0 1:0 32 0] 
s 40.198203536 _0_ MAC  --- 0 ARP 28 [0.00 -1 0] ------- [REQUEST 0/0 0/1]
r 40.241204243 _1_ MAC  --- 0 ARP 28 [0.00 -1 0] ------- [REQUEST 0/0 0/1]
s 41.683202828 _1_ MAC  --- 0 RTS 10 [0.07 0 1] 
s 41.694203536 _0_ MAC  --- 0 CTS 10 [0.06 1 0] 
s 41.705204243 _1_ MAC  --- 0 ARP 28 [0.01 0 1] ------- [REPLY 1/1 0/0]
s 41.748204950 _0_ MAC  --- 0 ACK 10 [0.00 1 0] 
r 41.748204950 _0_ MAC  --- 0 ARP 28 [0.01 0 1] ------- [REPLY 1/1 0/0]
s 43.057203536 _0_ MAC  --- 0 RTS 10 [0.07 1 0] 
s 43.068204243 _1_ MAC  --- 0 CTS 10 [0.06 0 1] 
s 43.079204950 _0_ MAC  --- 0 ping 64 [0.01 1 0] ------- [0:0 1:0 32 0] 
s 43.122205657 _1_ MAC  --- 0 ACK 10 [0.00 0 1] 
r 43.122205657 _1_ MAC  --- 0 ping 64 [0.01 1 0] ------- [0:0 1:0 32 0] 
r 43.122230657 _1_ AGT  --- 0 ping 64 [0.01 1 0] ------- [0:0 1:0 32 0] 
s 43.122230657 _1_ AGT  --- 1 ping 64 [0.00 0 0] ------- [1:0 0:0 32 0] 
r 43.122230657 _1_ RTR  --- 1 ping 64 [0.00 0 0] ------- [1:0 0:0 32 0] 
s 43.122230657 _1_ RTR  --- 1 ping 64 [0.00 0 0] ------- [1:0 0:0 32 0] 
s 44.493202828 _1_ MAC  --- 0 RTS 10 [0.07 0 1] 
s 44.504203536 _0_ MAC  --- 0 CTS 10 [0.06 1 0] 
s 44.515204243 _1_ MAC  --- 1 ping 64 [0.01 0 1] ------- [1:0 0:0 32 0] 
s 44.558204950 _0_ MAC  --- 0 ACK 10 [0.00 1 0] 
r 44.558204950 _0_ MAC  --- 1 ping 64 [0.01 0 1] ------- [1:0 0:0 32 0] 
r 44.558229950 _0_ AGT  --- 1 ping 64 [0.01 0 1] ------- [1:0 0:0 32 0] 
s 47.315003536 _0_ MAC  --- 0 SYNC 9 [0.11 0 1] 
s 48.742003536 _2_ MAC  --- 0 SYNC 9 [0.12 2 1] 
s 50.176004243 _3_ MAC  --- 0 SYNC 9 [0.12 3 2] 
s 51.599004243 _1_ MAC  --- 0 SYNC 9 [0.13 1 0] 
s 60.100000000 _3_ AGT  --- 2 ping 64 [0.00 0 0] ------- [3:0 2:0 32 0] 
r 60.100000000 _3_ RTR  --- 2 ping 64 [0.00 0 0] ------- [3:0 2:0 32 0] 
s 60.100000000 _3_ RTR  --- 2 ping 64 [0.00 0 0] ------- [3:0 2:0 32 0] 
s 60.267204243 _3_ MAC  --- 0 ARP 28 [0.00 -1 3] ------- [REQUEST 3/3 0/2]
r 60.310204950 _2_ MAC  --- 0 ARP 28 [0.00 -1 3] ------- [REQUEST 3/3 0/2]
s 61.651004950 _0_ MAC  --- 0 SYNC 9 [0.11 0 1] 
s 63.071004950 _2_ MAC  --- 0 SYNC 9 [0.12 2 1] 
s 63.157204950 _2_ MAC  --- 0 RTS 10 [0.07 3 2] 
s 63.168205657 _3_ MAC  --- 0 CTS 10 [0.06 2 3] 
s 63.179206364 _2_ MAC  --- 0 ARP 28 [0.01 3 2] ------- [REPLY 2/2 3/3]
s 63.222207071 _3_ MAC  --- 0 ACK 10 [0.00 2 3] 
r 63.222207071 _3_ MAC  --- 0 ARP 28 [0.01 3 2] ------- [REPLY 2/2 3/3]
s 64.515005657 _3_ MAC  --- 0 SYNC 9 [0.11 3 2] 
s 64.589205657 _3_ MAC  --- 0 RTS 10 [0.07 2 3] 
s 64.600206364 _2_ MAC  --- 0 CTS 10 [0.06 3 2] 
s 64.611207071 _3_ MAC  --- 2 ping 64 [0.01 2 3] ------- [3:0 2:0 32 0] 
s 64.654207778 _2_ MAC  --- 0 ACK 10 [0.00 3 2] 
r 64.654207778 _2_ MAC  --- 2 ping 64 [0.01 2 3] ------- [3:0 2:0 32 0] 
r 64.654232778 _2_ AGT  --- 2 ping 64 [0.01 2 3] ------- [3:0 2:0 32 0] 
s 64.654232778 _2_ AGT  --- 3 ping 64 [0.00 0 0] ------- [2:0 3:0 32 0] 
r 64.654232778 _2_ RTR  --- 3 ping 64 [0.00 0 0] ------- [2:0 3:0 32 0] 
s 64.654232778 _2_ RTR  --- 3 ping 64 [0.00 0 0] ------- [2:0 3:0 32 0] 
s 65.946005657 _1_ MAC  --- 0 SYNC 9 [0.11 1 0] 
s 66.034206364 _2_ MAC  --- 0 RTS 10 [0.07 3 2] 
s 66.045207071 _3_ MAC  --- 0 CTS 10 [0.06 2 3] 
s 66.056207778 _2_ MAC  --- 3 ping 64 [0.01 3 2] ------- [2:0 3:0 32 0] 
s 66.099208485 _3_ MAC  --- 0 ACK 10 [0.00 2 3] 
r 66.099208485 _3_ MAC  --- 3 ping 64 [0.01 3 2] ------- [2:0 3:0 32 0] 
r 66.099233485 _3_ AGT  --- 3 ping 64 [0.01 3 2] ------- [2:0 3:0 32 0] 
s 75.974006364 _0_ MAC  --- 0 SYNC 9 [0.12 0 1] 
s 77.410006364 _2_ MAC  --- 0 SYNC 9 [0.11 2 1] 
s 78.832007071 _3_ MAC  --- 0 SYNC 9 [0.12 3 2] 
s 80.262007071 _1_ MAC  --- 0 SYNC 9 [0.13 1 0] 
s 90.303007778 _0_ MAC  --- 0 SYNC 9 [0.12 0 1] 
s 91.732007778 _2_ MAC  --- 0 SYNC 9 [0.12 2 1] 
s 93.160008485 _3_ MAC  --- 0 SYNC 9 [0.13 3 2] 
s 94.614008485 _1_ MAC  --- 0 SYNC 9 [0.10 1 0] 
