s 17.208000000 _1_ MAC  --- 0 SYNC 9 [0.13 1 1] 
s 18.667000207 _0_ MAC  --- 0 SYNC 9 [0.10 0 1] 
s 20.087000415 _1_ MAC  --- 0 SYNC 9 [0.12 1 0] 
s 32.985000622 _0_ MAC  --- 0 SYNC 9 [0.11 0 1] 
s 34.402000830 _1_ MAC  --- 0 SYNC 9 [0.13 1 0] 
s 40.000000000 _0_ AGT  --- 0 ping 64 [0.00 0 0] ------- [0:0 1:0 32 0] 
r 40.000000000 _0_ RTR  --- 0 ping 64 [0.00 0 0] ------- [0:0 1:0 32 0] 
s 40.000000000 _0_ RTR  --- 0 ping 64 [0.00 0 0] ------- [0:0 1:0 32 0] 
s 40.193201037 _0_ MAC  --- 0 ARP 28 [0.00 -1 0] ------- [REQUEST 0/0 0/1]
r 40.236201245 _1_ MAC  --- 0 ARP 28 [0.00 -1 0] ------- [REQUEST 0/0 0/1]
s 41.652200830 _1_ MAC  --- 0 RTS 10 [0.07 0 1] 
s 41.663201037 _0_ MAC  --- 0 CTS 10 [0.06 1 0] 
s 41.674201245 _1_ MAC  --- 0 ARP 28 [0.01 0 1] ------- [REPLY 1/1 0/0]
s 41.717201452 _0_ MAC  --- 0 ACK 10 [0.00 1 0] 
r 41.717201452 _0_ MAC  --- 0 ARP 28 [0.01 0 1] ------- [REPLY 1/1 0/0]
s 43.103201037 _0_ MAC  --- 0 RTS 10 [0.07 1 0] 
s 43.114201245 _1_ MAC  --- 0 CTS 10 [0.06 0 1] 
s 43.125201452 _0_ MAC  --- 0 ping 64 [0.01 1 0] ------- [0:0 1:0 32 0] 
s 43.168201660 _1_ MAC  --- 0 ACK 10 [0.00 0 1] 
r 43.168201660 _1_ MAC  --- 0 ping 64 [0.01 1 0] ------- [0:0 1:0 32 0] 
r 43.168226660 _1_ AGT  --- 0 ping 64 [0.01 1 0] ------- [0:0 1:0 32 0] 
s 43.168226660 _1_ AGT  --- 1 ping 64 [0.00 0 0] ------- [1:0 0:0 32 0] 
r 43.168226660 _1_ RTR  --- 1 ping 64 [0.00 0 0] ------- [1:0 0:0 32 0] 
s 43.168226660 _1_ RTR  --- 1 ping 64 [0.00 0 0] ------- [1:0 0:0 32 0] 
s 44.550200830 _1_ MAC  --- 0 RTS 10 [0.07 0 1] 
s 44.561201037 _0_ MAC  --- 0 CTS 10 [0.06 1 0] 
s 44.572201245 _1_ MAC  --- 1 ping 64 [0.01 0 1] ------- [1:0 0:0 32 0] 
s 44.615201452 _0_ MAC  --- 0 ACK 10 [0.00 1 0] 
r 44.615201452 _0_ MAC  --- 1 ping 64 [0.01 0 1] ------- [1:0 0:0 32 0] 
r 44.615226452 _0_ AGT  --- 1 ping 64 [0.01 0 1] ------- [1:0 0:0 32 0] 
s 47.312001037 _0_ MAC  --- 0 SYNC 9 [0.12 0 1] 
s 48.744001245 _1_ MAC  --- 0 SYNC 9 [0.12 1 0] 
s 61.631001452 _0_ MAC  --- 0 SYNC 9 [0.13 0 1] 
s 63.089001660 _1_ MAC  --- 0 SYNC 9 [0.10 1 0] 
s 75.967001867 _0_ MAC  --- 0 SYNC 9 [0.12 0 1] 
s 77.410002075 _1_ MAC  --- 0 SYNC 9 [0.11 1 0] 
s 90.301002282 _0_ MAC  --- 0 SYNC 9 [0.12 0 1] 
s 91.730002490 _1_ MAC  --- 0 SYNC 9 [0.12 1 0] 
