s 0.100000000 _0_ AGT  --- 0 ping 64 [0.00 0 0] ------- [0:0 1:0 32 0] 
r 0.100000000 _0_ RTR  --- 0 ping 64 [0.00 0 0] ------- [0:0 1:0 32 0] 
s 0.100000000 _0_ RTR  --- 0 ping 64 [0.00 0 0] ------- [0:0 1:0 32 0] 
s 0.100000000 _3_ AGT  --- 1 ping 64 [0.00 0 0] ------- [3:0 2:0 32 0] 
r 0.100000000 _3_ RTR  --- 1 ping 64 [0.00 0 0] ------- [3:0 2:0 32 0] 
s 0.100000000 _3_ RTR  --- 1 ping 64 [0.00 0 0] ------- [3:0 2:0 32 0] 
s 0.121005000 _0_ MAC  --- 0 ARP 28 [0.00 -1 0] ------- [REQUEST 0/0 0/1]
s 0.130005000 _3_ MAC  --- 0 ARP 28 [0.00 -1 3] ------- [REQUEST 3/3 0/2]
r 0.164005236 _1_ MAC  --- 0 ARP 28 [0.00 -1 0] ------- [REQUEST 0/0 0/1]
r 0.173005662 _2_ MAC  --- 0 ARP 28 [0.00 -1 3] ------- [REQUEST 3/3 0/2]
s 0.195010662 _2_ MAC  --- 0 RTS 10 [0.07 3 2] 
s 0.206011323 _3_ MAC  --- 0 CTS 10 [0.06 2 3] 
s 0.217011985 _2_ MAC  --- 0 ARP 28 [0.01 3 2] ------- [REPLY 2/2 3/3]
s 0.228010236 _1_ MAC  --- 0 RTS 10 [0.07 0 1] 
s 0.239010471 _0_ MAC  --- 0 CTS 10 [0.06 1 0] 
s 0.250010707 _1_ MAC  --- 0 ARP 28 [0.01 0 1] ------- [REPLY 1/1 0/0]
s 0.260012647 _3_ MAC  --- 0 ACK 10 [0.00 2 3] 
r 0.260012647 _3_ MAC  --- 0 ARP 28 [0.01 3 2] ------- [REPLY 2/2 3/3]
s 0.293010943 _0_ MAC  --- 0 ACK 10 [0.00 1 0] 
r 0.293010943 _0_ MAC  --- 0 ARP 28 [0.01 0 1] ------- [REPLY 1/1 0/0]
s 0.320011323 _3_ MAC  --- 0 RTS 10 [0.07 2 3] 
s 0.331011985 _2_ MAC  --- 0 CTS 10 [0.06 3 2] 
s 0.342012647 _3_ MAC  --- 1 ping 64 [0.01 2 3] ------- [3:0 2:0 32 0] 
s 0.348010471 _0_ MAC  --- 0 RTS 10 [0.07 1 0] 
s 0.359010707 _1_ MAC  --- 0 CTS 10 [0.06 0 1] 
s 0.370010943 _0_ MAC  --- 0 ping 64 [0.01 1 0] ------- [0:0 1:0 32 0] 
s 0.385013308 _2_ MAC  --- 0 ACK 10 [0.00 3 2] 
r 0.385013308 _2_ MAC  --- 1 ping 64 [0.01 2 3] ------- [3:0 2:0 32 0] 
r 0.385038308 _2_ AGT  --- 1 ping 64 [0.01 2 3] ------- [3:0 2:0 32 0] 
s 0.385038308 _2_ AGT  --- 2 ping 64 [0.00 0 0] ------- [2:0 3:0 32 0] 
r 0.385038308 _2_ RTR  --- 2 ping 64 [0.00 0 0] ------- [2:0 3:0 32 0] 
s 0.385038308 _2_ RTR  --- 2 ping 64 [0.00 0 0] ------- [2:0 3:0 32 0] 
s 0.411011985 _2_ MAC  --- 0 RTS 10 [0.07 3 2] 
s 0.413011179 _1_ MAC  --- 0 ACK 10 [0.00 0 1] 
r 0.413011179 _1_ MAC  --- 0 ping 64 [0.01 1 0] ------- [0:0 1:0 32 0] 
r 0.413036179 _1_ AGT  --- 0 ping 64 [0.01 1 0] ------- [0:0 1:0 32 0] 
s 0.413036179 _1_ AGT  --- 3 ping 64 [0.00 0 0] ------- [1:0 0:0 32 0] 
r 0.413036179 _1_ RTR  --- 3 ping 64 [0.00 0 0] ------- [1:0 0:0 32 0] 
s 0.413036179 _1_ RTR  --- 3 ping 64 [0.00 0 0] ------- [1:0 0:0 32 0] 
s 0.422012647 _3_ MAC  --- 0 CTS 10 [0.06 2 3] 
s 0.433013308 _2_ MAC  --- 2 ping 64 [0.01 3 2] ------- [2:0 3:0 32 0] 
s 0.465010707 _1_ MAC  --- 0 RTS 10 [0.07 0 1] 
s 0.476010943 _0_ MAC  --- 0 CTS 10 [0.06 1 0] 
s 0.476013970 _3_ MAC  --- 0 ACK 10 [0.00 2 3] 
r 0.476013970 _3_ MAC  --- 2 ping 64 [0.01 3 2] ------- [2:0 3:0 32 0] 
r 0.476038970 _3_ AGT  --- 2 ping 64 [0.01 3 2] ------- [2:0 3:0 32 0] 
s 0.487011179 _1_ MAC  --- 3 ping 64 [0.01 0 1] ------- [1:0 0:0 32 0] 
s 0.530011414 _0_ MAC  --- 0 ACK 10 [0.00 1 0] 
r 0.530011414 _0_ MAC  --- 3 ping 64 [0.01 0 1] ------- [1:0 0:0 32 0] 
r 0.530036414 _0_ AGT  --- 3 ping 64 [0.01 0 1] ------- [1:0 0:0 32 0] 
