s 0.100000000 _0_ AGT  --- 0 ping 64 [0.00 0 0] ------- [0:0 1:0 32 0] 
r 0.100000000 _0_ RTR  --- 0 ping 64 [0.00 0 0] ------- [0:0 1:0 32 0] 
s 0.100000000 _0_ RTR  --- 0 ping 64 [0.00 0 0] ------- [0:0 1:0 32 0] 
s 0.100000000 _1_ AGT  --- 1 ping 64 [0.00 0 0] ------- [1:1 2:0 32 0] 
r 0.100000000 _1_ RTR  --- 1 ping 64 [0.00 0 0] ------- [1:1 2:0 32 0] 
s 0.100000000 _1_ RTR  --- 1 ping 64 [0.00 0 0] ------- [1:1 2:0 32 0] 
s 0.100000000 _2_ AGT  --- 2 ping 64 [0.00 0 0] ------- [2:1 0:1 32 0] 
r 0.100000000 _2_ RTR  --- 2 ping 64 [0.00 0 0] ------- [2:1 0:1 32 0] 
s 0.100000000 _2_ RTR  --- 2 ping 64 [0.00 0 0] ------- [2:1 0:1 32 0] 
s 0.121005000 _0_ MAC  --- 0 ARP 28 [0.00 -1 0] ------- [REQUEST 0/0 0/1]
r 0.164005471 _1_ MAC  --- 0 ARP 28 [0.00 -1 0] ------- [REQUEST 0/0 0/1]
r 0.164005667 _2_ MAC  --- 0 ARP 28 [0.00 -1 0] ------- [REQUEST 0/0 0/1]
s 0.186005471 _1_ MAC  --- 0 ARP 28 [0.00 -1 1] ------- [REQUEST 1/1 0/2]
r 0.229005943 _0_ MAC  --- 0 ARP 28 [0.00 -1 1] ------- [REQUEST 1/1 0/2]
r 0.229005943 _2_ MAC  --- 0 ARP 28 [0.00 -1 1] ------- [REQUEST 1/1 0/2]
s 0.243005943 _2_ MAC  --- 0 ARP 28 [0.00 -1 2] ------- [REQUEST 2/2 0/0]
r 0.286006414 _1_ MAC  --- 0 ARP 28 [0.00 -1 2] ------- [REQUEST 2/2 0/0]
r 0.286006609 _0_ MAC  --- 0 ARP 28 [0.00 -1 2] ------- [REQUEST 2/2 0/0]
s 0.344005943 _2_ MAC  --- 0 RTS 10 [0.07 0 2] 
s 0.355006609 _0_ MAC  --- 0 CTS 10 [0.06 2 0] 
s 0.366007276 _2_ MAC  --- 2 ping 64 [0.01 0 2] ------- [2:1 0:1 32 0] 
s 0.409007943 _0_ MAC  --- 0 ACK 10 [0.00 2 0] 
r 0.409007943 _0_ MAC  --- 2 ping 64 [0.01 0 2] ------- [2:1 0:1 32 0] 
r 0.409032943 _0_ AGT  --- 2 ping 64 [0.01 0 2] ------- [2:1 0:1 32 0] 
s 0.409032943 _0_ AGT  --- 3 ping 64 [0.00 0 0] ------- [0:1 2:1 32 0] 
r 0.409032943 _0_ RTR  --- 3 ping 64 [0.00 0 0] ------- [0:1 2:1 32 0] 
s 0.409032943 _0_ RTR  --- 3 ping 64 [0.00 0 0] ------- [0:1 2:1 32 0] 
s 0.454006609 _0_ MAC  --- 0 RTS 10 [0.07 1 0] 
s 0.465007081 _1_ MAC  --- 0 CTS 10 [0.06 0 1] 
s 0.476007552 _0_ MAC  --- 0 ping 64 [0.01 1 0] ------- [0:0 1:0 32 0] 
s 0.519008024 _1_ MAC  --- 0 ACK 10 [0.00 0 1] 
r 0.519008024 _1_ MAC  --- 0 ping 64 [0.01 1 0] ------- [0:0 1:0 32 0] 
r 0.519033024 _1_ AGT  --- 0 ping 64 [0.01 1 0] ------- [0:0 1:0 32 0] 
s 0.519033024 _1_ AGT  --- 4 ping 64 [0.00 0 0] ------- [1:0 0:0 32 0] 
r 0.519033024 _1_ RTR  --- 4 ping 64 [0.00 0 0] ------- [1:0 0:0 32 0] 
s 0.519033024 _1_ RTR  --- 4 ping 64 [0.00 0 0] ------- [1:0 0:0 32 0] 
s 0.550007552 _2_ MAC  --- 0 RTS 10 [0.07 1 2] 
s 0.561008024 _1_ MAC  --- 0 CTS 10 [0.06 2 1] 
s 0.572008495 _2_ MAC  --- 0 ARP 28 [0.01 1 2] ------- [REPLY 2/2 1/1]
s 0.615008966 _1_ MAC  --- 0 ACK 10 [0.00 2 1] 
r 0.615008966 _1_ MAC  --- 0 ARP 28 [0.01 1 2] ------- [REPLY 2/2 1/1]
s 0.639008495 _0_ MAC  --- 0 RTS 10 [0.07 2 0] 
s 0.650009162 _2_ MAC  --- 0 CTS 10 [0.06 0 2] 
s 0.661009828 _0_ MAC  --- 0 ARP 28 [0.01 2 0] ------- [REPLY 0/0 2/2]
s 0.704010495 _2_ MAC  --- 0 ACK 10 [0.00 0 2] 
r 0.704010495 _2_ MAC  --- 0 ARP 28 [0.01 2 0] ------- [REPLY 0/0 2/2]
s 0.730011162 _0_ MAC  --- 0 RTS 10 [0.07 2 0] 
s 0.741011828 _2_ MAC  --- 0 CTS 10 [0.06 0 2] 
s 0.752012495 _0_ MAC  --- 3 ping 64 [0.01 2 0] ------- [0:1 2:1 32 0] 
s 0.795013162 _2_ MAC  --- 0 ACK 10 [0.00 0 2] 
r 0.795013162 _2_ MAC  --- 3 ping 64 [0.01 2 0] ------- [0:1 2:1 32 0] 
r 0.795038162 _2_ AGT  --- 3 ping 64 [0.01 2 0] ------- [0:1 2:1 32 0] 
s 0.879012300 _1_ MAC  --- 0 RTS 10 [0.07 0 1] 
s 0.890012771 _0_ MAC  --- 0 CTS 10 [0.06 1 0] 
s 0.901013243 _1_ MAC  --- 0 ARP 28 [0.01 0 1] ------- [REPLY 1/1 0/0]
s 0.944013714 _0_ MAC  --- 0 ACK 10 [0.00 1 0] 
r 0.944013714 _0_ MAC  --- 0 ARP 28 [0.01 0 1] ------- [REPLY 1/1 0/0]
s 1.012014185 _1_ MAC  --- 0 RTS 10 [0.07 2 1] 
s 1.023014657 _2_ MAC  --- 0 CTS 10 [0.06 1 2] 
s 1.034015128 _1_ MAC  --- 1 ping 64 [0.01 2 1] ------- [1:1 2:0 32 0] 
s 1.077015600 _2_ MAC  --- 0 ACK 10 [0.00 1 2] 
r 1.077015600 _2_ MAC  --- 1 ping 64 [0.01 2 1] ------- [1:1 2:0 32 0] 
r 1.077040600 _2_ AGT  --- 1 ping 64 [0.01 2 1] ------- [1:1 2:0 32 0] 
s 1.077040600 _2_ AGT  --- 5 ping 64 [0.00 0 0] ------- [2:0 1:1 32 0] 
r 1.077040600 _2_ RTR  --- 5 ping 64 [0.00 0 0] ------- [2:0 1:1 32 0] 
s 1.077040600 _2_ RTR  --- 5 ping 64 [0.00 0 0] ------- [2:0 1:1 32 0] 
s 1.115014657 _2_ MAC  --- 0 RTS 10 [0.07 1 2] 
s 1.126015128 _1_ MAC  --- 0 CTS 10 [0.06 2 1] 
s 1.137015600 _2_ MAC  --- 5 ping 64 [0.01 1 2] ------- [2:0 1:1 32 0] 
s 1.180016071 _1_ MAC  --- 0 ACK 10 [0.00 2 1] 
r 1.180016071 _1_ MAC  --- 5 ping 64 [0.01 1 2] ------- [2:0 1:1 32 0] 
r 1.180041071 _1_ AGT  --- 5 ping 64 [0.01 1 2] ------- [2:0 1:1 32 0] 
s 1.234015128 _1_ MAC  --- 0 RTS 10 [0.07 0 1] 
s 1.245015600 _0_ MAC  --- 0 CTS 10 [0.06 1 0] 
s 1.256016071 _1_ MAC  --- 4 ping 64 [0.01 0 1] ------- [1:0 0:0 32 0] 
s 1.299016542 _0_ MAC  --- 0 ACK 10 [0.00 1 0] 
r 1.299016542 _0_ MAC  --- 4 ping 64 [0.01 0 1] ------- [1:0 0:0 32 0] 
r 1.299041542 _0_ AGT  --- 4 ping 64 [0.01 0 1] ------- [1:0 0:0 32 0] 
