s 17.208000000 _1_ MAC  --- 0 SYNC 9 [0.13 1 1] 
s 17.221000000 _3_ MAC  --- 0 SYNC 9 [0.12 3 3] 
s 18.639000662 _2_ MAC  --- 0 SYNC 9 [0.13 2 3] 
s 18.655000236 _0_ MAC  --- 0 SYNC 9 [0.11 0 1] 
s 20.080000471 _1_ MAC  --- 0 SYNC 9 [0.12 1 0] 
s 20.082001323 _3_ MAC  --- 0 SYNC 9 [0.12 3 2] 
s 32.981000707 _0_ MAC  --- 0 SYNC 9 [0.12 0 1] 
s 32.987001985 _2_ MAC  --- 0 SYNC 9 [0.11 2 3] 
s 34.414002647 _3_ MAC  --- 0 SYNC 9 [0.12 3 2] 
s 34.415000943 _1_ MAC  --- 0 SYNC 9 [0.12 1 0] 
s 40.100000000 _0_ AGT  --- 0 ping 64 [0.00 0 0] ------- [0:0 1:0 32 0] 
r 40.100000000 _0_ RTR  --- 0 ping 64 [0.00 0 0] ------- [0:0 1:0 32 0] 
s 40.100000000 _0_ RTR  --- 0 ping 64 [0.00 0 0] ------- [0:0 1:0 32 0] 
s 40.100000000 _3_ AGT  --- 1 ping 64 [0.00 0 0] ------- [3:0 2:0 32 0] 
r 40.100000000 _3_ RTR  --- 1 ping 64 [0.00 0 0] ------- [3:0 2:0 32 0] 
s 40.100000000 _3_ RTR  --- 1 ping 64 [0.00 0 0] ------- [3:0 2:0 32 0] 
s 40.212201179 _0_ MAC  --- 0 ARP 28 [0.00 -1 0] ------- [REQUEST 0/0 0/1]
s 40.244202647 _3_ MAC  --- 0 ARP 28 [0.00 -1 3] ------- [REQUEST 3/3 0/2]
r 40.255201414 _1_ MAC  --- 0 ARP 28 [0.00 -1 0] ------- [REQUEST 0/0 0/1]
r 40.287203308 _2_ MAC  --- 0 ARP 28 [0.00 -1 3] ------- [REQUEST 3/3 0/2]
s 41.634200943 _1_ MAC  --- 0 RTS 10 [0.07 0 1] 
s 41.645201179 _0_ MAC  --- 0 CTS 10 [0.06 1 0] 
s 41.656201414 _1_ MAC  --- 0 ARP 28 [0.01 0 1] ------- [REPLY 1/1 0/0]
s 41.656203308 _2_ MAC  --- 0 RTS 10 [0.07 3 2] 
s 41.667203970 _3_ MAC  --- 0 CTS 10 [0.06 2 3] 
s 41.678204632 _2_ MAC  --- 0 ARP 28 [0.01 3 2] ------- [REPLY 2/2 3/3]
s 41.699201650 _0_ MAC  --- 0 ACK 10 [0.00 1 0] 
r 41.699201650 _0_ MAC  --- 0 ARP 28 [0.01 0 1] ------- [REPLY 1/1 0/0]
s 41.721205293 _3_ MAC  --- 0 ACK 10 [0.00 2 3] 
r 41.721205293 _3_ MAC  --- 0 ARP 28 [0.01 3 2] ------- [REPLY 2/2 3/3]
s 43.064201179 _0_ MAC  --- 0 RTS 10 [0.07 1 0] 
s 43.075201414 _1_ MAC  --- 0 CTS 10 [0.06 0 1] 
s 43.086201650 _0_ MAC  --- 0 ping 64 [0.01 1 0] ------- [0:0 1:0 32 0] 
s 43.116202647 _3_ MAC  --- 0 RTS 10 [0.07 2 3] 
s 43.127203308 _2_ MAC  --- 0 CTS 10 [0.06 3 2] 
s 43.129201886 _1_ MAC  --- 0 ACK 10 [0.00 0 1] 
r 43.129201886 _1_ MAC  --- 0 ping 64 [0.01 1 0] ------- [0:0 1:0 32 0] 
r 43.129226886 _1_ AGT  --- 0 ping 64 [0.01 1 0] ------- [0:0 1:0 32 0] 
s 43.129226886 _1_ AGT  --- 2 ping 64 [0.00 0 0] ------- [1:0 0:0 32 0] 
r 43.129226886 _1_ RTR  --- 2 ping 64 [0.00 0 0] ------- [1:0 0:0 32 0] 
s 43.129226886 _1_ RTR  --- 2 ping 64 [0.00 0 0] ------- [1:0 0:0 32 0] 
s 43.138203970 _3_ MAC  --- 1 ping 64 [0.01 2 3] ------- [3:0 2:0 32 0] 
s 43.181204632 _2_ MAC  --- 0 ACK 10 [0.00 3 2] 
r 43.181204632 _2_ MAC  --- 1 ping 64 [0.01 2 3] ------- [3:0 2:0 32 0] 
r 43.181229632 _2_ AGT  --- 1 ping 64 [0.01 2 3] ------- [3:0 2:0 32 0] 
s 43.181229632 _2_ AGT  --- 3 ping 64 [0.00 0 0] ------- [2:0 3:0 32 0] 
r 43.181229632 _2_ RTR  --- 3 ping 64 [0.00 0 0] ------- [2:0 3:0 32 0] 
s 43.181229632 _2_ RTR  --- 3 ping 64 [0.00 0 0] ------- [2:0 3:0 32 0] 
s 44.490200943 _1_ MAC  --- 0 RTS 10 [0.07 0 1] 
s 44.493203308 _2_ MAC  --- 0 RTS 10 [0.07 3 2] 
s 44.501201179 _0_ MAC  --- 0 CTS 10 [0.06 1 0] 
s 44.504203970 _3_ MAC  --- 0 CTS 10 [0.06 2 3] 
s 44.512201414 _1_ MAC  --- 2 ping 64 [0.01 0 1] ------- [1:0 0:0 32 0] 
s 44.515204632 _2_ MAC  --- 3 ping 64 [0.01 3 2] ------- [2:0 3:0 32 0] 
s 44.555201650 _0_ MAC  --- 0 ACK 10 [0.00 1 0] 
r 44.555201650 _0_ MAC  --- 2 ping 64 [0.01 0 1] ------- [1:0 0:0 32 0] 
r 44.555226650 _0_ AGT  --- 2 ping 64 [0.01 0 1] ------- [1:0 0:0 32 0] 
s 44.558205293 _3_ MAC  --- 0 ACK 10 [0.00 2 3] 
r 44.558205293 _3_ MAC  --- 3 ping 64 [0.01 3 2] ------- [2:0 3:0 32 0] 
r 44.558230293 _3_ AGT  --- 3 ping 64 [0.01 3 2] ------- [2:0 3:0 32 0] 
s 47.309003308 _2_ MAC  --- 0 SYNC 9 [0.12 2 3] 
s 47.315001179 _0_ MAC  --- 0 SYNC 9 [0.11 0 1] 
s 48.733003970 _3_ MAC  --- 0 SYNC 9 [0.13 3 2] 
s 48.743001414 _1_ MAC  --- 0 SYNC 9 [0.12 1 0] 
s 61.641001650 _0_ MAC  --- 0 SYNC 9 [0.12 0 1] 
s 61.651004632 _2_ MAC  --- 0 SYNC 9 [0.11 2 3] 
s 63.071001886 _1_ MAC  --- 0 SYNC 9 [0.12 1 0] 
s 63.091005293 _3_ MAC  --- 0 SYNC 9 [0.10 3 2] 
s 75.979002121 _0_ MAC  --- 0 SYNC 9 [0.11 0 1] 
s 75.986005955 _2_ MAC  --- 0 SYNC 9 [0.10 2 3] 
s 77.394006616 _3_ MAC  --- 0 SYNC 9 [0.13 3 2] 
s 77.410002357 _1_ MAC  --- 0 SYNC 9 [0.11 1 0] 
s 90.304002593 _0_ MAC  --- 0 SYNC 9 [0.12 0 1] 
s 90.307007278 _2_ MAC  --- 0 SYNC 9 [0.11 2 3] 
s 91.726007940 _3_ MAC  --- 0 SYNC 9 [0.13 3 2] 
s 91.729002828 _1_ MAC  --- 0 SYNC 9 [0.12 1 0] 
