s 17.208000000 _1_ MAC  --- 0 SYNC 9 [0.13 1 1] 
s 18.654000500 _0_ MAC  --- 0 SYNC 9 [0.12 0 1] 
s 20.072000768 _2_ MAC  --- 0 SYNC 9 [0.13 2 1] 
s 21.515001000 _1_ MAC  --- 0 SYNC 9 [0.12 1 0] 
s 32.981001500 _0_ MAC  --- 0 SYNC 9 [0.12 0 1] 
s 34.420002321 _2_ MAC  --- 0 SYNC 9 [0.11 2 1] 
s 35.848003089 _1_ MAC  --- 0 SYNC 9 [0.12 1 0] 
s 40.100000000 _0_ AGT  --- 0 ping 64 [0.00 0 0] ------- [0:0 1:0 32 0] 
r 40.100000000 _0_ RTR  --- 0 ping 64 [0.00 0 0] ------- [0:0 1:0 32 0] 
s 40.100000000 _0_ RTR  --- 0 ping 64 [0.00 0 0] ------- [0:0 1:0 32 0] 
s 40.200000000 _2_ AGT  --- 1 ping 64 [0.00 0 0] ------- [2:0 -1:0 32 0] 
r 40.200000000 _2_ RTR  --- 1 ping 64 [0.00 0 0] ------- [2:0 -1:0 32 0] 
s 40.200000000 _2_ RTR  --- 1 ping 64 [0.00 0 0] ------- [2:0 -1:0 32 0] 
s 40.223203589 _0_ MAC  --- 0 ARP 28 [0.00 -1 0] ------- [REQUEST 0/0 0/1]
r 40.266204089 _1_ MAC  --- 0 ARP 28 [0.00 -1 0] ------- [REQUEST 0/0 0/1]
r 40.266204410 _2_ MAC  --- 0 ARP 28 [0.00 -1 0] ------- [REQUEST 0/0 0/1]
s 41.645203089 _1_ MAC  --- 0 RTS 10 [0.07 0 1] 
s 41.656203589 _0_ MAC  --- 0 CTS 10 [0.06 1 0] 
s 41.667204089 _1_ MAC  --- 0 ARP 28 [0.01 0 1] ------- [REPLY 1/1 0/0]
s 41.710204589 _0_ MAC  --- 0 ACK 10 [0.00 1 0] 
r 41.710204589 _0_ MAC  --- 0 ARP 28 [0.01 0 1] ------- [REPLY 1/1 0/0]
s 43.067203589 _0_ MAC  --- 0 RTS 10 [0.07 1 0] 
s 43.078204089 _1_ MAC  --- 0 CTS 10 [0.06 0 1] 
s 43.089204589 _0_ MAC  --- 0 ping 64 [0.01 1 0] ------- [0:0 1:0 32 0] 
s 43.132205089 _1_ MAC  --- 0 ACK 10 [0.00 0 1] 
r 43.132205089 _1_ MAC  --- 0 ping 64 [0.01 1 0] ------- [0:0 1:0 32 0] 
r 43.132230089 _1_ AGT  --- 0 ping 64 [0.01 1 0] ------- [0:0 1:0 32 0] 
s 43.132230089 _1_ AGT  --- 2 ping 64 [0.00 0 0] ------- [1:0 0:0 32 0] 
r 43.132230089 _1_ RTR  --- 2 ping 64 [0.00 0 0] ------- [1:0 0:0 32 0] 
s 43.132230089 _1_ RTR  --- 2 ping 64 [0.00 0 0] ------- [1:0 0:0 32 0] 
s 44.497203089 _1_ MAC  --- 0 RTS 10 [0.07 0 1] 
s 44.508203589 _0_ MAC  --- 0 CTS 10 [0.06 1 0] 
s 44.519204089 _1_ MAC  --- 2 ping 64 [0.01 0 1] ------- [1:0 0:0 32 0] 
s 44.562204589 _0_ MAC  --- 0 ACK 10 [0.00 1 0] 
r 44.562204589 _0_ MAC  --- 2 ping 64 [0.01 0 1] ------- [1:0 0:0 32 0] 
r 44.562229589 _0_ AGT  --- 2 ping 64 [0.01 0 1] ------- [1:0 0:0 32 0] 
s 45.923203857 _2_ MAC  --- 1 ping 64 [0.00 -1 2] ------- [2:0 -1:0 32 0] 
r 45.966204626 _1_ MAC  --- 1 ping 64 [0.00 -1 2] ------- [2:0 -1:0 32 0] 
r 45.966204678 _0_ MAC  --- 1 ping 64 [0.00 -1 2] ------- [2:0 -1:0 32 0] 
r 45.966229626 _1_ RTR  --- 1 ping 64 [0.00 -1 2] ------- [2:0 -1:0 32 0] 
r 45.966229626 _1_ AGT  --- 1 ping 64 [0.00 -1 2] ------- [2:0 -1:0 32 0] 
s 45.966229626 _1_ AGT  --- 3 ping 64 [0.00 0 0] ------- [1:0 -1:0 32 0] 
r 45.966229626 _1_ RTR  --- 3 ping 64 [0.00 0 0] ------- [1:0 -1:0 32 0] 
s 45.966229626 _1_ RTR  --- 3 ping 64 [0.00 0 0] ------- [1:0 -1:0 32 0] 
r 45.966229678 _0_ RTR  --- 1 ping 64 [0.00 -1 2] ------- [2:0 -1:0 32 0] 
r 45.966229678 _0_ AGT  --- 1 ping 64 [0.00 -1 2] ------- [2:0 -1:0 32 0] 
s 45.966229678 _0_ AGT  --- 4 ping 64 [0.00 0 0] ------- [0:0 -1:0 32 0] 
r 45.966229678 _0_ RTR  --- 4 ping 64 [0.00 0 0] ------- [0:0 -1:0 32 0] 
s 45.966229678 _0_ RTR  --- 4 ping 64 [0.00 0 0] ------- [0:0 -1:0 32 0] 
s 47.316003589 _0_ MAC  --- 0 SYNC 9 [0.11 0 1] 
s 47.368203589 _0_ MAC  --- 4 ping 64 [0.00 -1 0] ------- [0:0 -1:0 32 0] 
r 47.411204089 _1_ MAC  --- 4 ping 64 [0.00 -1 0] ------- [0:0 -1:0 32 0] 
r 47.411204410 _2_ MAC  --- 4 ping 64 [0.00 -1 0] ------- [0:0 -1:0 32 0] 
r 47.411229089 _1_ RTR  --- 4 ping 64 [0.00 -1 0] ------- [0:0 -1:0 32 0] 
r 47.411229089 _1_ AGT  --- 4 ping 64 [0.00 -1 0] ------- [0:0 -1:0 32 0] 
r 47.411229410 _2_ RTR  --- 4 ping 64 [0.00 -1 0] ------- [0:0 -1:0 32 0] 
r 47.411229410 _2_ AGT  --- 4 ping 64 [0.00 -1 0] ------- [0:0 -1:0 32 0] 
s 48.743004410 _2_ MAC  --- 0 SYNC 9 [0.12 2 1] 
s 48.838205178 _1_ MAC  --- 3 ping 64 [0.00 -1 1] ------- [1:0 -1:0 32 0] 
r 48.881205678 _0_ MAC  --- 3 ping 64 [0.00 -1 1] ------- [1:0 -1:0 32 0] 
r 48.881205946 _2_ MAC  --- 3 ping 64 [0.00 -1 1] ------- [1:0 -1:0 32 0] 
r 48.881230678 _0_ RTR  --- 3 ping 64 [0.00 -1 1] ------- [1:0 -1:0 32 0] 
r 48.881230678 _0_ AGT  --- 3 ping 64 [0.00 -1 1] ------- [1:0 -1:0 32 0] 
r 48.881230946 _2_ RTR  --- 3 ping 64 [0.00 -1 1] ------- [1:0 -1:0 32 0] 
r 48.881230946 _2_ AGT  --- 3 ping 64 [0.00 -1 1] ------- [1:0 -1:0 32 0] 
s 50.177005178 _1_ MAC  --- 0 SYNC 9 [0.12 1 0] 
s 61.651005678 _0_ MAC  --- 0 SYNC 9 [0.11 0 1] 
s 63.071006499 _2_ MAC  --- 0 SYNC 9 [0.12 2 1] 
s 64.524007267 _1_ MAC  --- 0 SYNC 9 [0.10 1 0] 
s 75.979007767 _0_ MAC  --- 0 SYNC 9 [0.11 0 1] 
s 77.419008588 _2_ MAC  --- 0 SYNC 9 [0.10 2 1] 
s 78.843009356 _1_ MAC  --- 0 SYNC 9 [0.11 1 0] 
s 90.291009856 _0_ MAC  --- 0 SYNC 9 [0.13 0 1] 
s 91.737010677 _2_ MAC  --- 0 SYNC 9 [0.12 2 1] 
s 93.173011445 _1_ MAC  --- 0 SYNC 9 [0.11 1 0] 
