s 17.208000000 _1_ MAC  --- 0 SYNC 9 [0.13 1 1] 
s 17.221000000 _3_ MAC  --- 0 SYNC 9 [0.12 3 3] 
D 17.224000707 _2_ MAC  SLP 0 SYNC 9 [0.12 3 3] 
s 18.639000707 _0_ MAC  --- 0 SYNC 9 [0.13 0 1] 
s 20.080001414 _1_ MAC  --- 0 SYNC 9 [0.12 1 0] 
s 21.517001414 _2_ MAC  --- 0 SYNC 9 [0.12 2 0] 
s 22.956002121 _3_ MAC  --- 0 SYNC 9 [0.11 3 2] 
s 32.982002121 _0_ MAC  --- 0 SYNC 9 [0.12 0 1] 
s 34.414002828 _1_ MAC  --- 0 SYNC 9 [0.12 1 0] 
s 35.837002828 _2_ MAC  --- 0 SYNC 9 [0.13 2 0] 
s 37.295003536 _3_ MAC  --- 0 SYNC 9 [0.10 3 2] 
s 40.100000000 _0_ AGT  --- 0 ping 64 [0.00 0 0] ------- [0:0 1:0 32 0] 
r 40.100000000 _0_ RTR  --- 0 ping 64 [0.00 0 0] ------- [0:0 1:0 32 0] 
s 40.100000000 _0_ RTR  --- 0 ping 64 [0.00 0 0] ------- [0:0 1:0 32 0] 
s 40.100000000 _3_ AGT  --- 1 ping 64 [0.00 0 0] ------- [3:0 2:0 32 0] 
r 40.100000000 _3_ RTR  --- 1 ping 64 [0.00 0 0] ------- [3:0 2:0 32 0] 
s 40.100000000 _3_ RTR  --- 1 ping 64 [0.00 0 0] ------- [3:0 2:0 32 0] 
s 40.201203536 _0_ MAC  --- 0 ARP 28 [0.00 -1 0] ------- [REQUEST 0/0 0/1]
r 40.244204243 _1_ MAC  --- 0 ARP 28 [0.00 -1 0] ------- [REQUEST 0/0 0/1]
r 40.244204243 _2_ MAC  --- 0 ARP 28 [0.00 -1 0] ------- [REQUEST 0/0 0/1]
s 41.631202828 _1_ MAC  --- 0 RTS 10 [0.07 0 1] 
s 41.642203536 _0_ MAC  --- 0 CTS 10 [0.06 1 0] 
s 41.653204243 _1_ MAC  --- 0 ARP 28 [0.01 0 1] ------- [REPLY 1/1 0/0]
s 41.696204950 _0_ MAC  --- 0 ACK 10 [0.00 1 0] 
r 41.696204950 _0_ MAC  --- 0 ARP 28 [0.01 0 1] ------- [REPLY 1/1 0/0]
s 43.057203536 _0_ MAC  --- 0 RTS 10 [0.07 1 0] 
s 43.068204243 _1_ MAC  --- 0 CTS 10 [0.06 0 1] 
s 43.079204950 _0_ MAC  --- 0 ping 64 [0.01 1 0] ------- [0:0 1:0 32 0] 
s 43.122205657 _1_ MAC  --- 0 ACK 10 [0.00 0 1] 
r 43.122205657 _1_ MAC  --- 0 ping 64 [0.01 1 0] ------- [0:0 1:0 32 0] 
r 43.122230657 _1_ AGT  --- 0 ping 64 [0.01 1 0] ------- [0:0 1:0 32 0] 
s 43.122230657 _1_ AGT  --- 2 ping 64 [0.00 0 0] ------- [1:0 0:0 32 0] 
r 43.122230657 _1_ RTR  --- 2 ping 64 [0.00 0 0] ------- [1:0 0:0 32 0] 
s 43.122230657 _1_ RTR  --- 2 ping 64 [0.00 0 0] ------- [1:0 0:0 32 0] 
s 44.502202828 _1_ MAC  --- 0 RTS 10 [0.07 0 1] 
s 44.513203536 _0_ MAC  --- 0 CTS 10 [0.06 1 0] 
s 44.524204243 _1_ MAC  --- 2 ping 64 [0.01 0 1] ------- [1:0 0:0 32 0] 
s 44.567204950 _0_ MAC  --- 0 ACK 10 [0.00 1 0] 
r 44.567204950 _0_ MAC  --- 2 ping 64 [0.01 0 1] ------- [1:0 0:0 32 0] 
r 44.567229950 _0_ AGT  --- 2 ping 64 [0.01 0 1] ------- [1:0 0:0 32 0] 
s 45.968203536 _3_ MAC  --- 0 ARP 28 [0.00 -1 3] ------- [REQUEST 3/3 0/2]
r 46.011204243 _2_ MAC  --- 0 ARP 28 [0.00 -1 3] ------- [REQUEST 3/3 0/2]
s 47.300003536 _0_ MAC  --- 0 SYNC 9 [0.13 0 1] 
s 47.370204243 _2_ MAC  --- 0 RTS 10 [0.07 3 2] 
s 47.381204950 _3_ MAC  --- 0 CTS 10 [0.06 2 3] 
s 47.392205657 _2_ MAC  --- 0 ARP 28 [0.01 3 2] ------- [REPLY 2/2 3/3]
s 47.435206364 _3_ MAC  --- 0 ACK 10 [0.00 2 3] 
r 47.435206364 _3_ MAC  --- 0 ARP 28 [0.01 3 2] ------- [REPLY 2/2 3/3]
s 48.754004243 _1_ MAC  --- 0 SYNC 9 [0.11 1 0] 
s 48.792203536 _3_ MAC  --- 0 RTS 10 [0.07 2 3] 
s 50.194004243 _2_ MAC  --- 0 SYNC 9 [0.10 2 0] 
s 50.282204950 _3_ MAC  --- 0 RTS 10 [0.07 2 3] 
s 50.293205657 _2_ MAC  --- 0 CTS 10 [0.06 3 2] 
s 50.304206364 _3_ MAC  --- 1 ping 64 [0.01 2 3] ------- [3:0 2:0 32 0] 
s 50.347207071 _2_ MAC  --- 0 ACK 10 [0.00 3 2] 
r 50.347207071 _2_ MAC  --- 1 ping 64 [0.01 2 3] ------- [3:0 2:0 32 0] 
r 50.347232071 _2_ AGT  --- 1 ping 64 [0.01 2 3] ------- [3:0 2:0 32 0] 
s 50.347232071 _2_ AGT  --- 3 ping 64 [0.00 0 0] ------- [2:0 3:0 32 0] 
r 50.347232071 _2_ RTR  --- 3 ping 64 [0.00 0 0] ------- [2:0 3:0 32 0] 
s 50.347232071 _2_ RTR  --- 3 ping 64 [0.00 0 0] ------- [2:0 3:0 32 0] 
s 51.625004950 _3_ MAC  --- 0 SYNC 9 [0.10 3 2] 
s 51.660205657 _2_ MAC  --- 0 RTS 10 [0.07 3 2] 
s 51.671206364 _3_ MAC  --- 0 CTS 10 [0.06 2 3] 
s 51.682207071 _2_ MAC  --- 3 ping 64 [0.01 3 2] ------- [2:0 3:0 32 0] 
s 51.725207778 _3_ MAC  --- 0 ACK 10 [0.00 2 3] 
r 51.725207778 _3_ MAC  --- 3 ping 64 [0.01 3 2] ------- [2:0 3:0 32 0] 
r 51.725232778 _3_ AGT  --- 3 ping 64 [0.01 3 2] ------- [2:0 3:0 32 0] 
s 61.631004950 _0_ MAC  --- 0 SYNC 9 [0.13 0 1] 
s 63.077005657 _1_ MAC  --- 0 SYNC 9 [0.12 1 0] 
s 64.513005657 _2_ MAC  --- 0 SYNC 9 [0.11 2 0] 
s 65.935006364 _3_ MAC  --- 0 SYNC 9 [0.12 3 2] 
s 75.963006364 _0_ MAC  --- 0 SYNC 9 [0.13 0 1] 
s 77.406007071 _1_ MAC  --- 0 SYNC 9 [0.12 1 0] 
s 78.835007071 _2_ MAC  --- 0 SYNC 9 [0.12 2 0] 
s 80.263007778 _3_ MAC  --- 0 SYNC 9 [0.13 3 2] 
s 90.315007778 _0_ MAC  --- 0 SYNC 9 [0.10 0 1] 
s 91.733008485 _1_ MAC  --- 0 SYNC 9 [0.12 1 0] 
s 93.165008485 _2_ MAC  --- 0 SYNC 9 [0.12 2 0] 
s 94.617009192 _3_ MAC  --- 0 SYNC 9 [0.10 3 2] 
