s 1.000000000 _0_ AGT  --- 0 ping 64 [0.00 0 0] ------- [0:0 1:0 32 0] 
r 1.000000000 _0_ RTR  --- 0 ping 64 [0.00 0 0] ------- [0:0 1:0 32 0] 
s 1.000000000 _0_ RTR  --- 0 ping 64 [0.00 0 0] ------- [0:0 1:0 32 0] 
s 1.021005000 _0_ MAC  --- 0 ARP 28 [0.00 -1 0] ------- [REQUEST 0/0 0/1]
r 1.064005207 _1_ MAC  --- 0 ARP 28 [0.00 -1 0] ------- [REQUEST 0/0 0/1]
s 1.094010207 _1_ MAC  --- 0 RTS 10 [0.07 0 1] 
s 1.105010415 _0_ MAC  --- 0 CTS 10 [0.06 1 0] 
s 1.116010622 _1_ MAC  --- 0 ARP 28 [0.01 0 1] ------- [REPLY 1/1 0/0]
s 1.159010830 _0_ MAC  --- 0 ACK 10 [0.00 1 0] 
r 1.159010830 _0_ MAC  --- 0 ARP 28 [0.01 0 1] ------- [REPLY 1/1 0/0]
s 1.235010415 _0_ MAC  --- 0 RTS 10 [0.07 1 0] 
s 1.246010622 _1_ MAC  --- 0 CTS 10 [0.06 0 1] 
s 1.257010830 _0_ MAC  --- 0 ping 64 [0.01 1 0] ------- [0:0 1:0 32 0] 
s 1.300011037 _1_ MAC  --- 0 ACK 10 [0.00 0 1] 
r 1.300011037 _1_ MAC  --- 0 ping 64 [0.01 1 0] ------- [0:0 1:0 32 0] 
r 1.300036037 _1_ AGT  --- 0 ping 64 [0.01 1 0] ------- [0:0 1:0 32 0] 
s 1.300036037 _1_ AGT  --- 1 ping 64 [0.00 0 0] ------- [1:0 0:0 32 0] 
r 1.300036037 _1_ RTR  --- 1 ping 64 [0.00 0 0] ------- [1:0 0:0 32 0] 
s 1.300036037 _1_ RTR  --- 1 ping 64 [0.00 0 0] ------- [1:0 0:0 32 0] 
s 1.334010622 _1_ MAC  --- 0 RTS 10 [0.07 0 1] 
s 1.345010830 _0_ MAC  --- 0 CTS 10 [0.06 1 0] 
s 1.356011037 _1_ MAC  --- 1 ping 64 [0.01 0 1] ------- [1:0 0:0 32 0] 
s 1.399011245 _0_ MAC  --- 0 ACK 10 [0.00 1 0] 
r 1.399011245 _0_ MAC  --- 1 ping 64 [0.01 0 1] ------- [1:0 0:0 32 0] 
r 1.399036245 _0_ AGT  --- 1 ping 64 [0.01 0 1] ------- [1:0 0:0 32 0] 
