s 0.100000000 _0_ AGT  --- 0 ping 64 [0.00 0 0] ------- [0:0 1:0 32 0] 
r 0.100000000 _0_ RTR  --- 0 ping 64 [0.00 0 0] ------- [0:0 1:0 32 0] 
s 0.100000000 _0_ RTR  --- 0 ping 64 [0.00 0 0] ------- [0:0 1:0 32 0] 
s 0.121005000 _0_ MAC  --- 0 ARP 28 [0.00 -1 0] ------- [REQUEST 0/0 0/1]
r 0.164005707 _1_ MAC  --- 0 ARP 28 [0.00 -1 0] ------- [REQUEST 0/0 0/1]
r 0.164005801 _2_ MAC  --- 0 ARP 28 [0.00 -1 0] ------- [REQUEST 0/0 0/1]
s 0.194010707 _1_ MAC  --- 0 RTS 10 [0.07 0 1] 
s 0.200000000 _2_ AGT  --- 1 ping 64 [0.00 0 0] ------- [2:0 -1:0 32 0] 
r 0.200000000 _2_ RTR  --- 1 ping 64 [0.00 0 0] ------- [2:0 -1:0 32 0] 
s 0.200000000 _2_ RTR  --- 1 ping 64 [0.00 0 0] ------- [2:0 -1:0 32 0] 
s 0.205011414 _0_ MAC  --- 0 CTS 10 [0.06 1 0] 
s 0.216012121 _1_ MAC  --- 0 ARP 28 [0.01 0 1] ------- [REPLY 1/1 0/0]
s 0.259012828 _0_ MAC  --- 0 ACK 10 [0.00 1 0] 
r 0.259012828 _0_ MAC  --- 0 ARP 28 [0.01 0 1] ------- [REPLY 1/1 0/0]
s 0.335011414 _0_ MAC  --- 0 RTS 10 [0.07 1 0] 
s 0.346012121 _1_ MAC  --- 0 CTS 10 [0.06 0 1] 
s 0.357012828 _0_ MAC  --- 0 ping 64 [0.01 1 0] ------- [0:0 1:0 32 0] 
s 0.400013536 _1_ MAC  --- 0 ACK 10 [0.00 0 1] 
r 0.400013536 _1_ MAC  --- 0 ping 64 [0.01 1 0] ------- [0:0 1:0 32 0] 
r 0.400038536 _1_ AGT  --- 0 ping 64 [0.01 1 0] ------- [0:0 1:0 32 0] 
s 0.400038536 _1_ AGT  --- 2 ping 64 [0.00 0 0] ------- [1:0 0:0 32 0] 
r 0.400038536 _1_ RTR  --- 2 ping 64 [0.00 0 0] ------- [1:0 0:0 32 0] 
s 0.400038536 _1_ RTR  --- 2 ping 64 [0.00 0 0] ------- [1:0 0:0 32 0] 
s 0.460012121 _1_ MAC  --- 0 RTS 10 [0.07 0 1] 
s 0.471012828 _0_ MAC  --- 0 CTS 10 [0.06 1 0] 
s 0.482013536 _1_ MAC  --- 2 ping 64 [0.01 0 1] ------- [1:0 0:0 32 0] 
s 0.525014243 _0_ MAC  --- 0 ACK 10 [0.00 1 0] 
r 0.525014243 _0_ MAC  --- 2 ping 64 [0.01 0 1] ------- [1:0 0:0 32 0] 
r 0.525039243 _0_ AGT  --- 2 ping 64 [0.01 0 1] ------- [1:0 0:0 32 0] 
s 0.580013630 _2_ MAC  --- 1 ping 64 [0.00 -1 2] ------- [2:0 -1:0 32 0] 
r 0.623014431 _0_ MAC  --- 1 ping 64 [0.00 -1 2] ------- [2:0 -1:0 32 0] 
r 0.623039431 _0_ RTR  --- 1 ping 64 [0.00 -1 2] ------- [2:0 -1:0 32 0] 
r 0.623039431 _0_ AGT  --- 1 ping 64 [0.00 -1 2] ------- [2:0 -1:0 32 0] 
s 0.623039431 _0_ AGT  --- 3 ping 64 [0.00 0 0] ------- [0:0 -1:0 32 0] 
r 0.623039431 _0_ RTR  --- 3 ping 64 [0.00 0 0] ------- [0:0 -1:0 32 0] 
s 0.623039431 _0_ RTR  --- 3 ping 64 [0.00 0 0] ------- [0:0 -1:0 32 0] 
s 0.637064431 _0_ MAC  --- 3 ping 64 [0.00 -1 0] ------- [0:0 -1:0 32 0] 
r 0.680065138 _1_ MAC  --- 3 ping 64 [0.00 -1 0] ------- [0:0 -1:0 32 0] 
r 0.680065233 _2_ MAC  --- 3 ping 64 [0.00 -1 0] ------- [0:0 -1:0 32 0] 
r 0.680090138 _1_ RTR  --- 3 ping 64 [0.00 -1 0] ------- [0:0 -1:0 32 0] 
r 0.680090138 _1_ AGT  --- 3 ping 64 [0.00 -1 0] ------- [0:0 -1:0 32 0] 
r 0.680090233 _2_ RTR  --- 3 ping 64 [0.00 -1 0] ------- [0:0 -1:0 32 0] 
r 0.680090233 _2_ AGT  --- 3 ping 64 [0.00 -1 0] ------- [0:0 -1:0 32 0] 
