s 0.100000000 _0_ AGT  --- 0 ping 64 [0.00 0 0] ------- [0:0 1:0 32 0] 
r 0.100000000 _0_ RTR  --- 0 ping 64 [0.00 0 0] ------- [0:0 1:0 32 0] 
s 0.100000000 _0_ RTR  --- 0 ping 64 [0.00 0 0] ------- [0:0 1:0 32 0] 
s 0.100000000 _3_ AGT  --- 1 ping 64 [0.00 0 0] ------- [3:0 2:0 32 0] 
r 0.100000000 _3_ RTR  --- 1 ping 64 [0.00 0 0] ------- [3:0 2:0 32 0] 
s 0.100000000 _3_ RTR  --- 1 ping 64 [0.00 0 0] ------- [3:0 2:0 32 0] 
s 0.121005000 _0_ MAC  --- 0 ARP 28 [0.00 -1 0] ------- [REQUEST 0/0 0/1]
s 0.130005000 _3_ MAC  --- 0 ARP 28 [0.00 -1 3] ------- [REQUEST 3/3 0/2]
r 0.164005707 _1_ MAC  --- 0 ARP 28 [0.00 -1 0] ------- [REQUEST 0/0 0/1]
D 0.173005707 _2_ MAC  COL 0 ARP 28 [0.00 -1 3] ------- [REQUEST 3/3 0/2]
s 0.287006414 _1_ MAC  --- 0 RTS 10 [0.07 0 1] 
s 0.298007121 _0_ MAC  --- 0 CTS 10 [0.06 1 0] 
s 0.309007828 _1_ MAC  --- 0 ARP 28 [0.01 0 1] ------- [REPLY 1/1 0/0]
s 0.352008536 _0_ MAC  --- 0 ACK 10 [0.00 1 0] 
r 0.352008536 _0_ MAC  --- 0 ARP 28 [0.01 0 1] ------- [REPLY 1/1 0/0]
s 0.386007121 _0_ MAC  --- 0 RTS 10 [0.07 1 0] 
s 0.397007828 _1_ MAC  --- 0 CTS 10 [0.06 0 1] 
s 0.408008536 _0_ MAC  --- 0 ping 64 [0.01 1 0] ------- [0:0 1:0 32 0] 
s 0.451009243 _1_ MAC  --- 0 ACK 10 [0.00 0 1] 
r 0.451009243 _1_ MAC  --- 0 ping 64 [0.01 1 0] ------- [0:0 1:0 32 0] 
r 0.451034243 _1_ AGT  --- 0 ping 64 [0.01 1 0] ------- [0:0 1:0 32 0] 
s 0.451034243 _1_ AGT  --- 2 ping 64 [0.00 0 0] ------- [1:0 0:0 32 0] 
r 0.451034243 _1_ RTR  --- 2 ping 64 [0.00 0 0] ------- [1:0 0:0 32 0] 
s 0.451034243 _1_ RTR  --- 2 ping 64 [0.00 0 0] ------- [1:0 0:0 32 0] 
s 0.511007828 _1_ MAC  --- 0 RTS 10 [0.07 0 1] 
s 0.522008536 _0_ MAC  --- 0 CTS 10 [0.06 1 0] 
s 0.533009243 _1_ MAC  --- 2 ping 64 [0.01 0 1] ------- [1:0 0:0 32 0] 
s 0.576009950 _0_ MAC  --- 0 ACK 10 [0.00 1 0] 
r 0.576009950 _0_ MAC  --- 2 ping 64 [0.01 0 1] ------- [1:0 0:0 32 0] 
r 0.576034950 _0_ AGT  --- 2 ping 64 [0.01 0 1] ------- [1:0 0:0 32 0] 
D 5.000000000 _3_ IFQ  END 1 ping 64 [0.00 0 3] ------- [3:0 2:0 32 0] 
