s 17.208000000 _1_ MAC  --- 0 SYNC 9 [0.13 1 1] 
s 18.654000000 _2_ MAC  --- 0 SYNC 9 [0.12 2 2] 
s 20.072000707 _0_ MAC  --- 0 SYNC 9 [0.13 0 1] 
s 21.513000801 _0_ MAC  --- 0 SYNC 9 [0.12 0 1] 
s 22.951001508 _2_ MAC  --- 0 SYNC 9 [0.12 2 0] 
s 24.383001414 _1_ MAC  --- 0 SYNC 9 [0.12 1 0] 
s 34.404002121 _0_ MAC  --- 0 SYNC 9 [0.13 0 1] 
s 35.862002310 _0_ MAC  --- 0 SYNC 9 [0.10 0 1] 
s 37.276002923 _2_ MAC  --- 0 SYNC 9 [0.12 2 0] 
s 38.719002828 _1_ MAC  --- 0 SYNC 9 [0.11 1 0] 
s 40.100000000 _0_ AGT  --- 0 ping 64 [0.00 0 0] ------- [0:0 1:0 32 0] 
r 40.100000000 _0_ RTR  --- 0 ping 64 [0.00 0 0] ------- [0:0 1:0 32 0] 
s 40.100000000 _0_ RTR  --- 0 ping 64 [0.00 0 0] ------- [0:0 1:0 32 0] 
s 40.198203536 _0_ MAC  --- 0 ARP 28 [0.00 -1 0] ------- [REQUEST 0/0 0/1]
r 40.241204243 _1_ MAC  --- 0 ARP 28 [0.00 -1 0] ------- [REQUEST 0/0 0/1]
r 40.241204337 _2_ MAC  --- 0 ARP 28 [0.00 -1 0] ------- [REQUEST 0/0 0/1]
s 41.624203724 _0_ MAC  --- 0 ARP 28 [0.00 -1 0] ------- [REQUEST 0/0 0/1]
r 41.667204431 _1_ MAC  --- 0 ARP 28 [0.00 -1 0] ------- [REQUEST 0/0 0/1]
r 41.667204525 _2_ MAC  --- 0 ARP 28 [0.00 -1 0] ------- [REQUEST 0/0 0/1]
s 43.060202828 _1_ MAC  --- 0 RTS 10 [0.07 0 1] 
s 43.071203536 _0_ MAC  --- 0 CTS 10 [0.06 1 0] 
s 43.082204243 _1_ MAC  --- 0 ARP 28 [0.01 0 1] ------- [REPLY 1/1 0/0]
s 43.125204950 _0_ MAC  --- 0 ACK 10 [0.00 1 0] 
r 43.125204950 _0_ MAC  --- 0 ARP 28 [0.01 0 1] ------- [REPLY 1/1 0/0]
s 44.502202828 _1_ MAC  --- 0 RTS 10 [0.07 0 1] 
s 44.513203536 _0_ MAC  --- 0 CTS 10 [0.06 1 0] 
s 44.524204243 _1_ MAC  --- 0 ARP 28 [0.01 0 1] ------- [REPLY 1/1 0/0]
s 44.567204950 _0_ MAC  --- 0 ACK 10 [0.00 1 0] 
r 44.567204950 _0_ MAC  --- 0 ARP 28 [0.01 0 1] ------- [REPLY 1/1 0/0]
s 45.200000000 _2_ AGT  --- 1 ping 64 [0.00 0 0] ------- [2:0 -1:0 32 0] 
r 45.200000000 _2_ RTR  --- 1 ping 64 [0.00 0 0] ------- [2:0 -1:0 32 0] 
s 45.200000000 _2_ RTR  --- 1 ping 64 [0.00 0 0] ------- [2:0 -1:0 32 0] 
s 45.968202923 _2_ MAC  --- 1 ping 64 [0.00 -1 2] ------- [2:0 -1:0 32 0] 
r 46.011203724 _0_ MAC  --- 1 ping 64 [0.00 -1 2] ------- [2:0 -1:0 32 0] 
r 46.011228724 _0_ RTR  --- 1 ping 64 [0.00 -1 2] ------- [2:0 -1:0 32 0] 
r 46.011228724 _0_ AGT  --- 1 ping 64 [0.00 -1 2] ------- [2:0 -1:0 32 0] 
s 46.011228724 _0_ AGT  --- 2 ping 64 [0.00 0 0] ------- [0:0 -1:0 32 0] 
r 46.011228724 _0_ RTR  --- 2 ping 64 [0.00 0 0] ------- [0:0 -1:0 32 0] 
s 46.011228724 _0_ RTR  --- 2 ping 64 [0.00 0 0] ------- [0:0 -1:0 32 0] 
s 47.370203536 _0_ MAC  --- 0 RTS 10 [0.07 1 0] 
s 47.381204243 _1_ MAC  --- 0 CTS 10 [0.06 0 1] 
s 47.392204950 _0_ MAC  --- 0 ping 64 [0.01 1 0] ------- [0:0 1:0 32 0] 
s 47.435205657 _1_ MAC  --- 0 ACK 10 [0.00 0 1] 
r 47.435205657 _1_ MAC  --- 0 ping 64 [0.01 1 0] ------- [0:0 1:0 32 0] 
r 47.435230657 _1_ AGT  --- 0 ping 64 [0.01 1 0] ------- [0:0 1:0 32 0] 
s 47.435230657 _1_ AGT  --- 3 ping 64 [0.00 0 0] ------- [1:0 0:0 32 0] 
r 47.435230657 _1_ RTR  --- 3 ping 64 [0.00 0 0] ------- [1:0 0:0 32 0] 
s 47.435230657 _1_ RTR  --- 3 ping 64 [0.00 0 0] ------- [1:0 0:0 32 0] 
s 48.754003536 _0_ MAC  --- 0 SYNC 9 [0.11 0 1] 
s 48.792203536 _0_ MAC  --- 2 ping 64 [0.00 -1 0] ------- [0:0 -1:0 32 0] 
r 48.835204243 _1_ MAC  --- 2 ping 64 [0.00 -1 0] ------- [0:0 -1:0 32 0] 
r 48.835204337 _2_ MAC  --- 2 ping 64 [0.00 -1 0] ------- [0:0 -1:0 32 0] 
r 48.835229243 _1_ RTR  --- 2 ping 64 [0.00 -1 0] ------- [0:0 -1:0 32 0] 
r 48.835229243 _1_ AGT  --- 2 ping 64 [0.00 -1 0] ------- [0:0 -1:0 32 0] 
r 48.835229337 _2_ RTR  --- 2 ping 64 [0.00 -1 0] ------- [0:0 -1:0 32 0] 
r 48.835229337 _2_ AGT  --- 2 ping 64 [0.00 -1 0] ------- [0:0 -1:0 32 0] 
s 50.185003724 _0_ MAC  --- 0 SYNC 9 [0.11 0 1] 
s 50.227204243 _1_ MAC  --- 0 RTS 10 [0.07 0 1] 
s 50.238204950 _0_ MAC  --- 0 CTS 10 [0.06 1 0] 
s 50.249205657 _1_ MAC  --- 3 ping 64 [0.01 0 1] ------- [1:0 0:0 32 0] 
s 50.292206364 _0_ MAC  --- 0 ACK 10 [0.00 1 0] 
r 50.292206364 _0_ MAC  --- 3 ping 64 [0.01 0 1] ------- [1:0 0:0 32 0] 
r 50.292231364 _0_ AGT  --- 3 ping 64 [0.01 0 1] ------- [1:0 0:0 32 0] 
s 51.600004337 _2_ MAC  --- 0 SYNC 9 [0.13 2 0] 
s 51.709205138 _0_ MAC  --- 2 ping 64 [0.00 -1 0] ------- [0:0 -1:0 32 0] 
r 51.752205845 _1_ MAC  --- 2 ping 64 [0.00 -1 0] ------- [0:0 -1:0 32 0] 
r 51.752205940 _2_ MAC  --- 2 ping 64 [0.00 -1 0] ------- [0:0 -1:0 32 0] 
r 51.752230845 _1_ RTR  --- 2 ping 64 [0.00 -1 0] ------- [0:0 -1:0 32 0] 
r 51.752230845 _1_ AGT  --- 2 ping 64 [0.00 -1 0] ------- [0:0 -1:0 32 0] 
r 51.752230940 _2_ RTR  --- 2 ping 64 [0.00 -1 0] ------- [0:0 -1:0 32 0] 
r 51.752230940 _2_ AGT  --- 2 ping 64 [0.00 -1 0] ------- [0:0 -1:0 32 0] 
s 53.049004243 _1_ MAC  --- 0 SYNC 9 [0.11 1 0] 
s 63.069004950 _0_ MAC  --- 0 SYNC 9 [0.12 0 1] 
s 64.499005138 _0_ MAC  --- 0 SYNC 9 [0.13 0 1] 
s 65.942005751 _2_ MAC  --- 0 SYNC 9 [0.12 2 0] 
s 67.371005657 _1_ MAC  --- 0 SYNC 9 [0.12 1 0] 
s 77.397006364 _0_ MAC  --- 0 SYNC 9 [0.13 0 1] 
s 78.851006553 _0_ MAC  --- 0 SYNC 9 [0.10 0 1] 
s 80.269007165 _2_ MAC  --- 0 SYNC 9 [0.12 2 0] 
s 81.701007071 _1_ MAC  --- 0 SYNC 9 [0.12 1 0] 
s 91.751007778 _0_ MAC  --- 0 SYNC 9 [0.10 0 1] 
s 93.158007967 _0_ MAC  --- 0 SYNC 9 [0.13 0 1] 
s 94.594008580 _2_ MAC  --- 0 SYNC 9 [0.12 2 0] 
s 96.038008485 _1_ MAC  --- 0 SYNC 9 [0.11 1 0] 
