s 17.208000000 _1_ MAC  --- 0 SYNC 9 [0.13 1 1] 
s 18.654000707 _0_ MAC  --- 0 SYNC 9 [0.12 0 1] 
s 20.072000801 _2_ MAC  --- 0 SYNC 9 [0.13 2 1] 
s 21.515001414 _1_ MAC  --- 0 SYNC 9 [0.12 1 0] 
s 32.981002121 _0_ MAC  --- 0 SYNC 9 [0.12 0 1] 
s 34.420002216 _2_ MAC  --- 0 SYNC 9 [0.11 2 1] 
s 35.848003017 _1_ MAC  --- 0 SYNC 9 [0.12 1 0] 
s 40.100000000 _0_ AGT  --- 0 ping 64 [0.00 0 0] ------- [0:0 1:0 32 0] 
r 40.100000000 _0_ RTR  --- 0 ping 64 [0.00 0 0] ------- [0:0 1:0 32 0] 
s 40.100000000 _0_ RTR  --- 0 ping 64 [0.00 0 0] ------- [0:0 1:0 32 0] 
s 40.200000000 _2_ AGT  --- 1 ping 64 [0.00 0 0] ------- [2:0 -1:0 32 0] 
r 40.200000000 _2_ RTR  --- 1 ping 64 [0.00 0 0] ------- [2:0 -1:0 32 0] 
s 40.200000000 _2_ RTR  --- 1 ping 64 [0.00 0 0] ------- [2:0 -1:0 32 0] 
s 40.223203724 _0_ MAC  --- 0 ARP 28 [0.00 -1 0] ------- [REQUEST 0/0 0/1]
r 40.266204431 _1_ MAC  --- 0 ARP 28 [0.00 -1 0] ------- [REQUEST 0/0 0/1]
s 41.645203017 _1_ MAC  --- 0 RTS 10 [0.07 0 1] 
s 41.656203724 _0_ MAC  --- 0 CTS 10 [0.06 1 0] 
s 41.667204431 _1_ MAC  --- 0 ARP 28 [0.01 0 1] ------- [REPLY 1/1 0/0]
s 41.710205138 _0_ MAC  --- 0 ACK 10 [0.00 1 0] 
r 41.710205138 _0_ MAC  --- 0 ARP 28 [0.01 0 1] ------- [REPLY 1/1 0/0]
s 43.067203724 _0_ MAC  --- 0 RTS 10 [0.07 1 0] 
s 43.078204431 _1_ MAC  --- 0 CTS 10 [0.06 0 1] 
s 43.089205138 _0_ MAC  --- 0 ping 64 [0.01 1 0] ------- [0:0 1:0 32 0] 
s 43.132205845 _1_ MAC  --- 0 ACK 10 [0.00 0 1] 
r 43.132205845 _1_ MAC  --- 0 ping 64 [0.01 1 0] ------- [0:0 1:0 32 0] 
r 43.132230845 _1_ AGT  --- 0 ping 64 [0.01 1 0] ------- [0:0 1:0 32 0] 
s 43.132230845 _1_ AGT  --- 2 ping 64 [0.00 0 0] ------- [1:0 0:0 32 0] 
r 43.132230845 _1_ RTR  --- 2 ping 64 [0.00 0 0] ------- [1:0 0:0 32 0] 
s 43.132230845 _1_ RTR  --- 2 ping 64 [0.00 0 0] ------- [1:0 0:0 32 0] 
s 44.497203017 _1_ MAC  --- 0 RTS 10 [0.07 0 1] 
s 44.508203724 _0_ MAC  --- 0 CTS 10 [0.06 1 0] 
s 44.519204431 _1_ MAC  --- 2 ping 64 [0.01 0 1] ------- [1:0 0:0 32 0] 
s 44.562205138 _0_ MAC  --- 0 ACK 10 [0.00 1 0] 
r 44.562205138 _0_ MAC  --- 2 ping 64 [0.01 0 1] ------- [1:0 0:0 32 0] 
r 44.562230138 _0_ AGT  --- 2 ping 64 [0.01 0 1] ------- [1:0 0:0 32 0] 
s 45.923203818 _2_ MAC  --- 1 ping 64 [0.00 -1 2] ------- [2:0 -1:0 32 0] 
r 45.966204620 _1_ MAC  --- 1 ping 64 [0.00 -1 2] ------- [2:0 -1:0 32 0] 
r 45.966229620 _1_ RTR  --- 1 ping 64 [0.00 -1 2] ------- [2:0 -1:0 32 0] 
r 45.966229620 _1_ AGT  --- 1 ping 64 [0.00 -1 2] ------- [2:0 -1:0 32 0] 
s 45.966229620 _1_ AGT  --- 3 ping 64 [0.00 0 0] ------- [1:0 -1:0 32 0] 
r 45.966229620 _1_ RTR  --- 3 ping 64 [0.00 0 0] ------- [1:0 -1:0 32 0] 
s 45.966229620 _1_ RTR  --- 3 ping 64 [0.00 0 0] ------- [1:0 -1:0 32 0] 
s 47.316003724 _0_ MAC  --- 0 SYNC 9 [0.11 0 1] 
s 47.368204431 _1_ MAC  --- 3 ping 64 [0.00 -1 1] ------- [1:0 -1:0 32 0] 
r 47.411205138 _0_ MAC  --- 3 ping 64 [0.00 -1 1] ------- [1:0 -1:0 32 0] 
r 47.411205233 _2_ MAC  --- 3 ping 64 [0.00 -1 1] ------- [1:0 -1:0 32 0] 
r 47.411230138 _0_ RTR  --- 3 ping 64 [0.00 -1 1] ------- [1:0 -1:0 32 0] 
r 47.411230138 _0_ AGT  --- 3 ping 64 [0.00 -1 1] ------- [1:0 -1:0 32 0] 
r 47.411230233 _2_ RTR  --- 3 ping 64 [0.00 -1 1] ------- [1:0 -1:0 32 0] 
r 47.411230233 _2_ AGT  --- 3 ping 64 [0.00 -1 1] ------- [1:0 -1:0 32 0] 
s 48.742003818 _2_ MAC  --- 0 SYNC 9 [0.12 2 1] 
s 50.176004620 _1_ MAC  --- 0 SYNC 9 [0.12 1 0] 
s 61.630005327 _0_ MAC  --- 0 SYNC 9 [0.13 0 1] 
s 63.074005421 _2_ MAC  --- 0 SYNC 9 [0.12 2 1] 
s 64.517006223 _1_ MAC  --- 0 SYNC 9 [0.11 1 0] 
s 75.968006930 _0_ MAC  --- 0 SYNC 9 [0.12 0 1] 
s 77.421007024 _2_ MAC  --- 0 SYNC 9 [0.10 2 1] 
s 78.845007825 _1_ MAC  --- 0 SYNC 9 [0.11 1 0] 
s 90.316008532 _0_ MAC  --- 0 SYNC 9 [0.10 0 1] 
s 91.740008627 _2_ MAC  --- 0 SYNC 9 [0.11 2 1] 
s 93.157009428 _1_ MAC  --- 0 SYNC 9 [0.13 1 0] 
