s 17.208000000 _1_ MAC  --- 0 SYNC 9 [0.13 1 1] 
s 17.221000000 _3_ MAC  --- 0 SYNC 9 [0.12 3 3] 
D 17.224000662 _2_ MAC  SLP 0 SYNC 9 [0.12 3 3] 
s 18.639000707 _0_ MAC  --- 0 SYNC 9 [0.13 0 1] 
s 20.080000000 _2_ MAC  --- 0 SYNC 9 [0.12 2 2] 
s 21.517000662 _3_ MAC  --- 0 SYNC 9 [0.12 3 2] 
s 21.523001414 _1_ MAC  --- 0 SYNC 9 [0.11 1 0] 
s 22.951001323 _2_ MAC  --- 0 SYNC 9 [0.12 2 3] 
s 32.981002121 _0_ MAC  --- 0 SYNC 9 [0.12 0 1] 
s 35.837001985 _3_ MAC  --- 0 SYNC 9 [0.13 3 2] 
s 35.862002828 _1_ MAC  --- 0 SYNC 9 [0.10 1 0] 
s 37.276002647 _2_ MAC  --- 0 SYNC 9 [0.12 2 3] 
s 40.100000000 _0_ AGT  --- 0 ping 64 [0.00 0 0] ------- [0:0 1:0 32 0] 
r 40.100000000 _0_ RTR  --- 0 ping 64 [0.00 0 0] ------- [0:0 1:0 32 0] 
s 40.100000000 _0_ RTR  --- 0 ping 64 [0.00 0 0] ------- [0:0 1:0 32 0] 
s 40.223203536 _0_ MAC  --- 0 ARP 28 [0.00 -1 0] ------- [REQUEST 0/0 0/1]
r 40.266204243 _1_ MAC  --- 0 ARP 28 [0.00 -1 0] ------- [REQUEST 0/0 0/1]
s 41.631202828 _1_ MAC  --- 0 RTS 10 [0.07 0 1] 
s 41.642203536 _0_ MAC  --- 0 CTS 10 [0.06 1 0] 
s 41.653204243 _1_ MAC  --- 0 ARP 28 [0.01 0 1] ------- [REPLY 1/1 0/0]
s 41.696204950 _0_ MAC  --- 0 ACK 10 [0.00 1 0] 
r 41.696204950 _0_ MAC  --- 0 ARP 28 [0.01 0 1] ------- [REPLY 1/1 0/0]
s 43.116203536 _0_ MAC  --- 0 RTS 10 [0.07 1 0] 
s 43.127204243 _1_ MAC  --- 0 CTS 10 [0.06 0 1] 
s 43.138204950 _0_ MAC  --- 0 ping 64 [0.01 1 0] ------- [0:0 1:0 32 0] 
s 43.181205657 _1_ MAC  --- 0 ACK 10 [0.00 0 1] 
r 43.181205657 _1_ MAC  --- 0 ping 64 [0.01 1 0] ------- [0:0 1:0 32 0] 
r 43.181230657 _1_ AGT  --- 0 ping 64 [0.01 1 0] ------- [0:0 1:0 32 0] 
s 43.181230657 _1_ AGT  --- 1 ping 64 [0.00 0 0] ------- [1:0 0:0 32 0] 
r 43.181230657 _1_ RTR  --- 1 ping 64 [0.00 0 0] ------- [1:0 0:0 32 0] 
s 43.181230657 _1_ RTR  --- 1 ping 64 [0.00 0 0] ------- [1:0 0:0 32 0] 
s 44.490202828 _1_ MAC  --- 0 RTS 10 [0.07 0 1] 
s 44.501203536 _0_ MAC  --- 0 CTS 10 [0.06 1 0] 
s 44.512204243 _1_ MAC  --- 1 ping 64 [0.01 0 1] ------- [1:0 0:0 32 0] 
s 44.555204950 _0_ MAC  --- 0 ACK 10 [0.00 1 0] 
r 44.555204950 _0_ MAC  --- 1 ping 64 [0.01 0 1] ------- [1:0 0:0 32 0] 
r 44.555229950 _0_ AGT  --- 1 ping 64 [0.01 0 1] ------- [1:0 0:0 32 0] 
s 47.316003536 _0_ MAC  --- 0 SYNC 9 [0.11 0 1] 
s 50.175004243 _1_ MAC  --- 0 SYNC 9 [0.12 1 0] 
s 50.181003308 _3_ MAC  --- 0 SYNC 9 [0.11 3 2] 
s 51.609003970 _2_ MAC  --- 0 SYNC 9 [0.12 2 3] 
s 60.100000000 _3_ AGT  --- 2 ping 64 [0.00 0 0] ------- [3:0 2:0 32 0] 
r 60.100000000 _3_ RTR  --- 2 ping 64 [0.00 0 0] ------- [3:0 2:0 32 0] 
s 60.100000000 _3_ RTR  --- 2 ping 64 [0.00 0 0] ------- [3:0 2:0 32 0] 
s 60.302204632 _3_ MAC  --- 0 ARP 28 [0.00 -1 3] ------- [REQUEST 3/3 0/2]
r 60.345205293 _2_ MAC  --- 0 ARP 28 [0.00 -1 3] ------- [REQUEST 3/3 0/2]
s 61.641004950 _0_ MAC  --- 0 SYNC 9 [0.12 0 1] 
s 63.149203970 _2_ MAC  --- 0 RTS 10 [0.07 3 2] 
s 63.160204632 _3_ MAC  --- 0 CTS 10 [0.06 2 3] 
s 63.171205293 _2_ MAC  --- 0 ARP 28 [0.01 3 2] ------- [REPLY 2/2 3/3]
s 63.214205955 _3_ MAC  --- 0 ACK 10 [0.00 2 3] 
r 63.214205955 _3_ MAC  --- 0 ARP 28 [0.01 3 2] ------- [REPLY 2/2 3/3]
s 64.504004632 _3_ MAC  --- 0 SYNC 9 [0.12 3 2] 
s 64.524005657 _1_ MAC  --- 0 SYNC 9 [0.10 1 0] 
s 64.612204632 _3_ MAC  --- 0 RTS 10 [0.07 2 3] 
s 64.623205293 _2_ MAC  --- 0 CTS 10 [0.06 3 2] 
s 64.634205955 _3_ MAC  --- 2 ping 64 [0.01 2 3] ------- [3:0 2:0 32 0] 
s 64.677206616 _2_ MAC  --- 0 ACK 10 [0.00 3 2] 
r 64.677206616 _2_ MAC  --- 2 ping 64 [0.01 2 3] ------- [3:0 2:0 32 0] 
r 64.677231616 _2_ AGT  --- 2 ping 64 [0.01 2 3] ------- [3:0 2:0 32 0] 
s 64.677231616 _2_ AGT  --- 3 ping 64 [0.00 0 0] ------- [2:0 3:0 32 0] 
r 64.677231616 _2_ RTR  --- 3 ping 64 [0.00 0 0] ------- [2:0 3:0 32 0] 
s 64.677231616 _2_ RTR  --- 3 ping 64 [0.00 0 0] ------- [2:0 3:0 32 0] 
s 65.955005293 _2_ MAC  --- 0 SYNC 9 [0.10 2 3] 
s 65.990205293 _2_ MAC  --- 0 RTS 10 [0.07 3 2] 
s 66.001205955 _3_ MAC  --- 0 CTS 10 [0.06 2 3] 
s 66.012206616 _2_ MAC  --- 3 ping 64 [0.01 3 2] ------- [2:0 3:0 32 0] 
s 66.055207278 _3_ MAC  --- 0 ACK 10 [0.00 2 3] 
r 66.055207278 _3_ MAC  --- 3 ping 64 [0.01 3 2] ------- [2:0 3:0 32 0] 
r 66.055232278 _3_ AGT  --- 3 ping 64 [0.01 3 2] ------- [2:0 3:0 32 0] 
s 75.961006364 _0_ MAC  --- 0 SYNC 9 [0.13 0 1] 
s 78.840005955 _3_ MAC  --- 0 SYNC 9 [0.12 3 2] 
s 78.843007071 _1_ MAC  --- 0 SYNC 9 [0.11 1 0] 
s 80.265006616 _2_ MAC  --- 0 SYNC 9 [0.12 2 3] 
s 90.293007778 _0_ MAC  --- 0 SYNC 9 [0.13 0 1] 
s 93.165008485 _1_ MAC  --- 0 SYNC 9 [0.12 1 0] 
s 93.169007278 _3_ MAC  --- 0 SYNC 9 [0.12 3 2] 
s 94.593007940 _2_ MAC  --- 0 SYNC 9 [0.13 2 3] 
