s 0.100000000 _0_ AGT  --- 0 ping 64 [0.00 0 0] ------- [0:0 1:0 32 0] 
r 0.100000000 _0_ RTR  --- 0 ping 64 [0.00 0 0] ------- [0:0 1:0 32 0] 
s 0.100000000 _0_ RTR  --- 0 ping 64 [0.00 0 0] ------- [0:0 1:0 32 0] 
s 0.121005000 _0_ MAC  --- 0 ARP 28 [0.00 -1 0] ------- [REQUEST 0/0 0/1]
r 0.164005500 _1_ MAC  --- 0 ARP 28 [0.00 -1 0] ------- [REQUEST 0/0 0/1]
r 0.164005821 _2_ MAC  --- 0 ARP 28 [0.00 -1 0] ------- [REQUEST 0/0 0/1]
s 0.194010500 _1_ MAC  --- 0 RTS 10 [0.07 0 1] 
s 0.200000000 _2_ AGT  --- 1 ping 64 [0.00 0 0] ------- [2:0 -1:0 32 0] 
r 0.200000000 _2_ RTR  --- 1 ping 64 [0.00 0 0] ------- [2:0 -1:0 32 0] 
s 0.200000000 _2_ RTR  --- 1 ping 64 [0.00 0 0] ------- [2:0 -1:0 32 0] 
s 0.205011000 _0_ MAC  --- 0 CTS 10 [0.06 1 0] 
s 0.216011500 _1_ MAC  --- 0 ARP 28 [0.01 0 1] ------- [REPLY 1/1 0/0]
s 0.259012000 _0_ MAC  --- 0 ACK 10 [0.00 1 0] 
r 0.259012000 _0_ MAC  --- 0 ARP 28 [0.01 0 1] ------- [REPLY 1/1 0/0]
s 0.293011821 _2_ MAC  --- 1 ping 64 [0.00 -1 2] ------- [2:0 -1:0 32 0] 
r 0.336012589 _1_ MAC  --- 1 ping 64 [0.00 -1 2] ------- [2:0 -1:0 32 0] 
r 0.336012641 _0_ MAC  --- 1 ping 64 [0.00 -1 2] ------- [2:0 -1:0 32 0] 
r 0.336037589 _1_ RTR  --- 1 ping 64 [0.00 -1 2] ------- [2:0 -1:0 32 0] 
r 0.336037589 _1_ AGT  --- 1 ping 64 [0.00 -1 2] ------- [2:0 -1:0 32 0] 
s 0.336037589 _1_ AGT  --- 2 ping 64 [0.00 0 0] ------- [1:0 -1:0 32 0] 
r 0.336037589 _1_ RTR  --- 2 ping 64 [0.00 0 0] ------- [1:0 -1:0 32 0] 
s 0.336037589 _1_ RTR  --- 2 ping 64 [0.00 0 0] ------- [1:0 -1:0 32 0] 
r 0.336037641 _0_ RTR  --- 1 ping 64 [0.00 -1 2] ------- [2:0 -1:0 32 0] 
r 0.336037641 _0_ AGT  --- 1 ping 64 [0.00 -1 2] ------- [2:0 -1:0 32 0] 
s 0.336037641 _0_ AGT  --- 3 ping 64 [0.00 0 0] ------- [0:0 -1:0 32 0] 
r 0.336037641 _0_ RTR  --- 3 ping 64 [0.00 0 0] ------- [0:0 -1:0 32 0] 
s 0.336037641 _0_ RTR  --- 3 ping 64 [0.00 0 0] ------- [0:0 -1:0 32 0] 
s 0.379062589 _1_ MAC  --- 2 ping 64 [0.00 -1 1] ------- [1:0 -1:0 32 0] 
r 0.422063089 _0_ MAC  --- 2 ping 64 [0.00 -1 1] ------- [1:0 -1:0 32 0] 
r 0.422063357 _2_ MAC  --- 2 ping 64 [0.00 -1 1] ------- [1:0 -1:0 32 0] 
r 0.422088089 _0_ RTR  --- 2 ping 64 [0.00 -1 1] ------- [1:0 -1:0 32 0] 
r 0.422088089 _0_ AGT  --- 2 ping 64 [0.00 -1 1] ------- [1:0 -1:0 32 0] 
r 0.422088357 _2_ RTR  --- 2 ping 64 [0.00 -1 1] ------- [1:0 -1:0 32 0] 
r 0.422088357 _2_ AGT  --- 2 ping 64 [0.00 -1 1] ------- [1:0 -1:0 32 0] 
s 0.436063089 _0_ MAC  --- 0 RTS 10 [0.07 1 0] 
s 0.447063589 _1_ MAC  --- 0 CTS 10 [0.06 0 1] 
s 0.458064089 _0_ MAC  --- 0 ping 64 [0.01 1 0] ------- [0:0 1:0 32 0] 
s 0.501064589 _1_ MAC  --- 0 ACK 10 [0.00 0 1] 
r 0.501064589 _1_ MAC  --- 0 ping 64 [0.01 1 0] ------- [0:0 1:0 32 0] 
r 0.501089589 _1_ AGT  --- 0 ping 64 [0.01 1 0] ------- [0:0 1:0 32 0] 
s 0.501089589 _1_ AGT  --- 4 ping 64 [0.00 0 0] ------- [1:0 0:0 32 0] 
r 0.501089589 _1_ RTR  --- 4 ping 64 [0.00 0 0] ------- [1:0 0:0 32 0] 
s 0.501089589 _1_ RTR  --- 4 ping 64 [0.00 0 0] ------- [1:0 0:0 32 0] 
s 0.552065089 _0_ MAC  --- 3 ping 64 [0.00 -1 0] ------- [0:0 -1:0 32 0] 
r 0.595065589 _1_ MAC  --- 3 ping 64 [0.00 -1 0] ------- [0:0 -1:0 32 0] 
r 0.595065910 _2_ MAC  --- 3 ping 64 [0.00 -1 0] ------- [0:0 -1:0 32 0] 
r 0.595090589 _1_ RTR  --- 3 ping 64 [0.00 -1 0] ------- [0:0 -1:0 32 0] 
r 0.595090589 _1_ AGT  --- 3 ping 64 [0.00 -1 0] ------- [0:0 -1:0 32 0] 
r 0.595090910 _2_ RTR  --- 3 ping 64 [0.00 -1 0] ------- [0:0 -1:0 32 0] 
r 0.595090910 _2_ AGT  --- 3 ping 64 [0.00 -1 0] ------- [0:0 -1:0 32 0] 
s 0.667065589 _1_ MAC  --- 0 RTS 10 [0.07 0 1] 
s 0.678066089 _0_ MAC  --- 0 CTS 10 [0.06 1 0] 
s 0.689066589 _1_ MAC  --- 4 ping 64 [0.01 0 1] ------- [1:0 0:0 32 0] 
s 0.732067089 _0_ MAC  --- 0 ACK 10 [0.00 1 0] 
r 0.732067089 _0_ MAC  --- 4 ping 64 [0.01 0 1] ------- [1:0 0:0 32 0] 
r 0.732092089 _0_ AGT  --- 4 ping 64 [0.01 0 1] ------- [1:0 0:0 32 0] 
