M 0.0 nn:50 x:670 y:670 rp:dsdv
M 0.0 sc:../mobility/scene/scen-670x670-50-600-20-0 cp:../mobility/scene/cbr-50-20-4-512 seed:0.0
M 0.0 prop:Propagation/Shadowing ant:Antenna/OmniAntenna
s 22.465028699 _18_ AGT  --- 221 cbr 512 [0 0 0 0] ------- [18:1 20:0 32 0] [0] 0 2
r 22.473763206 _20_ AGT  --- 221 cbr 532 [13a 14 12 800] ------- [18:1 20:0 32 20] [0] 1 2
s 23.789830405 _16_ AGT  --- 232 cbr 512 [0 0 0 0] ------- [16:0 17:0 32 0] [0] 0 1
r 23.822421896 _17_ AGT  --- 232 cbr 532 [13a 11 10 800] ------- [16:0 17:0 32 17] [0] 1 1
s 27.058343553 _18_ AGT  --- 337 cbr 512 [0 0 0 0] ------- [18:1 20:0 32 0] [1] 0 2
r 27.063862771 _20_ AGT  --- 337 cbr 532 [13a 14 12 800] ------- [18:1 20:0 32 20] [1] 1 2
s 28.181807436 _16_ AGT  --- 344 cbr 512 [0 0 0 0] ------- [16:0 17:0 32 0] [1] 0 1
r 28.187565187 _17_ AGT  --- 344 cbr 532 [13a 11 10 800] ------- [16:0 17:0 32 17] [1] 1 1
s 29.031284241 _9_ AGT  --- 345 cbr 512 [0 0 0 0] ------- [9:2 11:0 32 0] [0] 0 2
r 29.039858257 _11_ AGT  --- 345 cbr 532 [13a b 9 800] ------- [9:2 11:0 32 11] [0] 1 2
s 30.208176370 _13_ AGT  --- 347 cbr 512 [0 0 0 0] ------- [13:2 14:1 32 0] [0] 0 3
r 30.221733538 _14_ AGT  --- 347 cbr 532 [13a e d 800] ------- [13:2 14:1 32 14] [0] 1 3
s 31.171944007 _18_ AGT  --- 348 cbr 512 [0 0 0 0] ------- [18:1 20:0 32 0] [2] 0 2
r 31.177723225 _20_ AGT  --- 348 cbr 532 [13a 14 12 800] ------- [18:1 20:0 32 20] [2] 1 2
s 31.197955993 _9_ AGT  --- 349 cbr 512 [0 0 0 0] ------- [9:2 11:0 32 0] [1] 0 2
r 31.203655000 _11_ AGT  --- 349 cbr 532 [13a b 9 800] ------- [9:2 11:0 32 11] [1] 1 2
s 33.540636748 _16_ AGT  --- 350 cbr 512 [0 0 0 0] ------- [16:0 17:0 32 0] [2] 0 1
r 33.546674499 _17_ AGT  --- 350 cbr 532 [13a 11 10 800] ------- [16:0 17:0 32 17] [2] 1 1
s 34.879717911 _18_ AGT  --- 351 cbr 512 [0 0 0 0] ------- [18:1 20:0 32 0] [3] 0 2
r 34.885497129 _20_ AGT  --- 351 cbr 532 [13a 14 12 800] ------- [18:1 20:0 32 20] [3] 1 2
s 34.981902797 _13_ AGT  --- 352 cbr 512 [0 0 0 0] ------- [13:2 14:1 32 0] [1] 0 3
r 34.987523752 _14_ AGT  --- 352 cbr 532 [13a e d 800] ------- [13:2 14:1 32 14] [1] 1 3
s 35.153296706 _9_ AGT  --- 354 cbr 512 [0 0 0 0] ------- [9:2 11:0 32 0] [2] 0 2
r 35.158815713 _11_ AGT  --- 354 cbr 532 [13a b 9 800] ------- [9:2 11:0 32 11] [2] 1 2
s 37.681775109 _13_ AGT  --- 373 cbr 512 [0 0 0 0] ------- [13:2 14:1 32 0] [2] 0 3
r 37.688836064 _14_ AGT  --- 373 cbr 532 [13a e d 800] ------- [13:2 14:1 32 14] [2] 1 3
s 37.953153224 _8_ AGT  --- 377 cbr 512 [0 0 0 0] ------- [8:1 10:0 32 0] [0] 0 2
r 37.977732292 _10_ AGT  --- 377 cbr 532 [13a a 8 800] ------- [8:1 10:0 32 10] [0] 1 2
s 38.998166868 _16_ AGT  --- 390 cbr 512 [0 0 0 0] ------- [16:0 17:0 32 0] [3] 0 1
r 39.004024619 _17_ AGT  --- 390 cbr 532 [13a 11 10 800] ------- [16:0 17:0 32 17] [3] 1 1
s 39.723321489 _13_ AGT  --- 395 cbr 512 [0 0 0 0] ------- [13:2 14:1 32 0] [3] 0 3
r 39.736109747 _14_ AGT  --- 395 cbr 532 [13a e d 800] ------- [13:2 14:1 32 14] [3] 1 3
s 40.297868116 _18_ AGT  --- 398 cbr 512 [0 0 0 0] ------- [18:1 20:0 32 0] [4] 0 2
r 40.303467334 _20_ AGT  --- 398 cbr 532 [13a 14 12 800] ------- [18:1 20:0 32 20] [4] 1 2
s 40.611173576 _9_ AGT  --- 403 cbr 512 [0 0 0 0] ------- [9:2 11:0 32 0] [3] 0 2
r 40.617212583 _11_ AGT  --- 403 cbr 532 [13a b 9 800] ------- [9:2 11:0 32 11] [3] 1 2
s 40.917940000 _12_ AGT  --- 406 cbr 512 [0 0 0 0] ------- [12:2 14:0 32 0] [0] 0 2
r 40.926273182 _14_ AGT  --- 406 cbr 532 [13a e c 800] ------- [12:2 14:0 32 14] [0] 1 2
s 42.259103777 _8_ AGT  --- 409 cbr 512 [0 0 0 0] ------- [8:1 10:0 32 0] [1] 0 2
r 42.265964618 _10_ AGT  --- 409 cbr 532 [13a a 8 800] ------- [8:1 10:0 32 10] [1] 1 2
s 42.289418980 _16_ AGT  --- 410 cbr 512 [0 0 0 0] ------- [16:0 17:0 32 0] [4] 0 1
r 42.295356732 _17_ AGT  --- 410 cbr 532 [13a 11 10 800] ------- [16:0 17:0 32 17] [4] 1 1
s 42.496279894 _13_ AGT  --- 413 cbr 512 [0 0 0 0] ------- [13:2 14:1 32 0] [4] 0 3
r 42.510484153 _14_ AGT  --- 413 cbr 532 [13a e d 800] ------- [13:2 14:1 32 14] [4] 1 3
s 44.350089776 _8_ AGT  --- 414 cbr 512 [0 0 0 0] ------- [8:1 10:0 32 0] [2] 0 2
r 44.355850617 _10_ AGT  --- 414 cbr 532 [13a a 8 800] ------- [8:1 10:0 32 10] [2] 1 2
s 45.550855325 _16_ AGT  --- 415 cbr 512 [0 0 0 0] ------- [16:0 17:0 32 0] [5] 0 1
r 45.556453076 _17_ AGT  --- 415 cbr 532 [13a 11 10 800] ------- [16:0 17:0 32 17] [5] 1 1
s 45.714923723 _18_ AGT  --- 416 cbr 512 [0 0 0 0] ------- [18:1 20:0 32 0] [5] 0 2
r 45.720922940 _20_ AGT  --- 416 cbr 532 [13a 14 12 800] ------- [18:1 20:0 32 20] [5] 1 2
s 46.550224857 _9_ AGT  --- 417 cbr 512 [0 0 0 0] ------- [9:2 11:0 32 0] [4] 0 2
r 46.556203864 _11_ AGT  --- 417 cbr 532 [13a b 9 800] ------- [9:2 11:0 32 11] [4] 1 2
s 46.741061521 _12_ AGT  --- 418 cbr 512 [0 0 0 0] ------- [12:2 14:0 32 0] [1] 0 2
r 46.746860170 _14_ AGT  --- 418 cbr 532 [13a e c 800] ------- [12:2 14:0 32 14] [1] 1 2
s 46.899727859 _8_ AGT  --- 419 cbr 512 [0 0 0 0] ------- [8:1 10:0 32 0] [3] 0 2
r 46.905548700 _10_ AGT  --- 419 cbr 532 [13a a 8 800] ------- [8:1 10:0 32 10] [3] 1 2
s 48.338634267 _13_ AGT  --- 422 cbr 512 [0 0 0 0] ------- [13:2 14:1 32 0] [5] 0 3
r 48.344155222 _14_ AGT  --- 422 cbr 532 [13a e d 800] ------- [13:2 14:1 32 14] [5] 1 3
s 48.945423851 _16_ AGT  --- 425 cbr 512 [0 0 0 0] ------- [16:0 17:0 32 0] [6] 0 1
r 48.951261602 _17_ AGT  --- 425 cbr 532 [13a 11 10 800] ------- [16:0 17:0 32 17] [6] 1 1
s 49.176318518 _9_ AGT  --- 428 cbr 512 [0 0 0 0] ------- [9:2 11:0 32 0] [5] 0 2
r 49.181897525 _11_ AGT  --- 428 cbr 532 [13a b 9 800] ------- [9:2 11:0 32 11] [5] 1 2
s 49.480652345 _8_ AGT  --- 431 cbr 512 [0 0 0 0] ------- [8:1 10:0 32 0] [4] 0 2
r 49.486553186 _10_ AGT  --- 431 cbr 532 [13a a 8 800] ------- [8:1 10:0 32 10] [4] 1 2
s 50.273277384 _12_ AGT  --- 441 cbr 512 [0 0 0 0] ------- [12:2 14:0 32 0] [2] 0 2
r 50.278856034 _14_ AGT  --- 441 cbr 532 [13a e c 800] ------- [12:2 14:0 32 14] [2] 1 2
s 50.456801822 _18_ AGT  --- 443 cbr 512 [0 0 0 0] ------- [18:1 20:0 32 0] [6] 0 2
r 50.462321040 _20_ AGT  --- 443 cbr 532 [13a 14 12 800] ------- [18:1 20:0 32 20] [6] 1 2
s 51.281333330 _13_ AGT  --- 449 cbr 512 [0 0 0 0] ------- [13:2 14:1 32 0] [6] 0 3
r 51.287234285 _14_ AGT  --- 449 cbr 532 [13a e d 800] ------- [13:2 14:1 32 14] [6] 1 3
s 51.370482087 _16_ AGT  --- 453 cbr 512 [0 0 0 0] ------- [16:0 17:0 32 0] [7] 0 1
r 51.376059838 _17_ AGT  --- 453 cbr 532 [13a 11 10 800] ------- [16:0 17:0 32 17] [7] 1 1
s 52.007072234 _9_ AGT  --- 461 cbr 512 [0 0 0 0] ------- [9:2 11:0 32 0] [6] 0 2
r 52.012611241 _11_ AGT  --- 461 cbr 532 [13a b 9 800] ------- [9:2 11:0 32 11] [6] 1 2
s 52.546365683 _12_ AGT  --- 463 cbr 512 [0 0 0 0] ------- [12:2 14:0 32 0] [3] 0 2
r 52.552224332 _14_ AGT  --- 463 cbr 532 [13a e c 800] ------- [12:2 14:0 32 14] [3] 1 2
s 53.184322552 _18_ AGT  --- 468 cbr 512 [0 0 0 0] ------- [18:1 20:0 32 0] [7] 0 2
r 53.189941770 _20_ AGT  --- 468 cbr 532 [13a 14 12 800] ------- [18:1 20:0 32 20] [7] 1 2
s 53.479517131 _8_ AGT  --- 472 cbr 512 [0 0 0 0] ------- [8:1 10:0 32 0] [5] 0 2
r 53.514347653 _10_ AGT  --- 472 cbr 532 [13a a 8 800] ------- [8:1 10:0 32 10] [5] 1 2
s 55.099607763 _13_ AGT  --- 480 cbr 512 [0 0 0 0] ------- [13:2 14:1 32 0] [7] 0 3
r 55.106408718 _14_ AGT  --- 480 cbr 532 [13a e d 800] ------- [13:2 14:1 32 14] [7] 1 3
s 55.368413028 _9_ AGT  --- 482 cbr 512 [0 0 0 0] ------- [9:2 11:0 32 0] [7] 0 2
r 55.373932035 _11_ AGT  --- 482 cbr 532 [13a b 9 800] ------- [9:2 11:0 32 11] [7] 1 2
s 56.420913066 _12_ AGT  --- 484 cbr 512 [0 0 0 0] ------- [12:2 14:0 32 0] [4] 0 2
r 56.426551716 _14_ AGT  --- 484 cbr 532 [13a e c 800] ------- [12:2 14:0 32 14] [4] 1 2
s 57.100632816 _16_ AGT  --- 485 cbr 512 [0 0 0 0] ------- [16:0 17:0 32 0] [8] 0 1
r 57.106230567 _17_ AGT  --- 485 cbr 532 [13a 11 10 800] ------- [16:0 17:0 32 17] [8] 1 1
s 57.568974586 _18_ AGT  --- 486 cbr 512 [0 0 0 0] ------- [18:1 20:0 32 0] [8] 0 2
r 57.574493803 _20_ AGT  --- 486 cbr 532 [13a 14 12 800] ------- [18:1 20:0 32 20] [8] 1 2
s 57.745917765 _8_ AGT  --- 487 cbr 512 [0 0 0 0] ------- [8:1 10:0 32 0] [6] 0 2
r 57.757001833 _10_ AGT  --- 487 cbr 532 [13a a 8 800] ------- [8:1 10:0 32 10] [6] 1 2
s 58.417310346 _9_ AGT  --- 488 cbr 512 [0 0 0 0] ------- [9:2 11:0 32 0] [8] 0 2
r 58.422889353 _11_ AGT  --- 488 cbr 532 [13a b 9 800] ------- [9:2 11:0 32 11] [8] 1 2
s 59.354159232 _12_ AGT  --- 489 cbr 512 [0 0 0 0] ------- [12:2 14:0 32 0] [5] 0 2
r 59.360017882 _14_ AGT  --- 489 cbr 532 [13a e c 800] ------- [12:2 14:0 32 14] [5] 1 2
s 60.466035920 _13_ AGT  --- 492 cbr 512 [0 0 0 0] ------- [13:2 14:1 32 0] [8] 0 3
r 60.477660178 _14_ AGT  --- 492 cbr 532 [13a e d 800] ------- [13:2 14:1 32 14] [8] 1 3
s 61.204233015 _18_ AGT  --- 495 cbr 512 [0 0 0 0] ------- [18:1 20:0 32 0] [9] 0 2
r 61.210112232 _20_ AGT  --- 495 cbr 532 [13a 14 12 800] ------- [18:1 20:0 32 20] [9] 1 2
s 62.341832012 _16_ AGT  --- 500 cbr 512 [0 0 0 0] ------- [16:0 17:0 32 0] [9] 0 1
r 62.351217789 _17_ AGT  --- 500 cbr 532 [13a 11 10 800] ------- [16:0 17:0 32 17] [9] 1 1
s 62.671796586 _9_ AGT  --- 503 cbr 512 [0 0 0 0] ------- [9:2 11:0 32 0] [9] 0 2
r 62.678895593 _11_ AGT  --- 503 cbr 532 [13a b 9 800] ------- [9:2 11:0 32 11] [9] 1 2
s 62.721553453 _13_ AGT  --- 505 cbr 512 [0 0 0 0] ------- [13:2 14:1 32 0] [9] 0 3
r 62.727074408 _14_ AGT  --- 505 cbr 532 [13a e d 800] ------- [13:2 14:1 32 14] [9] 1 3
s 63.009609023 _8_ AGT  --- 506 cbr 512 [0 0 0 0] ------- [8:1 10:0 32 0] [7] 0 2
r 63.050756319 _10_ AGT  --- 506 cbr 532 [13a a 8 800] ------- [8:1 10:0 32 10] [7] 1 2
s 63.201785954 _12_ AGT  --- 508 cbr 512 [0 0 0 0] ------- [12:2 14:0 32 0] [6] 0 2
r 63.207744603 _14_ AGT  --- 508 cbr 532 [13a e c 800] ------- [12:2 14:0 32 14] [6] 1 2
s 65.289060820 _16_ AGT  --- 524 cbr 512 [0 0 0 0] ------- [16:0 17:0 32 0] [10] 0 1
r 65.294858571 _17_ AGT  --- 524 cbr 532 [13a 11 10 800] ------- [16:0 17:0 32 17] [10] 1 1
s 66.034451752 _13_ AGT  --- 533 cbr 512 [0 0 0 0] ------- [13:2 14:1 32 0] [10] 0 3
r 66.051479376 _14_ AGT  --- 533 cbr 532 [13a e d 800] ------- [13:2 14:1 32 14] [10] 1 3
s 66.502705828 _18_ AGT  --- 540 cbr 512 [0 0 0 0] ------- [18:1 20:0 32 0] [10] 0 2
r 66.508485046 _20_ AGT  --- 540 cbr 532 [13a 14 12 800] ------- [18:1 20:0 32 20] [10] 1 2
s 67.404225701 _8_ AGT  --- 543 cbr 512 [0 0 0 0] ------- [8:1 10:0 32 0] [8] 0 2
r 67.415753769 _10_ AGT  --- 543 cbr 532 [13a a 8 800] ------- [8:1 10:0 32 10] [8] 1 2
s 68.008567714 _9_ AGT  --- 546 cbr 512 [0 0 0 0] ------- [9:2 11:0 32 0] [10] 0 2
r 68.014226721 _11_ AGT  --- 546 cbr 532 [13a b 9 800] ------- [9:2 11:0 32 11] [10] 1 2
s 68.142927503 _16_ AGT  --- 548 cbr 512 [0 0 0 0] ------- [16:0 17:0 32 0] [11] 0 1
r 68.148845254 _17_ AGT  --- 548 cbr 532 [13a 11 10 800] ------- [16:0 17:0 32 17] [11] 1 1
s 68.797968049 _13_ AGT  --- 552 cbr 512 [0 0 0 0] ------- [13:2 14:1 32 0] [11] 0 3
r 68.803569004 _14_ AGT  --- 552 cbr 532 [13a e d 800] ------- [13:2 14:1 32 14] [11] 1 3
s 68.990794325 _12_ AGT  --- 553 cbr 512 [0 0 0 0] ------- [12:2 14:0 32 0] [7] 0 2
r 68.996292975 _14_ AGT  --- 553 cbr 532 [13a e c 800] ------- [12:2 14:0 32 14] [7] 1 2
s 69.795764846 _18_ AGT  --- 555 cbr 512 [0 0 0 0] ------- [18:1 20:0 32 0] [11] 0 2
r 69.801464064 _20_ AGT  --- 555 cbr 532 [13a 14 12 800] ------- [18:1 20:0 32 20] [11] 1 2
s 69.996967289 _8_ AGT  --- 556 cbr 512 [0 0 0 0] ------- [8:1 10:0 32 0] [9] 0 2
r 70.010655357 _10_ AGT  --- 556 cbr 532 [13a a 8 800] ------- [8:1 10:0 32 10] [9] 1 2
s 71.543390297 _16_ AGT  --- 558 cbr 512 [0 0 0 0] ------- [16:0 17:0 32 0] [12] 0 1
r 71.549108049 _17_ AGT  --- 558 cbr 532 [13a 11 10 800] ------- [16:0 17:0 32 17] [12] 1 1
s 72.572163819 _13_ AGT  --- 561 cbr 512 [0 0 0 0] ------- [13:2 14:1 32 0] [12] 0 3
r 72.598744379 _14_ AGT  --- 561 cbr 532 [13a e 25 800] ------- [13:2 14:1 31 14] [12] 2 3
s 72.897017723 _9_ AGT  --- 562 cbr 512 [0 0 0 0] ------- [9:2 11:0 32 0] [11] 0 2
r 72.902756729 _11_ AGT  --- 562 cbr 532 [13a b 9 800] ------- [9:2 11:0 32 11] [11] 1 2
s 74.376855991 _18_ AGT  --- 565 cbr 512 [0 0 0 0] ------- [18:1 20:0 32 0] [12] 0 2
r 74.382815208 _20_ AGT  --- 565 cbr 532 [13a 14 12 800] ------- [18:1 20:0 32 20] [12] 1 2
s 74.563036195 _12_ AGT  --- 567 cbr 512 [0 0 0 0] ------- [12:2 14:0 32 0] [8] 0 2
r 74.568674844 _14_ AGT  --- 567 cbr 532 [13a e c 800] ------- [12:2 14:0 32 14] [8] 1 2
s 74.975341314 _8_ AGT  --- 569 cbr 512 [0 0 0 0] ------- [8:1 10:0 32 0] [10] 0 2
r 74.981242155 _10_ AGT  --- 569 cbr 532 [13a a 8 800] ------- [8:1 10:0 32 10] [10] 1 2
s 75.477956243 _19_ AGT  --- 574 cbr 512 [0 0 0 0] ------- [19:1 20:1 32 0] [0] 0 3
r 75.506603633 _20_ AGT  --- 574 cbr 532 [13a 14 13 800] ------- [19:1 20:1 32 20] [0] 1 3
s 76.344303219 _16_ AGT  --- 579 cbr 512 [0 0 0 0] ------- [16:0 17:0 32 0] [13] 0 1
r 76.350240970 _17_ AGT  --- 579 cbr 532 [13a 11 10 800] ------- [16:0 17:0 32 17] [13] 1 1
s 76.609258355 _12_ AGT  --- 582 cbr 512 [0 0 0 0] ------- [12:2 14:0 32 0] [9] 0 2
r 76.615157004 _14_ AGT  --- 582 cbr 532 [13a e c 800] ------- [12:2 14:0 32 14] [9] 1 2
s 77.604526234 _8_ AGT  --- 591 cbr 512 [0 0 0 0] ------- [8:1 10:0 32 0] [11] 0 2
r 77.616470302 _10_ AGT  --- 591 cbr 532 [13a a 8 800] ------- [8:1 10:0 32 10] [11] 1 2
D 77.672670651 _8_ RTR  CBK 591 cbr 532 [13a a 8 800] ------- [8:1 10:0 32 10] [11] 0 2
s 77.787096137 _9_ AGT  --- 597 cbr 512 [0 0 0 0] ------- [9:2 11:0 32 0] [12] 0 2
r 77.793075144 _11_ AGT  --- 597 cbr 532 [13a b 9 800] ------- [9:2 11:0 32 11] [12] 1 2
s 78.351289060 _13_ AGT  --- 600 cbr 512 [0 0 0 0] ------- [13:2 14:1 32 0] [13] 0 3
r 78.363177319 _14_ AGT  --- 600 cbr 532 [13a e d 800] ------- [13:2 14:1 32 14] [13] 1 3
s 78.444698295 _19_ AGT  --- 601 cbr 512 [0 0 0 0] ------- [19:1 20:1 32 0] [1] 0 3
r 78.458963092 _20_ AGT  --- 601 cbr 532 [13a 14 13 800] ------- [19:1 20:1 32 20] [1] 1 3
s 79.042140952 _18_ AGT  --- 607 cbr 512 [0 0 0 0] ------- [18:1 20:0 32 0] [13] 0 2
r 79.047800169 _20_ AGT  --- 607 cbr 532 [13a 14 12 800] ------- [18:1 20:0 32 20] [13] 1 2
s 79.371595438 _2_ AGT  --- 610 cbr 512 [0 0 0 0] ------- [2:1 3:1 32 0] [0] 0 3
r 79.408572835 _3_ AGT  --- 610 cbr 532 [13a 3 2 800] ------- [2:1 3:1 32 3] [0] 1 3
s 80.341688258 _9_ AGT  --- 616 cbr 512 [0 0 0 0] ------- [9:2 11:0 32 0] [13] 0 2
r 80.347387265 _11_ AGT  --- 616 cbr 532 [13a b 9 800] ------- [9:2 11:0 32 11] [13] 1 2
s 81.278336441 _16_ AGT  --- 619 cbr 512 [0 0 0 0] ------- [16:0 17:0 32 0] [14] 0 1
r 81.284134193 _17_ AGT  --- 619 cbr 532 [13a 11 10 800] ------- [16:0 17:0 32 17] [14] 1 1
s 81.407658461 _12_ AGT  --- 621 cbr 512 [0 0 0 0] ------- [12:2 14:0 32 0] [10] 0 2
r 81.413337111 _14_ AGT  --- 621 cbr 532 [13a e c 800] ------- [12:2 14:0 32 14] [10] 1 2
s 82.154274146 _2_ AGT  --- 624 cbr 512 [0 0 0 0] ------- [2:1 3:1 32 0] [1] 0 3
r 82.178166206 _3_ AGT  --- 624 cbr 532 [13a 3 2 800] ------- [2:1 3:1 32 3] [1] 1 3
D 82.217779266 _2_ RTR  CBK 624 cbr 532 [13a 3 2 800] ------- [2:1 3:1 32 3] [1] 0 3
s 82.399303759 _13_ AGT  --- 625 cbr 512 [0 0 0 0] ------- [13:2 14:1 32 0] [14] 0 3
r 82.405264714 _14_ AGT  --- 625 cbr 532 [13a e d 800] ------- [13:2 14:1 32 14] [14] 1 3
s 82.867036919 _8_ AGT  --- 627 cbr 512 [0 0 0 0] ------- [8:1 10:0 32 0] [12] 0 2
r 82.873597760 _10_ AGT  --- 627 cbr 532 [13a a 8 800] ------- [8:1 10:0 32 10] [12] 1 2
s 83.518657395 _19_ AGT  --- 629 cbr 512 [0 0 0 0] ------- [19:1 20:1 32 0] [2] 0 3
r 83.524498673 _20_ AGT  --- 629 cbr 532 [13a 14 13 800] ------- [19:1 20:1 32 20] [2] 1 3
s 83.602217233 _18_ AGT  --- 631 cbr 512 [0 0 0 0] ------- [18:0 19:0 32 0] [0] 0 3
r 83.609438557 _19_ AGT  --- 631 cbr 532 [13a 13 12 800] ------- [18:0 19:0 32 19] [0] 1 3
s 83.644134711 _20_ AGT  --- 632 cbr 512 [0 0 0 0] ------- [20:2 21:0 32 0] [0] 0 1
r 83.652647296 _21_ AGT  --- 632 cbr 532 [13a 15 14 800] ------- [20:2 21:0 32 21] [0] 1 1
s 83.661694326 _9_ AGT  --- 633 cbr 512 [0 0 0 0] ------- [9:2 11:0 32 0] [14] 0 2
r 83.667313333 _11_ AGT  --- 633 cbr 532 [13a b 9 800] ------- [9:2 11:0 32 11] [14] 1 2
s 83.929216647 _18_ AGT  --- 634 cbr 512 [0 0 0 0] ------- [18:1 20:0 32 0] [14] 0 2
r 83.936815864 _20_ AGT  --- 634 cbr 532 [13a 14 12 800] ------- [18:1 20:0 32 20] [14] 1 2
s 84.476692238 _16_ AGT  --- 636 cbr 512 [0 0 0 0] ------- [16:0 17:0 32 0] [15] 0 1
r 84.482629989 _17_ AGT  --- 636 cbr 532 [13a 11 10 800] ------- [16:0 17:0 32 17] [15] 1 1
s 86.064373193 _20_ AGT  --- 637 cbr 512 [0 0 0 0] ------- [20:2 21:0 32 0] [1] 0 1
r 86.069991587 _21_ AGT  --- 637 cbr 532 [13a 15 14 800] ------- [20:2 21:0 32 21] [1] 1 1
s 86.255967573 _2_ AGT  --- 638 cbr 512 [0 0 0 0] ------- [2:1 3:1 32 0] [2] 0 3
r 86.267856187 _3_ AGT  --- 638 cbr 532 [13a 3 2 800] ------- [2:1 3:1 32 3] [2] 1 3
s 86.311029655 _19_ AGT  --- 639 cbr 512 [0 0 0 0] ------- [19:1 20:1 32 0] [3] 0 3
r 86.316530933 _20_ AGT  --- 639 cbr 532 [13a 14 13 800] ------- [19:1 20:1 32 20] [3] 1 3
s 86.341765068 _13_ AGT  --- 640 cbr 512 [0 0 0 0] ------- [13:2 14:1 32 0] [15] 0 3
r 86.347326023 _14_ AGT  --- 640 cbr 532 [13a e d 800] ------- [13:2 14:1 32 14] [15] 1 3
s 86.425565868 _8_ AGT  --- 641 cbr 512 [0 0 0 0] ------- [8:1 10:0 32 0] [13] 0 2
r 86.437189936 _10_ AGT  --- 641 cbr 532 [13a a 8 800] ------- [8:1 10:0 32 10] [13] 1 2
s 87.309847254 _12_ AGT  --- 644 cbr 512 [0 0 0 0] ------- [12:2 14:0 32 0] [11] 0 2
r 87.315385903 _14_ AGT  --- 644 cbr 532 [13a e c 800] ------- [12:2 14:0 32 14] [11] 1 2
s 87.635731753 _18_ AGT  --- 645 cbr 512 [0 0 0 0] ------- [18:0 19:0 32 0] [1] 0 3
r 87.641533076 _19_ AGT  --- 645 cbr 532 [13a 13 12 800] ------- [18:0 19:0 32 19] [1] 1 3
s 88.261131189 _18_ AGT  --- 650 cbr 512 [0 0 0 0] ------- [18:1 20:0 32 0] [15] 0 2
r 88.266850407 _20_ AGT  --- 650 cbr 532 [13a 14 12 800] ------- [18:1 20:0 32 20] [15] 1 2
s 88.317532865 _2_ AGT  --- 651 cbr 512 [0 0 0 0] ------- [2:1 3:1 32 0] [3] 0 3
r 88.323634034 _3_ AGT  --- 651 cbr 532 [13a 3 2 800] ------- [2:1 3:1 32 3] [3] 1 3
s 88.442206588 _19_ AGT  --- 652 cbr 512 [0 0 0 0] ------- [19:1 20:1 32 0] [4] 0 3
r 88.447927866 _20_ AGT  --- 652 cbr 532 [13a 14 13 800] ------- [19:1 20:1 32 20] [4] 1 3
s 88.477428200 _8_ AGT  --- 653 cbr 512 [0 0 0 0] ------- [8:1 10:0 32 0] [14] 0 2
r 88.490136268 _10_ AGT  --- 653 cbr 532 [13a a 8 800] ------- [8:1 10:0 32 10] [14] 1 2
s 89.087463011 _9_ AGT  --- 655 cbr 512 [0 0 0 0] ------- [9:2 11:0 32 0] [15] 0 2
r 89.093222017 _11_ AGT  --- 655 cbr 532 [13a b 9 800] ------- [9:2 11:0 32 11] [15] 1 2
s 89.397974097 _16_ AGT  --- 660 cbr 512 [0 0 0 0] ------- [16:0 17:0 32 0] [16] 0 1
r 89.403591848 _17_ AGT  --- 660 cbr 532 [13a 11 10 800] ------- [16:0 17:0 32 17] [16] 1 1
s 89.710572739 _18_ AGT  --- 663 cbr 512 [0 0 0 0] ------- [18:0 19:0 32 0] [2] 0 3
r 89.717574062 _19_ AGT  --- 663 cbr 532 [13a 13 12 800] ------- [18:0 19:0 32 19] [2] 1 3
s 90.314579343 _20_ AGT  --- 671 cbr 512 [0 0 0 0] ------- [20:2 21:0 32 0] [2] 0 1
r 90.320517737 _21_ AGT  --- 671 cbr 532 [13a 15 14 800] ------- [20:2 21:0 32 21] [2] 1 1
s 90.608159690 _12_ AGT  --- 674 cbr 512 [0 0 0 0] ------- [12:2 14:0 32 0] [12] 0 2
r 90.613798339 _14_ AGT  --- 674 cbr 532 [13a e c 800] ------- [12:2 14:0 32 14] [12] 1 2
s 90.784179463 _13_ AGT  --- 676 cbr 512 [0 0 0 0] ------- [13:2 14:1 32 0] [16] 0 3
r 90.796607721 _14_ AGT  --- 676 cbr 532 [13a e d 800] ------- [13:2 14:1 32 14] [16] 1 3
s 91.782410822 _2_ AGT  --- 687 cbr 512 [0 0 0 0] ------- [2:1 3:1 32 0] [4] 0 3
r 91.794375436 _3_ AGT  --- 687 cbr 532 [13a 3 2 800] ------- [2:1 3:1 32 3] [4] 1 3
s 92.067342508 _18_ AGT  --- 689 cbr 512 [0 0 0 0] ------- [18:0 19:0 32 0] [3] 0 3
r 92.073083832 _19_ AGT  --- 689 cbr 532 [13a 13 12 800] ------- [18:0 19:0 32 19] [3] 1 3
s 92.140851659 _8_ AGT  --- 690 cbr 512 [0 0 0 0] ------- [8:1 10:0 32 0] [15] 0 2
r 92.146892499 _10_ AGT  --- 690 cbr 532 [13a a 8 800] ------- [8:1 10:0 32 10] [15] 1 2
s 92.567904244 _20_ AGT  --- 692 cbr 512 [0 0 0 0] ------- [20:2 21:0 32 0] [3] 0 1
r 92.573902638 _21_ AGT  --- 692 cbr 532 [13a 15 14 800] ------- [20:2 21:0 32 21] [3] 1 1
s 92.973223628 _16_ AGT  --- 695 cbr 512 [0 0 0 0] ------- [16:0 17:0 32 0] [17] 0 1
r 92.979201379 _17_ AGT  --- 695 cbr 532 [13a 11 10 800] ------- [16:0 17:0 32 17] [17] 1 1
s 93.087104392 _13_ AGT  --- 696 cbr 512 [0 0 0 0] ------- [13:2 14:1 32 0] [17] 0 3
s 93.092825372 _9_ AGT  --- 697 cbr 512 [0 0 0 0] ------- [9:2 11:0 32 0] [16] 0 2
r 93.116810083 _11_ AGT  --- 697 cbr 532 [13a b 9 800] ------- [9:2 11:0 32 11] [16] 1 2
r 93.123661241 _14_ AGT  --- 696 cbr 532 [13a e d 800] ------- [13:2 14:1 32 14] [17] 1 3
s 93.622904699 _18_ AGT  --- 701 cbr 512 [0 0 0 0] ------- [18:1 20:0 32 0] [16] 0 2
r 93.628763916 _20_ AGT  --- 701 cbr 532 [13a 14 12 800] ------- [18:1 20:0 32 20] [16] 1 2
s 94.440154157 _19_ AGT  --- 703 cbr 512 [0 0 0 0] ------- [19:1 20:1 32 0] [5] 0 3
r 94.445655435 _20_ AGT  --- 703 cbr 532 [13a 14 13 800] ------- [19:1 20:1 32 20] [5] 1 3
s 95.825841909 _13_ AGT  --- 710 cbr 512 [0 0 0 0] ------- [13:2 14:1 32 0] [18] 0 3
r 95.843626168 _14_ AGT  --- 710 cbr 532 [13a e d 800] ------- [13:2 14:1 32 14] [18] 1 3
s 95.884937685 _18_ AGT  --- 711 cbr 512 [0 0 0 0] ------- [18:0 19:0 32 0] [4] 0 3
r 95.933193657 _19_ AGT  --- 711 cbr 532 [13a 13 12 800] ------- [18:0 19:0 32 19] [4] 1 3
s 96.376183729 _12_ AGT  --- 713 cbr 512 [0 0 0 0] ------- [12:2 14:0 32 0] [13] 0 2
r 96.381722378 _14_ AGT  --- 713 cbr 532 [13a e c 800] ------- [12:2 14:0 32 14] [13] 1 2
s 96.755261369 _2_ AGT  --- 715 cbr 512 [0 0 0 0] ------- [2:1 3:1 32 0] [5] 0 3
r 96.773153522 _3_ AGT  --- 715 cbr 532 [13a 3 0 800] ------- [2:1 3:1 31 3] [5] 2 3
s 96.892185450 _16_ AGT  --- 716 cbr 512 [0 0 0 0] ------- [16:0 17:0 32 0] [18] 0 1
r 96.898243201 _17_ AGT  --- 716 cbr 532 [13a 11 10 800] ------- [16:0 17:0 32 17] [18] 1 1
s 96.928879857 _8_ AGT  --- 717 cbr 512 [0 0 0 0] ------- [8:1 10:0 32 0] [16] 0 2
r 96.934840698 _10_ AGT  --- 717 cbr 532 [13a a 8 800] ------- [8:1 10:0 32 10] [16] 1 2
s 98.109984615 _20_ AGT  --- 719 cbr 512 [0 0 0 0] ------- [20:2 21:0 32 0] [4] 0 1
r 98.115683009 _21_ AGT  --- 719 cbr 532 [13a 15 14 800] ------- [20:2 21:0 32 21] [4] 1 1
s 98.266267753 _19_ AGT  --- 720 cbr 512 [0 0 0 0] ------- [19:1 20:1 32 0] [6] 0 3
r 98.280032550 _20_ AGT  --- 720 cbr 532 [13a 14 13 800] ------- [19:1 20:1 32 20] [6] 1 3
s 98.823498249 _9_ AGT  --- 721 cbr 512 [0 0 0 0] ------- [9:2 11:0 32 0] [17] 0 2
r 98.829577256 _11_ AGT  --- 721 cbr 532 [13a b 9 800] ------- [9:2 11:0 32 11] [17] 1 2
s 98.940162075 _18_ AGT  --- 722 cbr 512 [0 0 0 0] ------- [18:1 20:0 32 0] [17] 0 2
r 98.946161292 _20_ AGT  --- 722 cbr 532 [13a 14 12 800] ------- [18:1 20:0 32 20] [17] 1 2
s 99.873754902 _2_ AGT  --- 723 cbr 512 [0 0 0 0] ------- [2:1 3:1 32 0] [6] 0 3
r 99.885296967 _3_ AGT  --- 723 cbr 532 [13a 3 0 800] ------- [2:1 3:1 31 3] [6] 2 3
s 101.060268495 _18_ AGT  --- 729 cbr 512 [0 0 0 0] ------- [18:0 19:0 32 0] [5] 0 3
r 101.066189819 _19_ AGT  --- 729 cbr 532 [13a 13 12 800] ------- [18:0 19:0 32 19] [5] 1 3
s 101.197263197 _8_ AGT  --- 730 cbr 512 [0 0 0 0] ------- [8:1 10:0 32 0] [17] 0 2
r 101.205084038 _10_ AGT  --- 730 cbr 532 [13a a 8 800] ------- [8:1 10:0 32 10] [17] 1 2
s 101.447786202 _16_ AGT  --- 732 cbr 512 [0 0 0 0] ------- [16:0 17:0 32 0] [19] 0 1
r 101.453403953 _17_ AGT  --- 732 cbr 532 [13a 11 10 800] ------- [16:0 17:0 32 17] [19] 1 1
s 101.529922804 _13_ AGT  --- 733 cbr 512 [0 0 0 0] ------- [13:2 14:1 32 0] [19] 0 3
r 101.535903759 _14_ AGT  --- 733 cbr 532 [13a e d 800] ------- [13:2 14:1 32 14] [19] 1 3
s 101.561258633 _12_ AGT  --- 734 cbr 512 [0 0 0 0] ------- [12:2 14:0 32 0] [14] 0 2
r 101.566757282 _14_ AGT  --- 734 cbr 532 [13a e c 800] ------- [12:2 14:0 32 14] [14] 1 2
s 103.040106818 _20_ AGT  --- 745 cbr 512 [0 0 0 0] ------- [20:2 21:0 32 0] [5] 0 1
r 103.045985211 _21_ AGT  --- 745 cbr 532 [13a 15 14 800] ------- [20:2 21:0 32 21] [5] 1 1
s 103.527816377 _18_ AGT  --- 749 cbr 512 [0 0 0 0] ------- [18:1 20:0 32 0] [18] 0 2
r 103.533355595 _20_ AGT  --- 749 cbr 532 [13a 14 12 800] ------- [18:1 20:0 32 20] [18] 1 2
s 104.143993137 _18_ AGT  --- 755 cbr 512 [0 0 0 0] ------- [18:0 19:0 32 0] [6] 0 3
r 104.156498011 _19_ AGT  --- 755 cbr 532 [13a 13 12 800] ------- [18:0 19:0 32 19] [6] 1 3
s 104.185411301 _2_ AGT  --- 758 cbr 512 [0 0 0 0] ------- [2:1 3:1 32 0] [7] 0 3
r 104.198388859 _3_ AGT  --- 758 cbr 532 [13a 3 0 800] ------- [2:1 3:1 31 3] [7] 2 3
s 104.238431836 _19_ AGT  --- 759 cbr 512 [0 0 0 0] ------- [19:1 20:1 32 0] [7] 0 3
r 104.244053114 _20_ AGT  --- 759 cbr 532 [13a 14 13 800] ------- [19:1 20:1 32 20] [7] 1 3
s 104.532724634 _13_ AGT  --- 762 cbr 512 [0 0 0 0] ------- [13:2 14:1 32 0] [20] 0 3
r 104.538725589 _14_ AGT  --- 762 cbr 532 [13a e d 800] ------- [13:2 14:1 32 14] [20] 1 3
s 104.752437307 _9_ AGT  --- 765 cbr 512 [0 0 0 0] ------- [9:2 11:0 32 0] [18] 0 2
r 104.758476313 _11_ AGT  --- 765 cbr 532 [13a b 9 800] ------- [9:2 11:0 32 11] [18] 1 2
s 105.068686356 _16_ AGT  --- 768 cbr 512 [0 0 0 0] ------- [16:0 17:0 32 0] [20] 0 1
r 105.074644107 _17_ AGT  --- 768 cbr 532 [13a 11 10 800] ------- [16:0 17:0 32 17] [20] 1 1
s 105.130457438 _8_ AGT  --- 771 cbr 512 [0 0 0 0] ------- [8:1 10:0 32 0] [18] 0 2
r 105.136518279 _10_ AGT  --- 771 cbr 532 [13a a 8 800] ------- [8:1 10:0 32 10] [18] 1 2
s 105.653068732 _18_ AGT  --- 776 cbr 512 [0 0 0 0] ------- [18:1 20:0 32 0] [19] 0 2
r 105.658567949 _20_ AGT  --- 776 cbr 532 [13a 14 12 800] ------- [18:1 20:0 32 20] [19] 1 2
s 106.083234244 _12_ AGT  --- 778 cbr 512 [0 0 0 0] ------- [12:1 13:1 32 0] [0] 0 2
r 106.088994037 _13_ AGT  --- 778 cbr 532 [13a d c 800] ------- [12:1 13:1 32 13] [0] 1 2
s 106.825239806 _9_ AGT  --- 780 cbr 512 [0 0 0 0] ------- [9:2 11:0 32 0] [19] 0 2
r 106.830738813 _11_ AGT  --- 780 cbr 532 [13a b 9 800] ------- [9:2 11:0 32 11] [19] 1 2
s 107.112285772 _12_ AGT  --- 782 cbr 512 [0 0 0 0] ------- [12:2 14:0 32 0] [15] 0 2
r 107.118344421 _14_ AGT  --- 782 cbr 532 [13a e c 800] ------- [12:2 14:0 32 14] [15] 1 2
s 107.246340891 _20_ AGT  --- 783 cbr 512 [0 0 0 0] ------- [20:2 21:0 32 0] [6] 0 1
r 107.252159284 _21_ AGT  --- 783 cbr 532 [13a 15 14 800] ------- [20:2 21:0 32 21] [6] 1 1
s 107.682158218 _8_ AGT  --- 789 cbr 512 [0 0 0 0] ------- [8:1 10:0 32 0] [19] 0 2
r 107.693926286 _10_ AGT  --- 789 cbr 532 [13a a 8 800] ------- [8:1 10:0 32 10] [19] 1 2
s 108.263820402 _18_ AGT  --- 791 cbr 512 [0 0 0 0] ------- [18:0 19:0 32 0] [7] 0 3
r 108.310746865 _19_ AGT  --- 791 cbr 532 [13a 13 2e 800] ------- [18:0 19:0 31 19] [7] 2 3
s 109.016306189 _2_ AGT  --- 792 cbr 512 [0 0 0 0] ------- [2:1 3:1 32 0] [8] 0 3
r 109.022307358 _3_ AGT  --- 792 cbr 532 [13a 3 2 800] ------- [2:1 3:1 32 3] [8] 1 3
s 109.311118175 _13_ AGT  --- 794 cbr 512 [0 0 0 0] ------- [13:2 14:1 32 0] [21] 0 3
r 109.317079130 _14_ AGT  --- 794 cbr 532 [13a e d 800] ------- [13:2 14:1 32 14] [21] 1 3
s 109.490795524 _16_ AGT  --- 795 cbr 512 [0 0 0 0] ------- [16:0 17:0 32 0] [21] 0 1
r 109.496573275 _17_ AGT  --- 795 cbr 532 [13a 11 10 800] ------- [16:0 17:0 32 17] [21] 1 1
s 109.497742799 _9_ AGT  --- 796 cbr 512 [0 0 0 0] ------- [9:2 11:0 32 0] [20] 0 2
r 109.503481806 _11_ AGT  --- 796 cbr 532 [13a b 9 800] ------- [9:2 11:0 32 11] [20] 1 2
s 109.565752691 _19_ AGT  --- 797 cbr 512 [0 0 0 0] ------- [19:1 20:1 32 0] [8] 0 3
r 109.579877488 _20_ AGT  --- 797 cbr 532 [13a 14 13 800] ------- [19:1 20:1 32 20] [8] 1 3
s 109.925851802 _8_ AGT  --- 798 cbr 512 [0 0 0 0] ------- [8:1 10:0 32 0] [20] 0 2
r 109.933612643 _10_ AGT  --- 798 cbr 532 [13a a 8 800] ------- [8:1 10:0 32 10] [20] 1 2
s 109.949111391 _12_ AGT  --- 799 cbr 512 [0 0 0 0] ------- [12:1 13:1 32 0] [1] 0 2
r 109.955091184 _13_ AGT  --- 799 cbr 532 [13a d c 800] ------- [12:1 13:1 32 13] [1] 1 2
s 109.956132885 _12_ AGT  --- 800 cbr 512 [0 0 0 0] ------- [12:2 14:0 32 0] [16] 0 2
r 109.961871535 _14_ AGT  --- 800 cbr 532 [13a e c 800] ------- [12:2 14:0 32 14] [16] 1 2
s 110.052417605 _11_ AGT  --- 801 cbr 512 [0 0 0 0] ------- [11:3 13:0 32 0] [0] 0 3
D 110.078743415 _11_ RTR  CBK 801 cbr 532 [13a d b 800] ------- [11:3 13:0 32 13] [0] 0 3
s 111.462432202 _18_ AGT  --- 803 cbr 512 [0 0 0 0] ------- [18:1 20:0 32 0] [20] 0 2
r 111.468171420 _20_ AGT  --- 803 cbr 532 [13a 14 12 800] ------- [18:1 20:0 32 20] [20] 1 2
s 112.426911015 _20_ AGT  --- 805 cbr 512 [0 0 0 0] ------- [20:2 21:0 32 0] [7] 0 1
r 112.432929408 _21_ AGT  --- 805 cbr 532 [13a 15 14 800] ------- [20:2 21:0 32 21] [7] 1 1
s 112.980094803 _8_ AGT  --- 806 cbr 512 [0 0 0 0] ------- [8:1 10:0 32 0] [21] 0 2
r 112.986075644 _10_ AGT  --- 806 cbr 532 [13a a 8 800] ------- [8:1 10:0 32 10] [21] 1 2
s 113.681022770 _12_ AGT  --- 809 cbr 512 [0 0 0 0] ------- [12:2 14:0 32 0] [17] 0 2
r 113.686961419 _14_ AGT  --- 809 cbr 532 [13a e c 800] ------- [12:2 14:0 32 14] [17] 1 2
s 113.872233576 _2_ AGT  --- 810 cbr 512 [0 0 0 0] ------- [2:1 3:1 32 0] [9] 0 3
r 113.886038190 _3_ AGT  --- 810 cbr 532 [13a 3 2 800] ------- [2:1 3:1 32 3] [9] 1 3
s 114.014536671 _19_ AGT  --- 811 cbr 512 [0 0 0 0] ------- [19:1 20:1 32 0] [9] 0 3
r 114.021577949 _20_ AGT  --- 811 cbr 532 [13a 14 13 800] ------- [19:1 20:1 32 20] [9] 1 3
s 114.052123879 _11_ AGT  --- 812 cbr 512 [0 0 0 0] ------- [11:3 13:0 32 0] [1] 0 3
D 114.095543450 _11_ RTR  CBK 812 cbr 532 [13a d b 800] ------- [11:3 13:0 32 13] [1] 0 3
s 114.169065650 _18_ AGT  --- 814 cbr 512 [0 0 0 0] ------- [18:0 19:0 32 0] [8] 0 3
r 114.184127006 _19_ AGT  --- 814 cbr 532 [13a 13 2e 800] ------- [18:0 19:0 31 19] [8] 2 3
s 114.564393793 _16_ AGT  --- 819 cbr 512 [0 0 0 0] ------- [16:0 17:0 32 0] [22] 0 1
r 114.570351545 _17_ AGT  --- 819 cbr 532 [13a 11 10 800] ------- [16:0 17:0 32 17] [22] 1 1
s 114.635578397 _13_ AGT  --- 820 cbr 512 [0 0 0 0] ------- [13:2 14:1 32 0] [22] 0 3
r 114.648146655 _14_ AGT  --- 820 cbr 532 [13a e d 800] ------- [13:2 14:1 32 14] [22] 1 3
s 115.283072267 _9_ AGT  --- 827 cbr 512 [0 0 0 0] ------- [9:2 11:0 32 0] [21] 0 2
r 115.289071274 _11_ AGT  --- 827 cbr 532 [13a b 9 800] ------- [9:2 11:0 32 11] [21] 1 2