s 0.000001000 _0_ AGT  --- 1190071889 diffusion 0 [0 0 0 0] ------- [0:254 0:255 32 0] 
s 0.000001000 _1_ AGT  --- 528599277 diffusion 0 [0 0 0 0] ------- [1:254 1:255 32 0] 
s 0.000001000 _2_ AGT  --- 1566500007 diffusion 0 [0 0 0 0] ------- [2:254 2:255 32 0] 
s 0.000001000 _3_ AGT  --- 1437693523 diffusion 0 [0 0 0 0] ------- [3:254 3:255 32 0] 
s 0.000001000 _4_ AGT  --- 300615853 diffusion 0 [0 0 0 0] ------- [4:254 4:255 32 0] 
s 0.000001000 _5_ AGT  --- 905258839 diffusion 0 [0 0 0 0] ------- [5:254 5:255 32 0] 
s 0.000001000 _6_ AGT  --- 1811076627 diffusion 0 [0 0 0 0] ------- [6:254 6:255 32 0] 
s 0.000001000 _7_ AGT  --- 1732828135 diffusion 0 [0 0 0 0] ------- [7:254 7:255 32 0] 
s 0.000001000 _8_ AGT  --- 379185994 diffusion 0 [0 0 0 0] ------- [8:254 8:255 32 0] 
s 0.000001000 _9_ AGT  --- 1003364341 diffusion 0 [0 0 0 0] ------- [9:254 9:255 32 0] 
s 0.010001000 _2_ AGT  --- 1566500008 diffusion 0 [0 0 0 0] ------- [2:254 2:255 32 0] 
r 0.010002000 _2_ AGT  --- 580900445 diffusion 0 [0 0 0 0] ------- [2:255 2:254 32 0] 
s 0.133001000 _3_ AGT  --- 1437693524 diffusion 0 [0 0 0 0] ------- [3:254 3:255 32 0] 
r 0.133002000 _3_ AGT  --- 1223941496 diffusion 0 [0 0 0 0] ------- [3:255 3:254 32 0] 
s 0.256001000 _4_ AGT  --- 300615854 diffusion 0 [0 0 0 0] ------- [4:254 4:255 32 0] 
r 0.256002000 _4_ AGT  --- 611591120 diffusion 0 [0 0 0 0] ------- [4:255 4:254 32 0] 
s 0.379001000 _5_ AGT  --- 905258840 diffusion 0 [0 0 0 0] ------- [5:254 5:255 32 0] 
r 0.379002000 _5_ AGT  --- 885480288 diffusion 0 [0 0 0 0] ------- [5:255 5:254 32 0] 
s 1.466001000 _9_ AGT  --- 1003364342 diffusion 0 [0 0 0 0] ------- [9:254 9:255 32 0] 
r 1.466002000 _9_ AGT  --- 495722036 diffusion 0 [0 0 0 0] ------- [9:255 9:254 32 0] 
s 1.568003000 _9_ AGT  --- 1003364343 diffusion 0 [0 0 0 0] ------- [9:254 9:255 32 0] 
r 1.568948328 _2_ AGT  --- 580900446 diffusion 0 [0 0 0 0] ------- [2:255 2:254 32 0] 
r 1.568948342 _3_ AGT  --- 1223941497 diffusion 0 [0 0 0 0] ------- [3:255 3:254 32 0] 
r 1.568948426 _7_ AGT  --- 394266824 diffusion 0 [0 0 0 0] ------- [7:255 7:254 32 0] 
r 1.568948536 _4_ AGT  --- 611591121 diffusion 0 [0 0 0 0] ------- [4:255 4:254 32 0] 
s 1.568949328 _2_ AGT  --- 1566500009 diffusion 0 [0 0 0 0] ------- [2:254 2:255 32 0] 
s 1.568949342 _3_ AGT  --- 1437693525 diffusion 0 [0 0 0 0] ------- [3:254 3:255 32 0] 
s 1.568949536 _4_ AGT  --- 300615855 diffusion 0 [0 0 0 0] ------- [4:254 4:255 32 0] 
r 1.568950328 _2_ AGT  --- 0 diffusion 0 [0 0 0 0] ------- [2:255 2:254 32 0] 
r 1.568950342 _3_ AGT  --- 0 diffusion 0 [0 0 0 0] ------- [3:255 3:254 32 0] 
r 1.568950536 _4_ AGT  --- 0 diffusion 0 [0 0 0 0] ------- [4:255 4:254 32 0] 
s 1.657949342 _3_ AGT  --- 1437693526 diffusion 0 [0 0 0 0] ------- [3:254 3:255 32 0] 
r 1.658694536 _4_ AGT  --- 611591122 diffusion 0 [0 0 0 0] ------- [4:255 4:254 32 0] 
r 1.658694685 _9_ AGT  --- 495722037 diffusion 0 [0 0 0 0] ------- [9:255 9:254 32 0] 
r 1.658694795 _2_ AGT  --- 580900447 diffusion 0 [0 0 0 0] ------- [2:255 2:254 32 0] 
r 1.658694941 _1_ AGT  --- 1225933899 diffusion 0 [0 0 0 0] ------- [1:255 1:254 32 0] 
r 1.658695110 _7_ AGT  --- 394266825 diffusion 0 [0 0 0 0] ------- [7:255 7:254 32 0] 
r 1.658695159 _6_ AGT  --- 557533818 diffusion 0 [0 0 0 0] ------- [6:255 6:254 32 0] 
s 1.674949328 _2_ AGT  --- 1566500010 diffusion 0 [0 0 0 0] ------- [2:254 2:255 32 0] 
r 1.676014656 _9_ AGT  --- 495722038 diffusion 0 [0 0 0 0] ------- [9:255 9:254 32 0] 
r 1.676014780 _3_ AGT  --- 1223941498 diffusion 0 [0 0 0 0] ------- [3:255 3:254 32 0] 
r 1.676014885 _7_ AGT  --- 394266826 diffusion 0 [0 0 0 0] ------- [7:255 7:254 32 0] 
r 1.676014918 _4_ AGT  --- 611591123 diffusion 0 [0 0 0 0] ------- [4:255 4:254 32 0] 
r 1.676015038 _1_ AGT  --- 1225933900 diffusion 0 [0 0 0 0] ------- [1:255 1:254 32 0] 
s 1.688949426 _7_ AGT  --- 1732828136 diffusion 0 [0 0 0 0] ------- [7:254 7:255 32 0] 
s 1.688949536 _4_ AGT  --- 300615856 diffusion 0 [0 0 0 0] ------- [4:254 4:255 32 0] 
r 1.689934730 _3_ AGT  --- 1223941499 diffusion 0 [0 0 0 0] ------- [3:255 3:254 32 0] 
r 1.689935012 _1_ AGT  --- 1225933901 diffusion 0 [0 0 0 0] ------- [1:255 1:254 32 0] 
r 1.689935071 _9_ AGT  --- 495722039 diffusion 0 [0 0 0 0] ------- [9:255 9:254 32 0] 
r 1.689935126 _2_ AGT  --- 580900448 diffusion 0 [0 0 0 0] ------- [2:255 2:254 32 0] 
r 1.689935340 _6_ AGT  --- 557533819 diffusion 0 [0 0 0 0] ------- [6:255 6:254 32 0] 
r 1.691073923 _9_ AGT  --- 495722040 diffusion 0 [0 0 0 0] ------- [9:255 9:254 32 0] 
r 1.691074054 _2_ AGT  --- 580900449 diffusion 0 [0 0 0 0] ------- [2:255 2:254 32 0] 
r 1.691074265 _3_ AGT  --- 1223941500 diffusion 0 [0 0 0 0] ------- [3:255 3:254 32 0] 
s 1.756696159 _6_ AGT  --- 1811076628 diffusion 0 [0 0 0 0] ------- [6:254 6:255 32 0] 
r 1.757501306 _8_ AGT  --- 1180591529 diffusion 0 [0 0 0 0] ------- [8:255 8:254 32 0] 
r 1.757501599 _0_ AGT  --- 2045655601 diffusion 0 [0 0 0 0] ------- [0:255 0:254 32 0] 
r 1.757501803 _5_ AGT  --- 885480289 diffusion 0 [0 0 0 0] ------- [5:255 5:254 32 0] 
r 1.757501963 _4_ AGT  --- 611591124 diffusion 0 [0 0 0 0] ------- [4:255 4:254 32 0] 
r 1.757501975 _3_ AGT  --- 1223941501 diffusion 0 [0 0 0 0] ------- [3:255 3:254 32 0] 
s 1.757502803 _5_ AGT  --- 905258841 diffusion 0 [0 0 0 0] ------- [5:254 5:255 32 0] 
r 1.757503803 _5_ AGT  --- 0 diffusion 0 [0 0 0 0] ------- [5:255 5:254 32 0] 
s 1.758695941 _1_ AGT  --- 528599278 diffusion 0 [0 0 0 0] ------- [1:254 1:255 32 0] 
r 1.759781418 _4_ AGT  --- 611591125 diffusion 0 [0 0 0 0] ------- [4:255 4:254 32 0] 
r 1.759781540 _3_ AGT  --- 1223941502 diffusion 0 [0 0 0 0] ------- [3:255 3:254 32 0] 
r 1.759781651 _2_ AGT  --- 580900450 diffusion 0 [0 0 0 0] ------- [2:255 2:254 32 0] 
s 1.853502803 _5_ AGT  --- 905258842 diffusion 0 [0 0 0 0] ------- [5:254 5:255 32 0] 
r 1.854248448 _6_ AGT  --- 557533820 diffusion 0 [0 0 0 0] ------- [6:255 6:254 32 0] 
r 1.854248527 _8_ AGT  --- 1180591530 diffusion 0 [0 0 0 0] ------- [8:255 8:254 32 0] 
s 1.855502599 _0_ AGT  --- 1190071890 diffusion 0 [0 0 0 0] ------- [0:254 0:255 32 0] 
r 1.856447917 _8_ AGT  --- 1180591531 diffusion 0 [0 0 0 0] ------- [8:255 8:254 32 0] 
r 1.856448039 _6_ AGT  --- 557533821 diffusion 0 [0 0 0 0] ------- [6:255 6:254 32 0] 
s 1.870502306 _8_ AGT  --- 379185995 diffusion 0 [0 0 0 0] ------- [8:254 8:255 32 0] 
r 1.871067454 _6_ AGT  --- 557533822 diffusion 0 [0 0 0 0] ------- [6:255 6:254 32 0] 
r 1.871067624 _0_ AGT  --- 2045655602 diffusion 0 [0 0 0 0] ------- [0:255 0:254 32 0] 
r 1.871068030 _5_ AGT  --- 885480290 diffusion 0 [0 0 0 0] ------- [5:255 5:254 32 0] 
s 5.000001000 _2_ AGT  --- 1566500011 diffusion 0 [0 0 0 0] ------- [2:254 2:255 32 0] 
r 5.000002000 _2_ AGT  --- 580900451 diffusion 0 [0 0 0 0] ------- [2:255 2:254 32 0] 
s 5.000003000 _2_ AGT  --- 1566500012 diffusion 0 [0 0 0 0] ------- [2:254 2:255 32 0] 
r 5.004417296 _9_ AGT  --- 495722041 diffusion 0 [0 0 0 0] ------- [9:255 9:254 32 0] 
s 5.004418296 _9_ AGT  --- 1003364344 diffusion 0 [0 0 0 0] ------- [9:254 9:255 32 0] 
r 5.004419296 _9_ AGT  --- 1566500011 diffusion 0 [0 0 0 0] ------- [9:255 9:254 32 0] 
s 5.123001000 _3_ AGT  --- 1437693527 diffusion 0 [0 0 0 0] ------- [3:254 3:255 32 0] 
r 5.123002000 _3_ AGT  --- 1223941503 diffusion 0 [0 0 0 0] ------- [3:255 3:254 32 0] 
s 5.123003000 _3_ AGT  --- 1437693528 diffusion 0 [0 0 0 0] ------- [3:254 3:255 32 0] 
r 5.127317396 _9_ AGT  --- 495722042 diffusion 0 [0 0 0 0] ------- [9:255 9:254 32 0] 
s 5.127318396 _9_ AGT  --- 1003364345 diffusion 0 [0 0 0 0] ------- [9:254 9:255 32 0] 
r 5.127319396 _9_ AGT  --- 1437693527 diffusion 0 [0 0 0 0] ------- [9:255 9:254 32 0] 
s 5.246001000 _4_ AGT  --- 300615857 diffusion 0 [0 0 0 0] ------- [4:254 4:255 32 0] 
r 5.246002000 _4_ AGT  --- 611591126 diffusion 0 [0 0 0 0] ------- [4:255 4:254 32 0] 
s 5.246003000 _4_ AGT  --- 300615858 diffusion 0 [0 0 0 0] ------- [4:254 4:255 32 0] 
r 5.250818749 _9_ AGT  --- 495722043 diffusion 0 [0 0 0 0] ------- [9:255 9:254 32 0] 
s 5.250819749 _9_ AGT  --- 1003364346 diffusion 0 [0 0 0 0] ------- [9:254 9:255 32 0] 
r 5.250820749 _9_ AGT  --- 300615857 diffusion 0 [0 0 0 0] ------- [9:255 9:254 32 0] 
s 5.369001000 _5_ AGT  --- 905258843 diffusion 0 [0 0 0 0] ------- [5:254 5:255 32 0] 
r 5.369002000 _5_ AGT  --- 885480291 diffusion 0 [0 0 0 0] ------- [5:255 5:254 32 0] 
s 5.369003000 _5_ AGT  --- 905258844 diffusion 0 [0 0 0 0] ------- [5:254 5:255 32 0] 
r 5.373139513 _6_ AGT  --- 557533823 diffusion 0 [0 0 0 0] ------- [6:255 6:254 32 0] 
s 5.373140513 _6_ AGT  --- 1811076629 diffusion 0 [0 0 0 0] ------- [6:254 6:255 32 0] 
r 5.374825962 _3_ AGT  --- 1223941504 diffusion 0 [0 0 0 0] ------- [3:255 3:254 32 0] 
s 5.374826962 _3_ AGT  --- 1437693529 diffusion 0 [0 0 0 0] ------- [3:254 3:255 32 0] 
r 5.376830989 _9_ AGT  --- 495722044 diffusion 0 [0 0 0 0] ------- [9:255 9:254 32 0] 
s 5.376831989 _9_ AGT  --- 1003364347 diffusion 0 [0 0 0 0] ------- [9:254 9:255 32 0] 
r 5.376832989 _9_ AGT  --- 905258843 diffusion 0 [0 0 0 0] ------- [9:255 9:254 32 0] 
s 10.000001000 _2_ AGT  --- 1566500013 diffusion 0 [0 0 0 0] ------- [2:254 2:255 32 0] 
r 10.000002000 _2_ AGT  --- 580900452 diffusion 0 [0 0 0 0] ------- [2:255 2:254 32 0] 
s 10.000003000 _2_ AGT  --- 1566500014 diffusion 0 [0 0 0 0] ------- [2:254 2:255 32 0] 
r 10.001744984 _9_ AGT  --- 495722045 diffusion 0 [0 0 0 0] ------- [9:255 9:254 32 0] 
s 10.001745984 _9_ AGT  --- 1003364348 diffusion 0 [0 0 0 0] ------- [9:254 9:255 32 0] 
r 10.001746984 _9_ AGT  --- 1566500013 diffusion 0 [0 0 0 0] ------- [9:255 9:254 32 0] 
s 10.123001000 _3_ AGT  --- 1437693530 diffusion 0 [0 0 0 0] ------- [3:254 3:255 32 0] 
r 10.123002000 _3_ AGT  --- 1223941505 diffusion 0 [0 0 0 0] ------- [3:255 3:254 32 0] 
s 10.123003000 _3_ AGT  --- 1437693531 diffusion 0 [0 0 0 0] ------- [3:254 3:255 32 0] 
r 10.124265027 _9_ AGT  --- 495722046 diffusion 0 [0 0 0 0] ------- [9:255 9:254 32 0] 
s 10.124266027 _9_ AGT  --- 1003364349 diffusion 0 [0 0 0 0] ------- [9:254 9:255 32 0] 
r 10.124267027 _9_ AGT  --- 1437693530 diffusion 0 [0 0 0 0] ------- [9:255 9:254 32 0] 
s 10.246001000 _4_ AGT  --- 300615859 diffusion 0 [0 0 0 0] ------- [4:254 4:255 32 0] 
r 10.246002000 _4_ AGT  --- 611591127 diffusion 0 [0 0 0 0] ------- [4:255 4:254 32 0] 
s 10.246003000 _4_ AGT  --- 300615860 diffusion 0 [0 0 0 0] ------- [4:254 4:255 32 0] 
r 10.247585607 _9_ AGT  --- 495722047 diffusion 0 [0 0 0 0] ------- [9:255 9:254 32 0] 
s 10.247586607 _9_ AGT  --- 1003364350 diffusion 0 [0 0 0 0] ------- [9:254 9:255 32 0] 
r 10.247587607 _9_ AGT  --- 300615859 diffusion 0 [0 0 0 0] ------- [9:255 9:254 32 0] 
s 10.369001000 _5_ AGT  --- 905258845 diffusion 0 [0 0 0 0] ------- [5:254 5:255 32 0] 
r 10.369002000 _5_ AGT  --- 885480292 diffusion 0 [0 0 0 0] ------- [5:255 5:254 32 0] 
s 10.369003000 _5_ AGT  --- 905258846 diffusion 0 [0 0 0 0] ------- [5:254 5:255 32 0] 
r 10.370265934 _6_ AGT  --- 557533824 diffusion 0 [0 0 0 0] ------- [6:255 6:254 32 0] 
s 10.370266934 _6_ AGT  --- 1811076630 diffusion 0 [0 0 0 0] ------- [6:254 6:255 32 0] 
r 10.371792383 _3_ AGT  --- 1223941506 diffusion 0 [0 0 0 0] ------- [3:255 3:254 32 0] 
s 10.371793383 _3_ AGT  --- 1437693532 diffusion 0 [0 0 0 0] ------- [3:254 3:255 32 0] 
r 10.373397410 _9_ AGT  --- 495722048 diffusion 0 [0 0 0 0] ------- [9:255 9:254 32 0] 
s 10.373398410 _9_ AGT  --- 1003364351 diffusion 0 [0 0 0 0] ------- [9:254 9:255 32 0] 
r 10.373399410 _9_ AGT  --- 905258845 diffusion 0 [0 0 0 0] ------- [9:255 9:254 32 0] 
s 15.000001000 _2_ AGT  --- 1566500015 diffusion 0 [0 0 0 0] ------- [2:254 2:255 32 0] 
r 15.000002000 _2_ AGT  --- 580900453 diffusion 0 [0 0 0 0] ------- [2:255 2:254 32 0] 
s 15.000003000 _2_ AGT  --- 1566500016 diffusion 0 [0 0 0 0] ------- [2:254 2:255 32 0] 
r 15.001644984 _9_ AGT  --- 495722049 diffusion 0 [0 0 0 0] ------- [9:255 9:254 32 0] 
s 15.001645984 _9_ AGT  --- 1003364352 diffusion 0 [0 0 0 0] ------- [9:254 9:255 32 0] 
r 15.001646984 _9_ AGT  --- 1566500015 diffusion 0 [0 0 0 0] ------- [9:255 9:254 32 0] 
s 15.123001000 _3_ AGT  --- 1437693533 diffusion 0 [0 0 0 0] ------- [3:254 3:255 32 0] 
r 15.123002000 _3_ AGT  --- 1223941507 diffusion 0 [0 0 0 0] ------- [3:255 3:254 32 0] 
s 15.123003000 _3_ AGT  --- 1437693534 diffusion 0 [0 0 0 0] ------- [3:254 3:255 32 0] 
r 15.124745027 _9_ AGT  --- 495722050 diffusion 0 [0 0 0 0] ------- [9:255 9:254 32 0] 
s 15.124746027 _9_ AGT  --- 1003364353 diffusion 0 [0 0 0 0] ------- [9:254 9:255 32 0] 
r 15.124747027 _9_ AGT  --- 1437693533 diffusion 0 [0 0 0 0] ------- [9:255 9:254 32 0] 
s 15.246001000 _4_ AGT  --- 300615861 diffusion 0 [0 0 0 0] ------- [4:254 4:255 32 0] 
r 15.246002000 _4_ AGT  --- 611591128 diffusion 0 [0 0 0 0] ------- [4:255 4:254 32 0] 
s 15.246003000 _4_ AGT  --- 300615862 diffusion 0 [0 0 0 0] ------- [4:254 4:255 32 0] 
r 15.247365607 _9_ AGT  --- 495722051 diffusion 0 [0 0 0 0] ------- [9:255 9:254 32 0] 
s 15.247366607 _9_ AGT  --- 1003364354 diffusion 0 [0 0 0 0] ------- [9:254 9:255 32 0] 
r 15.247367607 _9_ AGT  --- 300615861 diffusion 0 [0 0 0 0] ------- [9:255 9:254 32 0] 
s 15.369001000 _5_ AGT  --- 905258847 diffusion 0 [0 0 0 0] ------- [5:254 5:255 32 0] 
r 15.369002000 _5_ AGT  --- 885480293 diffusion 0 [0 0 0 0] ------- [5:255 5:254 32 0] 
s 15.369003000 _5_ AGT  --- 905258848 diffusion 0 [0 0 0 0] ------- [5:254 5:255 32 0] 
r 15.370645934 _6_ AGT  --- 557533825 diffusion 0 [0 0 0 0] ------- [6:255 6:254 32 0] 
s 15.370646934 _6_ AGT  --- 1811076631 diffusion 0 [0 0 0 0] ------- [6:254 6:255 32 0] 
r 15.372752383 _3_ AGT  --- 1223941508 diffusion 0 [0 0 0 0] ------- [3:255 3:254 32 0] 
s 15.372753383 _3_ AGT  --- 1437693535 diffusion 0 [0 0 0 0] ------- [3:254 3:255 32 0] 
r 15.374777410 _9_ AGT  --- 495722052 diffusion 0 [0 0 0 0] ------- [9:255 9:254 32 0] 
s 15.374778410 _9_ AGT  --- 1003364355 diffusion 0 [0 0 0 0] ------- [9:254 9:255 32 0] 
r 15.374779410 _9_ AGT  --- 905258847 diffusion 0 [0 0 0 0] ------- [9:255 9:254 32 0] 
s 17.346001000 _9_ AGT  --- 1003364356 diffusion 0 [0 0 0 0] ------- [9:254 9:255 32 0] 
r 17.346002000 _9_ AGT  --- 495722053 diffusion 0 [0 0 0 0] ------- [9:255 9:254 32 0] 
s 17.456003000 _9_ AGT  --- 1003364357 diffusion 0 [0 0 0 0] ------- [9:254 9:255 32 0] 
r 17.456908328 _2_ AGT  --- 580900454 diffusion 0 [0 0 0 0] ------- [2:255 2:254 32 0] 
r 17.456908342 _3_ AGT  --- 1223941509 diffusion 0 [0 0 0 0] ------- [3:255 3:254 32 0] 
r 17.456908426 _7_ AGT  --- 394266827 diffusion 0 [0 0 0 0] ------- [7:255 7:254 32 0] 
r 17.456908536 _4_ AGT  --- 611591129 diffusion 0 [0 0 0 0] ------- [4:255 4:254 32 0] 
s 17.552909536 _4_ AGT  --- 300615863 diffusion 0 [0 0 0 0] ------- [4:254 4:255 32 0] 
r 17.554034730 _3_ AGT  --- 1223941510 diffusion 0 [0 0 0 0] ------- [3:255 3:254 32 0] 
r 17.554035012 _1_ AGT  --- 1225933902 diffusion 0 [0 0 0 0] ------- [1:255 1:254 32 0] 
r 17.554035071 _9_ AGT  --- 495722054 diffusion 0 [0 0 0 0] ------- [9:255 9:254 32 0] 
r 17.554035126 _2_ AGT  --- 580900455 diffusion 0 [0 0 0 0] ------- [2:255 2:254 32 0] 
r 17.554035340 _6_ AGT  --- 557533826 diffusion 0 [0 0 0 0] ------- [6:255 6:254 32 0] 
s 17.567909342 _3_ AGT  --- 1437693536 diffusion 0 [0 0 0 0] ------- [3:254 3:255 32 0] 
r 17.568614536 _4_ AGT  --- 611591130 diffusion 0 [0 0 0 0] ------- [4:255 4:254 32 0] 
r 17.568614685 _9_ AGT  --- 495722055 diffusion 0 [0 0 0 0] ------- [9:255 9:254 32 0] 
r 17.568614795 _2_ AGT  --- 580900456 diffusion 0 [0 0 0 0] ------- [2:255 2:254 32 0] 
r 17.568614941 _1_ AGT  --- 1225933903 diffusion 0 [0 0 0 0] ------- [1:255 1:254 32 0] 
r 17.568615110 _7_ AGT  --- 394266828 diffusion 0 [0 0 0 0] ------- [7:255 7:254 32 0] 
r 17.568615159 _6_ AGT  --- 557533827 diffusion 0 [0 0 0 0] ------- [6:255 6:254 32 0] 
s 17.570909328 _2_ AGT  --- 1566500017 diffusion 0 [0 0 0 0] ------- [2:254 2:255 32 0] 
r 17.571634656 _9_ AGT  --- 495722056 diffusion 0 [0 0 0 0] ------- [9:255 9:254 32 0] 
r 17.571634780 _3_ AGT  --- 1223941511 diffusion 0 [0 0 0 0] ------- [3:255 3:254 32 0] 
r 17.571634885 _7_ AGT  --- 394266829 diffusion 0 [0 0 0 0] ------- [7:255 7:254 32 0] 
r 17.571634918 _4_ AGT  --- 611591131 diffusion 0 [0 0 0 0] ------- [4:255 4:254 32 0] 
r 17.571635038 _1_ AGT  --- 1225933904 diffusion 0 [0 0 0 0] ------- [1:255 1:254 32 0] 
s 17.580909426 _7_ AGT  --- 1732828137 diffusion 0 [0 0 0 0] ------- [7:254 7:255 32 0] 
r 17.581654852 _9_ AGT  --- 495722057 diffusion 0 [0 0 0 0] ------- [9:255 9:254 32 0] 
r 17.581654983 _2_ AGT  --- 580900457 diffusion 0 [0 0 0 0] ------- [2:255 2:254 32 0] 
r 17.581655194 _3_ AGT  --- 1223941512 diffusion 0 [0 0 0 0] ------- [3:255 3:254 32 0] 
s 17.639036012 _1_ AGT  --- 528599279 diffusion 0 [0 0 0 0] ------- [1:254 1:255 32 0] 
r 17.640141489 _4_ AGT  --- 611591132 diffusion 0 [0 0 0 0] ------- [4:255 4:254 32 0] 
r 17.640141611 _3_ AGT  --- 1223941513 diffusion 0 [0 0 0 0] ------- [3:255 3:254 32 0] 
r 17.640141722 _2_ AGT  --- 580900458 diffusion 0 [0 0 0 0] ------- [2:255 2:254 32 0] 
s 17.669036340 _6_ AGT  --- 1811076632 diffusion 0 [0 0 0 0] ------- [6:254 6:255 32 0] 
r 17.669921488 _8_ AGT  --- 1180591532 diffusion 0 [0 0 0 0] ------- [8:255 8:254 32 0] 
r 17.669921780 _0_ AGT  --- 2045655603 diffusion 0 [0 0 0 0] ------- [0:255 0:254 32 0] 
r 17.669921985 _5_ AGT  --- 885480294 diffusion 0 [0 0 0 0] ------- [5:255 5:254 32 0] 
r 17.669922144 _4_ AGT  --- 611591133 diffusion 0 [0 0 0 0] ------- [4:255 4:254 32 0] 
r 17.669922156 _3_ AGT  --- 1223941514 diffusion 0 [0 0 0 0] ------- [3:255 3:254 32 0] 
s 17.768922488 _8_ AGT  --- 379185996 diffusion 0 [0 0 0 0] ------- [8:254 8:255 32 0] 
r 17.769707636 _6_ AGT  --- 557533828 diffusion 0 [0 0 0 0] ------- [6:255 6:254 32 0] 
r 17.769707806 _0_ AGT  --- 2045655604 diffusion 0 [0 0 0 0] ------- [0:255 0:254 32 0] 
r 17.769708212 _5_ AGT  --- 885480295 diffusion 0 [0 0 0 0] ------- [5:255 5:254 32 0] 
s 17.782922780 _0_ AGT  --- 1190071891 diffusion 0 [0 0 0 0] ------- [0:254 0:255 32 0] 
r 17.783528098 _8_ AGT  --- 1180591533 diffusion 0 [0 0 0 0] ------- [8:255 8:254 32 0] 
r 17.783528221 _6_ AGT  --- 557533829 diffusion 0 [0 0 0 0] ------- [6:255 6:254 32 0] 
s 17.793922985 _5_ AGT  --- 905258849 diffusion 0 [0 0 0 0] ------- [5:254 5:255 32 0] 
r 17.794828629 _6_ AGT  --- 557533830 diffusion 0 [0 0 0 0] ------- [6:255 6:254 32 0] 
r 17.794828708 _8_ AGT  --- 1180591534 diffusion 0 [0 0 0 0] ------- [8:255 8:254 32 0] 
s 20.000001000 _0_ AGT  --- 1190071892 diffusion 0 [0 0 0 0] ------- [0:254 0:255 32 0] 
s 20.000001000 _1_ AGT  --- 528599280 diffusion 0 [0 0 0 0] ------- [1:254 1:255 32 0] 
s 20.000001000 _2_ AGT  --- 1566500018 diffusion 0 [0 0 0 0] ------- [2:254 2:255 32 0] 
s 20.000001000 _3_ AGT  --- 1437693537 diffusion 0 [0 0 0 0] ------- [3:254 3:255 32 0] 
s 20.000001000 _4_ AGT  --- 300615864 diffusion 0 [0 0 0 0] ------- [4:254 4:255 32 0] 
s 20.000001000 _5_ AGT  --- 905258850 diffusion 0 [0 0 0 0] ------- [5:254 5:255 32 0] 
s 20.000001000 _6_ AGT  --- 1811076633 diffusion 0 [0 0 0 0] ------- [6:254 6:255 32 0] 
s 20.000001000 _7_ AGT  --- 1732828138 diffusion 0 [0 0 0 0] ------- [7:254 7:255 32 0] 
s 20.000001000 _8_ AGT  --- 379185997 diffusion 0 [0 0 0 0] ------- [8:254 8:255 32 0] 
s 20.000001000 _9_ AGT  --- 1003364358 diffusion 0 [0 0 0 0] ------- [9:254 9:255 32 0] 
s 20.000001000 _2_ AGT  --- 1566500019 diffusion 0 [0 0 0 0] ------- [2:254 2:255 32 0] 
r 20.000002000 _2_ AGT  --- 580900459 diffusion 0 [0 0 0 0] ------- [2:255 2:254 32 0] 
s 20.000003000 _2_ AGT  --- 1566500020 diffusion 0 [0 0 0 0] ------- [2:254 2:255 32 0] 
r 20.001244984 _9_ AGT  --- 495722058 diffusion 0 [0 0 0 0] ------- [9:255 9:254 32 0] 
s 20.001245984 _9_ AGT  --- 1003364359 diffusion 0 [0 0 0 0] ------- [9:254 9:255 32 0] 
r 20.001246984 _9_ AGT  --- 1566500019 diffusion 0 [0 0 0 0] ------- [9:255 9:254 32 0] 
s 20.123001000 _3_ AGT  --- 1437693538 diffusion 0 [0 0 0 0] ------- [3:254 3:255 32 0] 
r 20.123002000 _3_ AGT  --- 1223941515 diffusion 0 [0 0 0 0] ------- [3:255 3:254 32 0] 
s 20.123003000 _3_ AGT  --- 1437693539 diffusion 0 [0 0 0 0] ------- [3:254 3:255 32 0] 
r 20.124745027 _9_ AGT  --- 495722059 diffusion 0 [0 0 0 0] ------- [9:255 9:254 32 0] 
s 20.124746027 _9_ AGT  --- 1003364360 diffusion 0 [0 0 0 0] ------- [9:254 9:255 32 0] 
r 20.124747027 _9_ AGT  --- 1437693538 diffusion 0 [0 0 0 0] ------- [9:255 9:254 32 0] 
s 20.246001000 _4_ AGT  --- 300615865 diffusion 0 [0 0 0 0] ------- [4:254 4:255 32 0] 
r 20.246002000 _4_ AGT  --- 611591134 diffusion 0 [0 0 0 0] ------- [4:255 4:254 32 0] 
s 20.246003000 _4_ AGT  --- 300615866 diffusion 0 [0 0 0 0] ------- [4:254 4:255 32 0] 
r 20.247345607 _9_ AGT  --- 495722060 diffusion 0 [0 0 0 0] ------- [9:255 9:254 32 0] 
s 20.247346607 _9_ AGT  --- 1003364361 diffusion 0 [0 0 0 0] ------- [9:254 9:255 32 0] 
r 20.247347607 _9_ AGT  --- 300615865 diffusion 0 [0 0 0 0] ------- [9:255 9:254 32 0] 
s 20.369001000 _5_ AGT  --- 905258851 diffusion 0 [0 0 0 0] ------- [5:254 5:255 32 0] 
r 20.369002000 _5_ AGT  --- 885480296 diffusion 0 [0 0 0 0] ------- [5:255 5:254 32 0] 
s 20.369003000 _5_ AGT  --- 905258852 diffusion 0 [0 0 0 0] ------- [5:254 5:255 32 0] 
r 20.370765934 _6_ AGT  --- 557533831 diffusion 0 [0 0 0 0] ------- [6:255 6:254 32 0] 
s 20.370766934 _6_ AGT  --- 1811076634 diffusion 0 [0 0 0 0] ------- [6:254 6:255 32 0] 
r 20.372532347 _4_ AGT  --- 611591135 diffusion 0 [0 0 0 0] ------- [4:255 4:254 32 0] 
s 20.372533347 _4_ AGT  --- 300615867 diffusion 0 [0 0 0 0] ------- [4:254 4:255 32 0] 
r 20.374517954 _9_ AGT  --- 495722061 diffusion 0 [0 0 0 0] ------- [9:255 9:254 32 0] 
s 20.374518954 _9_ AGT  --- 1003364362 diffusion 0 [0 0 0 0] ------- [9:254 9:255 32 0] 
r 20.374519954 _9_ AGT  --- 905258851 diffusion 0 [0 0 0 0] ------- [9:255 9:254 32 0] 
s 24.290001000 _3_ AGT  --- 1437693540 diffusion 0 [0 0 0 0] ------- [3:254 3:255 32 0] 
r 24.290002000 _3_ AGT  --- 1223941516 diffusion 0 [0 0 0 0] ------- [3:255 3:254 32 0] 
s 25.000001000 _2_ AGT  --- 1566500021 diffusion 0 [0 0 0 0] ------- [2:254 2:255 32 0] 
r 25.000002000 _2_ AGT  --- 580900460 diffusion 0 [0 0 0 0] ------- [2:255 2:254 32 0] 
s 25.000003000 _2_ AGT  --- 1566500022 diffusion 0 [0 0 0 0] ------- [2:254 2:255 32 0] 
r 25.001744984 _9_ AGT  --- 495722062 diffusion 0 [0 0 0 0] ------- [9:255 9:254 32 0] 
s 25.001745984 _9_ AGT  --- 1003364363 diffusion 0 [0 0 0 0] ------- [9:254 9:255 32 0] 
r 25.001746984 _9_ AGT  --- 1566500021 diffusion 0 [0 0 0 0] ------- [9:255 9:254 32 0] 
s 25.123001000 _3_ AGT  --- 1437693541 diffusion 0 [0 0 0 0] ------- [3:254 3:255 32 0] 
r 25.123002000 _3_ AGT  --- 1223941517 diffusion 0 [0 0 0 0] ------- [3:255 3:254 32 0] 
s 25.123003000 _3_ AGT  --- 1437693542 diffusion 0 [0 0 0 0] ------- [3:254 3:255 32 0] 
r 25.124645027 _9_ AGT  --- 495722063 diffusion 0 [0 0 0 0] ------- [9:255 9:254 32 0] 
s 25.124646027 _9_ AGT  --- 1003364364 diffusion 0 [0 0 0 0] ------- [9:254 9:255 32 0] 
r 25.124647027 _9_ AGT  --- 1437693541 diffusion 0 [0 0 0 0] ------- [9:255 9:254 32 0] 
s 25.246001000 _4_ AGT  --- 300615868 diffusion 0 [0 0 0 0] ------- [4:254 4:255 32 0] 
r 25.246002000 _4_ AGT  --- 611591136 diffusion 0 [0 0 0 0] ------- [4:255 4:254 32 0] 
s 25.246003000 _4_ AGT  --- 300615869 diffusion 0 [0 0 0 0] ------- [4:254 4:255 32 0] 
r 25.247645607 _9_ AGT  --- 495722064 diffusion 0 [0 0 0 0] ------- [9:255 9:254 32 0] 
s 25.247646607 _9_ AGT  --- 1003364365 diffusion 0 [0 0 0 0] ------- [9:254 9:255 32 0] 
r 25.247647607 _9_ AGT  --- 300615868 diffusion 0 [0 0 0 0] ------- [9:255 9:254 32 0] 
s 25.369001000 _5_ AGT  --- 905258853 diffusion 0 [0 0 0 0] ------- [5:254 5:255 32 0] 
r 25.369002000 _5_ AGT  --- 885480297 diffusion 0 [0 0 0 0] ------- [5:255 5:254 32 0] 
s 25.369003000 _5_ AGT  --- 905258854 diffusion 0 [0 0 0 0] ------- [5:254 5:255 32 0] 
r 25.370305934 _6_ AGT  --- 557533832 diffusion 0 [0 0 0 0] ------- [6:255 6:254 32 0] 
s 25.370306934 _6_ AGT  --- 1811076635 diffusion 0 [0 0 0 0] ------- [6:254 6:255 32 0] 
r 25.372132347 _4_ AGT  --- 611591137 diffusion 0 [0 0 0 0] ------- [4:255 4:254 32 0] 
s 25.372133347 _4_ AGT  --- 300615870 diffusion 0 [0 0 0 0] ------- [4:254 4:255 32 0] 
r 25.373737954 _9_ AGT  --- 495722065 diffusion 0 [0 0 0 0] ------- [9:255 9:254 32 0] 
s 25.373738954 _9_ AGT  --- 1003364366 diffusion 0 [0 0 0 0] ------- [9:254 9:255 32 0] 
r 25.373739954 _9_ AGT  --- 905258853 diffusion 0 [0 0 0 0] ------- [9:255 9:254 32 0] 
s 27.919001000 _3_ AGT  --- 1437693543 diffusion 0 [0 0 0 0] ------- [3:254 3:255 32 0] 
r 27.919002000 _3_ AGT  --- 1223941518 diffusion 0 [0 0 0 0] ------- [3:255 3:254 32 0] 
s 28.066001000 _2_ AGT  --- 1566500023 diffusion 0 [0 0 0 0] ------- [2:254 2:255 32 0] 
r 28.066002000 _2_ AGT  --- 580900461 diffusion 0 [0 0 0 0] ------- [2:255 2:254 32 0] 
s 29.952001000 _4_ AGT  --- 300615871 diffusion 0 [0 0 0 0] ------- [4:254 4:255 32 0] 
r 29.952002000 _4_ AGT  --- 611591138 diffusion 0 [0 0 0 0] ------- [4:255 4:254 32 0] 
s 30.000001000 _2_ AGT  --- 1566500024 diffusion 0 [0 0 0 0] ------- [2:254 2:255 32 0] 
r 30.000002000 _2_ AGT  --- 580900462 diffusion 0 [0 0 0 0] ------- [2:255 2:254 32 0] 
s 30.000003000 _2_ AGT  --- 1566500025 diffusion 0 [0 0 0 0] ------- [2:254 2:255 32 0] 
r 30.001324984 _9_ AGT  --- 495722066 diffusion 0 [0 0 0 0] ------- [9:255 9:254 32 0] 
s 30.001325984 _9_ AGT  --- 1003364367 diffusion 0 [0 0 0 0] ------- [9:254 9:255 32 0] 
r 30.001326984 _9_ AGT  --- 1566500024 diffusion 0 [0 0 0 0] ------- [9:255 9:254 32 0] 
s 30.123001000 _3_ AGT  --- 1437693544 diffusion 0 [0 0 0 0] ------- [3:254 3:255 32 0] 
r 30.123002000 _3_ AGT  --- 1223941519 diffusion 0 [0 0 0 0] ------- [3:255 3:254 32 0] 
s 30.123003000 _3_ AGT  --- 1437693545 diffusion 0 [0 0 0 0] ------- [3:254 3:255 32 0] 
r 30.124765027 _9_ AGT  --- 495722067 diffusion 0 [0 0 0 0] ------- [9:255 9:254 32 0] 
s 30.124766027 _9_ AGT  --- 1003364368 diffusion 0 [0 0 0 0] ------- [9:254 9:255 32 0] 
r 30.124767027 _9_ AGT  --- 1437693544 diffusion 0 [0 0 0 0] ------- [9:255 9:254 32 0] 
s 30.246001000 _4_ AGT  --- 300615872 diffusion 0 [0 0 0 0] ------- [4:254 4:255 32 0] 
r 30.246002000 _4_ AGT  --- 611591139 diffusion 0 [0 0 0 0] ------- [4:255 4:254 32 0] 
s 30.246003000 _4_ AGT  --- 300615873 diffusion 0 [0 0 0 0] ------- [4:254 4:255 32 0] 
r 30.247845607 _9_ AGT  --- 495722068 diffusion 0 [0 0 0 0] ------- [9:255 9:254 32 0] 
s 30.247846607 _9_ AGT  --- 1003364369 diffusion 0 [0 0 0 0] ------- [9:254 9:255 32 0] 
r 30.247847607 _9_ AGT  --- 300615872 diffusion 0 [0 0 0 0] ------- [9:255 9:254 32 0] 
s 30.369001000 _5_ AGT  --- 905258855 diffusion 0 [0 0 0 0] ------- [5:254 5:255 32 0] 
r 30.369002000 _5_ AGT  --- 885480298 diffusion 0 [0 0 0 0] ------- [5:255 5:254 32 0] 
s 30.369003000 _5_ AGT  --- 905258856 diffusion 0 [0 0 0 0] ------- [5:254 5:255 32 0] 
r 30.370685934 _6_ AGT  --- 557533833 diffusion 0 [0 0 0 0] ------- [6:255 6:254 32 0] 
s 30.370686934 _6_ AGT  --- 1811076636 diffusion 0 [0 0 0 0] ------- [6:254 6:255 32 0] 
r 30.372672347 _4_ AGT  --- 611591140 diffusion 0 [0 0 0 0] ------- [4:255 4:254 32 0] 
s 30.372673347 _4_ AGT  --- 300615874 diffusion 0 [0 0 0 0] ------- [4:254 4:255 32 0] 
r 30.374257954 _9_ AGT  --- 495722069 diffusion 0 [0 0 0 0] ------- [9:255 9:254 32 0] 
s 30.374258954 _9_ AGT  --- 1003364370 diffusion 0 [0 0 0 0] ------- [9:254 9:255 32 0] 
r 30.374259954 _9_ AGT  --- 905258855 diffusion 0 [0 0 0 0] ------- [9:255 9:254 32 0] 
s 35.000001000 _2_ AGT  --- 1566500026 diffusion 0 [0 0 0 0] ------- [2:254 2:255 32 0] 
r 35.000002000 _2_ AGT  --- 580900463 diffusion 0 [0 0 0 0] ------- [2:255 2:254 32 0] 
s 35.000003000 _2_ AGT  --- 1566500027 diffusion 0 [0 0 0 0] ------- [2:254 2:255 32 0] 
r 35.001804984 _9_ AGT  --- 495722070 diffusion 0 [0 0 0 0] ------- [9:255 9:254 32 0] 
s 35.001805984 _9_ AGT  --- 1003364371 diffusion 0 [0 0 0 0] ------- [9:254 9:255 32 0] 
r 35.001806984 _9_ AGT  --- 1566500026 diffusion 0 [0 0 0 0] ------- [9:255 9:254 32 0] 
s 35.123001000 _3_ AGT  --- 1437693546 diffusion 0 [0 0 0 0] ------- [3:254 3:255 32 0] 
r 35.123002000 _3_ AGT  --- 1223941520 diffusion 0 [0 0 0 0] ------- [3:255 3:254 32 0] 
s 35.123003000 _3_ AGT  --- 1437693547 diffusion 0 [0 0 0 0] ------- [3:254 3:255 32 0] 
r 35.124425027 _9_ AGT  --- 495722071 diffusion 0 [0 0 0 0] ------- [9:255 9:254 32 0] 
s 35.124426027 _9_ AGT  --- 1003364372 diffusion 0 [0 0 0 0] ------- [9:254 9:255 32 0] 
r 35.124427027 _9_ AGT  --- 1437693546 diffusion 0 [0 0 0 0] ------- [9:255 9:254 32 0] 
s 35.246001000 _4_ AGT  --- 300615875 diffusion 0 [0 0 0 0] ------- [4:254 4:255 32 0] 
r 35.246002000 _4_ AGT  --- 611591141 diffusion 0 [0 0 0 0] ------- [4:255 4:254 32 0] 
s 35.246003000 _4_ AGT  --- 300615876 diffusion 0 [0 0 0 0] ------- [4:254 4:255 32 0] 
r 35.247725607 _9_ AGT  --- 495722072 diffusion 0 [0 0 0 0] ------- [9:255 9:254 32 0] 
s 35.247726607 _9_ AGT  --- 1003364373 diffusion 0 [0 0 0 0] ------- [9:254 9:255 32 0] 
r 35.247727607 _9_ AGT  --- 300615875 diffusion 0 [0 0 0 0] ------- [9:255 9:254 32 0] 
s 35.369001000 _5_ AGT  --- 905258857 diffusion 0 [0 0 0 0] ------- [5:254 5:255 32 0] 
r 35.369002000 _5_ AGT  --- 885480299 diffusion 0 [0 0 0 0] ------- [5:255 5:254 32 0] 
s 35.369003000 _5_ AGT  --- 905258858 diffusion 0 [0 0 0 0] ------- [5:254 5:255 32 0] 
r 35.370265934 _6_ AGT  --- 557533834 diffusion 0 [0 0 0 0] ------- [6:255 6:254 32 0] 
s 35.370266934 _6_ AGT  --- 1811076637 diffusion 0 [0 0 0 0] ------- [6:254 6:255 32 0] 
r 35.372012347 _4_ AGT  --- 611591142 diffusion 0 [0 0 0 0] ------- [4:255 4:254 32 0] 
s 35.372013347 _4_ AGT  --- 300615877 diffusion 0 [0 0 0 0] ------- [4:254 4:255 32 0] 
r 35.373737954 _9_ AGT  --- 495722073 diffusion 0 [0 0 0 0] ------- [9:255 9:254 32 0] 
s 35.373738954 _9_ AGT  --- 1003364374 diffusion 0 [0 0 0 0] ------- [9:254 9:255 32 0] 
r 35.373739954 _9_ AGT  --- 905258857 diffusion 0 [0 0 0 0] ------- [9:255 9:254 32 0] 