s 0.000001000 _0_ AGT  --- 1190071889 diffusion 0 [0 0 0 0] ------- [0:254 0:255 32 0] 
r 0.000001000 _0_ RTR  --- 1190071889 diffusion 0 [0 0 0 0] ------- [0:254 0:255 32 0] 
s 0.000001000 _1_ AGT  --- 528599277 diffusion 0 [0 0 0 0] ------- [1:254 1:255 32 0] 
r 0.000001000 _1_ RTR  --- 528599277 diffusion 0 [0 0 0 0] ------- [1:254 1:255 32 0] 
s 0.000001000 _2_ AGT  --- 1566500007 diffusion 0 [0 0 0 0] ------- [2:254 2:255 32 0] 
r 0.000001000 _2_ RTR  --- 1566500007 diffusion 0 [0 0 0 0] ------- [2:254 2:255 32 0] 
s 0.000001000 _3_ AGT  --- 1437693523 diffusion 0 [0 0 0 0] ------- [3:254 3:255 32 0] 
r 0.000001000 _3_ RTR  --- 1437693523 diffusion 0 [0 0 0 0] ------- [3:254 3:255 32 0] 
s 0.000001000 _4_ AGT  --- 300615853 diffusion 0 [0 0 0 0] ------- [4:254 4:255 32 0] 
r 0.000001000 _4_ RTR  --- 300615853 diffusion 0 [0 0 0 0] ------- [4:254 4:255 32 0] 
s 0.133001000 _1_ AGT  --- 528599278 diffusion 0 [0 0 0 0] ------- [1:254 1:255 32 0] 
r 0.133001000 _1_ RTR  --- 528599278 diffusion 0 [0 0 0 0] ------- [1:254 1:255 32 0] 
r 0.133002000 _1_ AGT  --- 1225933899 diffusion 0 [0 0 0 0] ------- [1:255 1:254 32 0] 
s 1.110001000 _4_ AGT  --- 300615854 diffusion 0 [0 0 0 0] ------- [4:254 4:255 32 0] 
r 1.110001000 _4_ RTR  --- 300615854 diffusion 0 [0 0 0 0] ------- [4:254 4:255 32 0] 
r 1.110002000 _4_ AGT  --- 611591120 diffusion 0 [0 0 0 0] ------- [4:255 4:254 32 0] 
s 1.205003000 _4_ AGT  --- 300615855 diffusion 0 [0 0 0 0] ------- [4:254 4:255 32 0] 
r 1.205003000 _4_ RTR  --- 300615855 diffusion 0 [0 0 0 0] ------- [4:254 4:255 32 0] 
r 1.206107194 _3_ RTR  --- 300615854 diffusion 0 [0 ffffffff 4 800] ------- [4:255 -1:255 32 0] 
r 1.206107477 _1_ RTR  --- 300615854 diffusion 0 [0 ffffffff 4 800] ------- [4:255 -1:255 32 0] 
r 1.206107590 _2_ RTR  --- 300615854 diffusion 0 [0 ffffffff 4 800] ------- [4:255 -1:255 32 0] 
r 1.206108194 _3_ AGT  --- 1223941496 diffusion 0 [0 0 0 0] ------- [3:255 3:254 32 0] 
r 1.206108477 _1_ AGT  --- 1225933900 diffusion 0 [0 0 0 0] ------- [1:255 1:254 32 0] 
r 1.206108590 _2_ AGT  --- 580900445 diffusion 0 [0 0 0 0] ------- [2:255 2:254 32 0] 
s 1.206109477 _1_ AGT  --- 528599279 diffusion 0 [0 0 0 0] ------- [1:254 1:255 32 0] 
r 1.206109477 _1_ RTR  --- 528599279 diffusion 0 [0 0 0 0] ------- [1:254 1:255 32 0] 
r 1.206110477 _1_ AGT  --- 0 diffusion 0 [0 0 0 0] ------- [1:255 1:254 32 0] 
s 1.283109477 _1_ AGT  --- 528599280 diffusion 0 [0 0 0 0] ------- [1:254 1:255 32 0] 
r 1.283109477 _1_ RTR  --- 528599280 diffusion 0 [0 0 0 0] ------- [1:254 1:255 32 0] 
r 1.283893954 _4_ RTR  --- 300615854 diffusion 0 [0 ffffffff 1 800] ------- [1:255 -1:255 32 0] 
r 1.283894076 _3_ RTR  --- 300615854 diffusion 0 [0 ffffffff 1 800] ------- [1:255 -1:255 32 0] 
r 1.283894187 _2_ RTR  --- 300615854 diffusion 0 [0 ffffffff 1 800] ------- [1:255 -1:255 32 0] 
r 1.283894954 _4_ AGT  --- 611591121 diffusion 0 [0 0 0 0] ------- [4:255 4:254 32 0] 
r 1.283895076 _3_ AGT  --- 1223941497 diffusion 0 [0 0 0 0] ------- [3:255 3:254 32 0] 
r 1.283895187 _2_ AGT  --- 580900446 diffusion 0 [0 0 0 0] ------- [2:255 2:254 32 0] 
s 1.287109590 _2_ AGT  --- 1566500008 diffusion 0 [0 0 0 0] ------- [2:254 2:255 32 0] 
r 1.287109590 _2_ RTR  --- 1566500008 diffusion 0 [0 0 0 0] ------- [2:254 2:255 32 0] 
r 1.287694042 _3_ RTR  --- 300615854 diffusion 0 [0 ffffffff 2 800] ------- [2:255 -1:255 32 0] 
r 1.287694180 _4_ RTR  --- 300615854 diffusion 0 [0 ffffffff 2 800] ------- [2:255 -1:255 32 0] 
r 1.287694300 _1_ RTR  --- 300615854 diffusion 0 [0 ffffffff 2 800] ------- [2:255 -1:255 32 0] 
r 1.287695042 _3_ AGT  --- 1223941498 diffusion 0 [0 0 0 0] ------- [3:255 3:254 32 0] 
r 1.287695180 _4_ AGT  --- 611591122 diffusion 0 [0 0 0 0] ------- [4:255 4:254 32 0] 
r 1.287695300 _1_ AGT  --- 1225933901 diffusion 0 [0 0 0 0] ------- [1:255 1:254 32 0] 
s 1.323109194 _3_ AGT  --- 1437693524 diffusion 0 [0 0 0 0] ------- [3:254 3:255 32 0] 
r 1.323109194 _3_ RTR  --- 1437693524 diffusion 0 [0 0 0 0] ------- [3:254 3:255 32 0] 
r 1.324013388 _4_ RTR  --- 300615854 diffusion 0 [0 ffffffff 3 800] ------- [3:255 -1:255 32 0] 
r 1.324013647 _2_ RTR  --- 300615854 diffusion 0 [0 ffffffff 3 800] ------- [3:255 -1:255 32 0] 
r 1.324013793 _1_ RTR  --- 300615854 diffusion 0 [0 ffffffff 3 800] ------- [3:255 -1:255 32 0] 
r 1.324014388 _4_ AGT  --- 611591123 diffusion 0 [0 0 0 0] ------- [4:255 4:254 32 0] 
r 1.324014647 _2_ AGT  --- 580900447 diffusion 0 [0 0 0 0] ------- [2:255 2:254 32 0] 
r 1.324014793 _1_ AGT  --- 1225933902 diffusion 0 [0 0 0 0] ------- [1:255 1:254 32 0] 
s 5.123001000 _1_ AGT  --- 528599281 diffusion 0 [0 0 0 0] ------- [1:254 1:255 32 0] 
r 5.123001000 _1_ RTR  --- 528599281 diffusion 0 [0 0 0 0] ------- [1:254 1:255 32 0] 
r 5.123002000 _1_ AGT  --- 1225933903 diffusion 0 [0 0 0 0] ------- [1:255 1:254 32 0] 
s 5.123003000 _1_ AGT  --- 528599282 diffusion 0 [0 0 0 0] ------- [1:254 1:255 32 0] 
r 5.123003000 _1_ RTR  --- 528599282 diffusion 0 [0 0 0 0] ------- [1:254 1:255 32 0] 
r 5.127197338 _4_ RTR  --- 528599281 diffusion 0 [13a 4 1 800] ------- [1:255 4:255 32 4] 
r 5.127198338 _4_ AGT  --- 611591124 diffusion 0 [0 0 0 0] ------- [4:255 4:254 32 0] 
s 5.127199338 _4_ AGT  --- 300615856 diffusion 0 [0 0 0 0] ------- [4:254 4:255 32 0] 
r 5.127199338 _4_ RTR  --- 300615856 diffusion 0 [0 0 0 0] ------- [4:254 4:255 32 0] 
r 5.127200338 _4_ AGT  --- 528599281 diffusion 0 [0 0 0 0] ------- [4:255 4:254 32 0] 
s 10.123001000 _1_ AGT  --- 528599283 diffusion 0 [0 0 0 0] ------- [1:254 1:255 32 0] 
r 10.123001000 _1_ RTR  --- 528599283 diffusion 0 [0 0 0 0] ------- [1:254 1:255 32 0] 
r 10.123002000 _1_ AGT  --- 1225933904 diffusion 0 [0 0 0 0] ------- [1:255 1:254 32 0] 
s 10.123003000 _1_ AGT  --- 528599284 diffusion 0 [0 0 0 0] ------- [1:254 1:255 32 0] 
r 10.123003000 _1_ RTR  --- 528599284 diffusion 0 [0 0 0 0] ------- [1:254 1:255 32 0] 
r 10.124304431 _4_ RTR  --- 528599283 diffusion 0 [13a 4 1 800] ------- [1:255 4:255 32 4] 
r 10.124305431 _4_ AGT  --- 611591125 diffusion 0 [0 0 0 0] ------- [4:255 4:254 32 0] 
s 10.124306431 _4_ AGT  --- 300615857 diffusion 0 [0 0 0 0] ------- [4:254 4:255 32 0] 
r 10.124306431 _4_ RTR  --- 300615857 diffusion 0 [0 0 0 0] ------- [4:254 4:255 32 0] 
r 10.124307431 _4_ AGT  --- 528599283 diffusion 0 [0 0 0 0] ------- [4:255 4:254 32 0] 
s 15.123001000 _1_ AGT  --- 528599285 diffusion 0 [0 0 0 0] ------- [1:254 1:255 32 0] 
r 15.123001000 _1_ RTR  --- 528599285 diffusion 0 [0 0 0 0] ------- [1:254 1:255 32 0] 
r 15.123002000 _1_ AGT  --- 1225933905 diffusion 0 [0 0 0 0] ------- [1:255 1:254 32 0] 
s 15.123003000 _1_ AGT  --- 528599286 diffusion 0 [0 0 0 0] ------- [1:254 1:255 32 0] 
r 15.123003000 _1_ RTR  --- 528599286 diffusion 0 [0 0 0 0] ------- [1:254 1:255 32 0] 
r 15.124504431 _4_ RTR  --- 528599285 diffusion 0 [13a 4 1 800] ------- [1:255 4:255 32 4] 
r 15.124505431 _4_ AGT  --- 611591126 diffusion 0 [0 0 0 0] ------- [4:255 4:254 32 0] 
s 15.124506431 _4_ AGT  --- 300615858 diffusion 0 [0 0 0 0] ------- [4:254 4:255 32 0] 
r 15.124506431 _4_ RTR  --- 300615858 diffusion 0 [0 0 0 0] ------- [4:254 4:255 32 0] 
r 15.124507431 _4_ AGT  --- 528599285 diffusion 0 [0 0 0 0] ------- [4:255 4:254 32 0] 
s 15.378001000 _1_ AGT  --- 528599287 diffusion 0 [0 0 0 0] ------- [1:254 1:255 32 0] 
r 15.378001000 _1_ RTR  --- 528599287 diffusion 0 [0 0 0 0] ------- [1:254 1:255 32 0] 
r 15.378002000 _1_ AGT  --- 1225933906 diffusion 0 [0 0 0 0] ------- [1:255 1:254 32 0] 
s 20.000001000 _0_ AGT  --- 1190071890 diffusion 0 [0 0 0 0] ------- [0:254 0:255 32 0] 
r 20.000001000 _0_ RTR  --- 1190071890 diffusion 0 [0 0 0 0] ------- [0:254 0:255 32 0] 
s 20.000001000 _1_ AGT  --- 528599288 diffusion 0 [0 0 0 0] ------- [1:254 1:255 32 0] 
r 20.000001000 _1_ RTR  --- 528599288 diffusion 0 [0 0 0 0] ------- [1:254 1:255 32 0] 
s 20.000001000 _2_ AGT  --- 1566500009 diffusion 0 [0 0 0 0] ------- [2:254 2:255 32 0] 
r 20.000001000 _2_ RTR  --- 1566500009 diffusion 0 [0 0 0 0] ------- [2:254 2:255 32 0] 
s 20.000001000 _3_ AGT  --- 1437693525 diffusion 0 [0 0 0 0] ------- [3:254 3:255 32 0] 
r 20.000001000 _3_ RTR  --- 1437693525 diffusion 0 [0 0 0 0] ------- [3:254 3:255 32 0] 
s 20.000001000 _4_ AGT  --- 300615859 diffusion 0 [0 0 0 0] ------- [4:254 4:255 32 0] 
r 20.000001000 _4_ RTR  --- 300615859 diffusion 0 [0 0 0 0] ------- [4:254 4:255 32 0] 
s 20.123001000 _1_ AGT  --- 528599289 diffusion 0 [0 0 0 0] ------- [1:254 1:255 32 0] 
r 20.123001000 _1_ RTR  --- 528599289 diffusion 0 [0 0 0 0] ------- [1:254 1:255 32 0] 
r 20.123002000 _1_ AGT  --- 1225933907 diffusion 0 [0 0 0 0] ------- [1:255 1:254 32 0] 
s 20.123003000 _1_ AGT  --- 528599290 diffusion 0 [0 0 0 0] ------- [1:254 1:255 32 0] 
r 20.123003000 _1_ RTR  --- 528599290 diffusion 0 [0 0 0 0] ------- [1:254 1:255 32 0] 
r 20.124364431 _4_ RTR  --- 528599289 diffusion 0 [13a 4 1 800] ------- [1:255 4:255 32 4] 
r 20.124365431 _4_ AGT  --- 611591127 diffusion 0 [0 0 0 0] ------- [4:255 4:254 32 0] 
s 20.124366431 _4_ AGT  --- 300615860 diffusion 0 [0 0 0 0] ------- [4:254 4:255 32 0] 
r 20.124366431 _4_ RTR  --- 300615860 diffusion 0 [0 0 0 0] ------- [4:254 4:255 32 0] 
r 20.124367431 _4_ AGT  --- 528599289 diffusion 0 [0 0 0 0] ------- [4:255 4:254 32 0] 
s 25.123001000 _1_ AGT  --- 528599291 diffusion 0 [0 0 0 0] ------- [1:254 1:255 32 0] 
r 25.123001000 _1_ RTR  --- 528599291 diffusion 0 [0 0 0 0] ------- [1:254 1:255 32 0] 
r 25.123002000 _1_ AGT  --- 1225933908 diffusion 0 [0 0 0 0] ------- [1:255 1:254 32 0] 
s 25.123003000 _1_ AGT  --- 528599292 diffusion 0 [0 0 0 0] ------- [1:254 1:255 32 0] 
r 25.123003000 _1_ RTR  --- 528599292 diffusion 0 [0 0 0 0] ------- [1:254 1:255 32 0] 
r 25.124824431 _4_ RTR  --- 528599291 diffusion 0 [13a 4 1 800] ------- [1:255 4:255 32 4] 
r 25.124825431 _4_ AGT  --- 611591128 diffusion 0 [0 0 0 0] ------- [4:255 4:254 32 0] 
s 25.124826431 _4_ AGT  --- 300615861 diffusion 0 [0 0 0 0] ------- [4:254 4:255 32 0] 
r 25.124826431 _4_ RTR  --- 300615861 diffusion 0 [0 0 0 0] ------- [4:254 4:255 32 0] 
r 25.124827431 _4_ AGT  --- 528599291 diffusion 0 [0 0 0 0] ------- [4:255 4:254 32 0] 
s 30.123001000 _1_ AGT  --- 528599293 diffusion 0 [0 0 0 0] ------- [1:254 1:255 32 0] 
r 30.123001000 _1_ RTR  --- 528599293 diffusion 0 [0 0 0 0] ------- [1:254 1:255 32 0] 
r 30.123002000 _1_ AGT  --- 1225933909 diffusion 0 [0 0 0 0] ------- [1:255 1:254 32 0] 
s 30.123003000 _1_ AGT  --- 528599294 diffusion 0 [0 0 0 0] ------- [1:254 1:255 32 0] 
r 30.123003000 _1_ RTR  --- 528599294 diffusion 0 [0 0 0 0] ------- [1:254 1:255 32 0] 
r 30.124644431 _4_ RTR  --- 528599293 diffusion 0 [13a 4 1 800] ------- [1:255 4:255 32 4] 
r 30.124645431 _4_ AGT  --- 611591129 diffusion 0 [0 0 0 0] ------- [4:255 4:254 32 0] 
s 30.124646431 _4_ AGT  --- 300615862 diffusion 0 [0 0 0 0] ------- [4:254 4:255 32 0] 
r 30.124646431 _4_ RTR  --- 300615862 diffusion 0 [0 0 0 0] ------- [4:254 4:255 32 0] 
r 30.124647431 _4_ AGT  --- 528599293 diffusion 0 [0 0 0 0] ------- [4:255 4:254 32 0] 
s 32.698001000 _4_ AGT  --- 300615863 diffusion 0 [0 0 0 0] ------- [4:254 4:255 32 0] 
r 32.698001000 _4_ RTR  --- 300615863 diffusion 0 [0 0 0 0] ------- [4:254 4:255 32 0] 
r 32.698002000 _4_ AGT  --- 611591130 diffusion 0 [0 0 0 0] ------- [4:255 4:254 32 0] 
s 32.800003000 _4_ AGT  --- 300615864 diffusion 0 [0 0 0 0] ------- [4:254 4:255 32 0] 
r 32.800003000 _4_ RTR  --- 300615864 diffusion 0 [0 0 0 0] ------- [4:254 4:255 32 0] 
r 32.800587194 _3_ RTR  --- 300615863 diffusion 0 [0 ffffffff 4 800] ------- [4:255 -1:255 32 0] 
r 32.800587477 _1_ RTR  --- 300615863 diffusion 0 [0 ffffffff 4 800] ------- [4:255 -1:255 32 0] 
r 32.800587590 _2_ RTR  --- 300615863 diffusion 0 [0 ffffffff 4 800] ------- [4:255 -1:255 32 0] 
r 32.800588194 _3_ AGT  --- 1223941499 diffusion 0 [0 0 0 0] ------- [3:255 3:254 32 0] 
r 32.800588477 _1_ AGT  --- 1225933910 diffusion 0 [0 0 0 0] ------- [1:255 1:254 32 0] 
r 32.800588590 _2_ AGT  --- 580900448 diffusion 0 [0 0 0 0] ------- [2:255 2:254 32 0] 
s 32.889589590 _2_ AGT  --- 1566500010 diffusion 0 [0 0 0 0] ------- [2:254 2:255 32 0] 
r 32.889589590 _2_ RTR  --- 1566500010 diffusion 0 [0 0 0 0] ------- [2:254 2:255 32 0] 
r 32.890474042 _3_ RTR  --- 300615863 diffusion 0 [0 ffffffff 2 800] ------- [2:255 -1:255 32 0] 
r 32.890474180 _4_ RTR  --- 300615863 diffusion 0 [0 ffffffff 2 800] ------- [2:255 -1:255 32 0] 
r 32.890474300 _1_ RTR  --- 300615863 diffusion 0 [0 ffffffff 2 800] ------- [2:255 -1:255 32 0] 
r 32.890475042 _3_ AGT  --- 1223941500 diffusion 0 [0 0 0 0] ------- [3:255 3:254 32 0] 
r 32.890475180 _4_ AGT  --- 611591131 diffusion 0 [0 0 0 0] ------- [4:255 4:254 32 0] 
r 32.890475300 _1_ AGT  --- 1225933911 diffusion 0 [0 0 0 0] ------- [1:255 1:254 32 0] 
s 32.906589194 _3_ AGT  --- 1437693526 diffusion 0 [0 0 0 0] ------- [3:254 3:255 32 0] 
r 32.906589194 _3_ RTR  --- 1437693526 diffusion 0 [0 0 0 0] ------- [3:254 3:255 32 0] 
r 32.907613388 _4_ RTR  --- 300615863 diffusion 0 [0 ffffffff 3 800] ------- [3:255 -1:255 32 0] 
r 32.907613647 _2_ RTR  --- 300615863 diffusion 0 [0 ffffffff 3 800] ------- [3:255 -1:255 32 0] 
r 32.907613793 _1_ RTR  --- 300615863 diffusion 0 [0 ffffffff 3 800] ------- [3:255 -1:255 32 0] 
r 32.907614388 _4_ AGT  --- 611591132 diffusion 0 [0 0 0 0] ------- [4:255 4:254 32 0] 
r 32.907614647 _2_ AGT  --- 580900449 diffusion 0 [0 0 0 0] ------- [2:255 2:254 32 0] 
r 32.907614793 _1_ AGT  --- 1225933912 diffusion 0 [0 0 0 0] ------- [1:255 1:254 32 0] 
s 32.917589477 _1_ AGT  --- 528599295 diffusion 0 [0 0 0 0] ------- [1:254 1:255 32 0] 
r 32.917589477 _1_ RTR  --- 528599295 diffusion 0 [0 0 0 0] ------- [1:254 1:255 32 0] 
r 32.918353954 _4_ RTR  --- 300615863 diffusion 0 [0 ffffffff 1 800] ------- [1:255 -1:255 32 0] 
r 32.918354076 _3_ RTR  --- 300615863 diffusion 0 [0 ffffffff 1 800] ------- [1:255 -1:255 32 0] 
r 32.918354187 _2_ RTR  --- 300615863 diffusion 0 [0 ffffffff 1 800] ------- [1:255 -1:255 32 0] 
r 32.918354954 _4_ AGT  --- 611591133 diffusion 0 [0 0 0 0] ------- [4:255 4:254 32 0] 
r 32.918355076 _3_ AGT  --- 1223941501 diffusion 0 [0 0 0 0] ------- [3:255 3:254 32 0] 
r 32.918355187 _2_ AGT  --- 580900450 diffusion 0 [0 0 0 0] ------- [2:255 2:254 32 0] 
s 34.267001000 _1_ AGT  --- 528599296 diffusion 0 [0 0 0 0] ------- [1:254 1:255 32 0] 
r 34.267001000 _1_ RTR  --- 528599296 diffusion 0 [0 0 0 0] ------- [1:254 1:255 32 0] 
r 34.267002000 _1_ AGT  --- 1225933913 diffusion 0 [0 0 0 0] ------- [1:255 1:254 32 0] 
s 35.123001000 _1_ AGT  --- 528599297 diffusion 0 [0 0 0 0] ------- [1:254 1:255 32 0] 
r 35.123001000 _1_ RTR  --- 528599297 diffusion 0 [0 0 0 0] ------- [1:254 1:255 32 0] 
r 35.123002000 _1_ AGT  --- 1225933914 diffusion 0 [0 0 0 0] ------- [1:255 1:254 32 0] 
s 35.123003000 _1_ AGT  --- 528599298 diffusion 0 [0 0 0 0] ------- [1:254 1:255 32 0] 
r 35.123003000 _1_ RTR  --- 528599298 diffusion 0 [0 0 0 0] ------- [1:254 1:255 32 0] 
r 35.124724431 _4_ RTR  --- 528599297 diffusion 0 [13a 4 1 800] ------- [1:255 4:255 32 4] 
r 35.124725431 _4_ AGT  --- 611591134 diffusion 0 [0 0 0 0] ------- [4:255 4:254 32 0] 
s 35.124726431 _4_ AGT  --- 300615865 diffusion 0 [0 0 0 0] ------- [4:254 4:255 32 0] 
r 35.124726431 _4_ RTR  --- 300615865 diffusion 0 [0 0 0 0] ------- [4:254 4:255 32 0] 
r 35.124727431 _4_ AGT  --- 528599297 diffusion 0 [0 0 0 0] ------- [4:255 4:254 32 0] 
s 40.000001000 _0_ AGT  --- 1190071891 diffusion 0 [0 0 0 0] ------- [0:254 0:255 32 0] 
r 40.000001000 _0_ RTR  --- 1190071891 diffusion 0 [0 0 0 0] ------- [0:254 0:255 32 0] 
s 40.000001000 _1_ AGT  --- 528599299 diffusion 0 [0 0 0 0] ------- [1:254 1:255 32 0] 
r 40.000001000 _1_ RTR  --- 528599299 diffusion 0 [0 0 0 0] ------- [1:254 1:255 32 0] 
s 40.000001000 _2_ AGT  --- 1566500011 diffusion 0 [0 0 0 0] ------- [2:254 2:255 32 0] 
r 40.000001000 _2_ RTR  --- 1566500011 diffusion 0 [0 0 0 0] ------- [2:254 2:255 32 0] 
s 40.000001000 _3_ AGT  --- 1437693527 diffusion 0 [0 0 0 0] ------- [3:254 3:255 32 0] 
r 40.000001000 _3_ RTR  --- 1437693527 diffusion 0 [0 0 0 0] ------- [3:254 3:255 32 0] 
s 40.000001000 _4_ AGT  --- 300615866 diffusion 0 [0 0 0 0] ------- [4:254 4:255 32 0] 
r 40.000001000 _4_ RTR  --- 300615866 diffusion 0 [0 0 0 0] ------- [4:254 4:255 32 0] 
s 40.123001000 _1_ AGT  --- 528599300 diffusion 0 [0 0 0 0] ------- [1:254 1:255 32 0] 
r 40.123001000 _1_ RTR  --- 528599300 diffusion 0 [0 0 0 0] ------- [1:254 1:255 32 0] 
r 40.123002000 _1_ AGT  --- 1225933915 diffusion 0 [0 0 0 0] ------- [1:255 1:254 32 0] 
s 40.123003000 _1_ AGT  --- 528599301 diffusion 0 [0 0 0 0] ------- [1:254 1:255 32 0] 
r 40.123003000 _1_ RTR  --- 528599301 diffusion 0 [0 0 0 0] ------- [1:254 1:255 32 0] 
r 40.124364431 _4_ RTR  --- 528599300 diffusion 0 [13a 4 1 800] ------- [1:255 4:255 32 4] 
r 40.124365431 _4_ AGT  --- 611591135 diffusion 0 [0 0 0 0] ------- [4:255 4:254 32 0] 
s 40.124366431 _4_ AGT  --- 300615867 diffusion 0 [0 0 0 0] ------- [4:254 4:255 32 0] 
r 40.124366431 _4_ RTR  --- 300615867 diffusion 0 [0 0 0 0] ------- [4:254 4:255 32 0] 
r 40.124367431 _4_ AGT  --- 528599300 diffusion 0 [0 0 0 0] ------- [4:255 4:254 32 0] 
s 41.748001000 _4_ AGT  --- 300615868 diffusion 0 [0 0 0 0] ------- [4:254 4:255 32 0] 
r 41.748001000 _4_ RTR  --- 300615868 diffusion 0 [0 0 0 0] ------- [4:254 4:255 32 0] 
r 41.748002000 _4_ AGT  --- 611591136 diffusion 0 [0 0 0 0] ------- [4:255 4:254 32 0] 
s 41.867003000 _4_ AGT  --- 300615869 diffusion 0 [0 0 0 0] ------- [4:254 4:255 32 0] 
r 41.867003000 _4_ RTR  --- 300615869 diffusion 0 [0 0 0 0] ------- [4:254 4:255 32 0] 
r 41.867847194 _3_ RTR  --- 300615868 diffusion 0 [0 ffffffff 4 800] ------- [4:255 -1:255 32 0] 
r 41.867847477 _1_ RTR  --- 300615868 diffusion 0 [0 ffffffff 4 800] ------- [4:255 -1:255 32 0] 
r 41.867847590 _2_ RTR  --- 300615868 diffusion 0 [0 ffffffff 4 800] ------- [4:255 -1:255 32 0] 
r 41.867848194 _3_ AGT  --- 1223941502 diffusion 0 [0 0 0 0] ------- [3:255 3:254 32 0] 
r 41.867848477 _1_ AGT  --- 1225933916 diffusion 0 [0 0 0 0] ------- [1:255 1:254 32 0] 
r 41.867848590 _2_ AGT  --- 580900451 diffusion 0 [0 0 0 0] ------- [2:255 2:254 32 0] 
s 41.967849477 _1_ AGT  --- 528599302 diffusion 0 [0 0 0 0] ------- [1:254 1:255 32 0] 
r 41.967849477 _1_ RTR  --- 528599302 diffusion 0 [0 0 0 0] ------- [1:254 1:255 32 0] 
r 41.968833954 _4_ RTR  --- 300615868 diffusion 0 [0 ffffffff 1 800] ------- [1:255 -1:255 32 0] 
r 41.968834076 _3_ RTR  --- 300615868 diffusion 0 [0 ffffffff 1 800] ------- [1:255 -1:255 32 0] 
r 41.968834187 _2_ RTR  --- 300615868 diffusion 0 [0 ffffffff 1 800] ------- [1:255 -1:255 32 0] 
r 41.968834954 _4_ AGT  --- 611591137 diffusion 0 [0 0 0 0] ------- [4:255 4:254 32 0] 
r 41.968835076 _3_ AGT  --- 1223941503 diffusion 0 [0 0 0 0] ------- [3:255 3:254 32 0] 
r 41.968835187 _2_ AGT  --- 580900452 diffusion 0 [0 0 0 0] ------- [2:255 2:254 32 0] 
s 41.971849194 _3_ AGT  --- 1437693528 diffusion 0 [0 0 0 0] ------- [3:254 3:255 32 0] 
r 41.971849194 _3_ RTR  --- 1437693528 diffusion 0 [0 0 0 0] ------- [3:254 3:255 32 0] 
r 41.972573388 _4_ RTR  --- 300615868 diffusion 0 [0 ffffffff 3 800] ------- [3:255 -1:255 32 0] 
r 41.972573647 _2_ RTR  --- 300615868 diffusion 0 [0 ffffffff 3 800] ------- [3:255 -1:255 32 0] 
r 41.972573793 _1_ RTR  --- 300615868 diffusion 0 [0 ffffffff 3 800] ------- [3:255 -1:255 32 0] 
r 41.972574388 _4_ AGT  --- 611591138 diffusion 0 [0 0 0 0] ------- [4:255 4:254 32 0] 
r 41.972574647 _2_ AGT  --- 580900453 diffusion 0 [0 0 0 0] ------- [2:255 2:254 32 0] 
r 41.972574793 _1_ AGT  --- 1225933917 diffusion 0 [0 0 0 0] ------- [1:255 1:254 32 0] 
s 41.980849590 _2_ AGT  --- 1566500012 diffusion 0 [0 0 0 0] ------- [2:254 2:255 32 0] 
r 41.980849590 _2_ RTR  --- 1566500012 diffusion 0 [0 0 0 0] ------- [2:254 2:255 32 0] 
r 41.981654042 _3_ RTR  --- 300615868 diffusion 0 [0 ffffffff 2 800] ------- [2:255 -1:255 32 0] 
r 41.981654180 _4_ RTR  --- 300615868 diffusion 0 [0 ffffffff 2 800] ------- [2:255 -1:255 32 0] 
r 41.981654300 _1_ RTR  --- 300615868 diffusion 0 [0 ffffffff 2 800] ------- [2:255 -1:255 32 0] 
r 41.981655042 _3_ AGT  --- 1223941504 diffusion 0 [0 0 0 0] ------- [3:255 3:254 32 0] 
r 41.981655180 _4_ AGT  --- 611591139 diffusion 0 [0 0 0 0] ------- [4:255 4:254 32 0] 
r 41.981655300 _1_ AGT  --- 1225933918 diffusion 0 [0 0 0 0] ------- [1:255 1:254 32 0] 
s 45.123001000 _1_ AGT  --- 528599303 diffusion 0 [0 0 0 0] ------- [1:254 1:255 32 0] 
r 45.123001000 _1_ RTR  --- 528599303 diffusion 0 [0 0 0 0] ------- [1:254 1:255 32 0] 
r 45.123002000 _1_ AGT  --- 1225933919 diffusion 0 [0 0 0 0] ------- [1:255 1:254 32 0] 
s 45.123003000 _1_ AGT  --- 528599304 diffusion 0 [0 0 0 0] ------- [1:254 1:255 32 0] 
r 45.123003000 _1_ RTR  --- 528599304 diffusion 0 [0 0 0 0] ------- [1:254 1:255 32 0] 
r 45.124304431 _4_ RTR  --- 528599303 diffusion 0 [13a 4 1 800] ------- [1:255 4:255 32 4] 
r 45.124305431 _4_ AGT  --- 611591140 diffusion 0 [0 0 0 0] ------- [4:255 4:254 32 0] 
s 45.124306431 _4_ AGT  --- 300615870 diffusion 0 [0 0 0 0] ------- [4:254 4:255 32 0] 
r 45.124306431 _4_ RTR  --- 300615870 diffusion 0 [0 0 0 0] ------- [4:254 4:255 32 0] 
r 45.124307431 _4_ AGT  --- 528599303 diffusion 0 [0 0 0 0] ------- [4:255 4:254 32 0] 
s 50.123001000 _1_ AGT  --- 528599305 diffusion 0 [0 0 0 0] ------- [1:254 1:255 32 0] 
r 50.123001000 _1_ RTR  --- 528599305 diffusion 0 [0 0 0 0] ------- [1:254 1:255 32 0] 
r 50.123002000 _1_ AGT  --- 1225933920 diffusion 0 [0 0 0 0] ------- [1:255 1:254 32 0] 
s 50.123003000 _1_ AGT  --- 528599306 diffusion 0 [0 0 0 0] ------- [1:254 1:255 32 0] 
r 50.123003000 _1_ RTR  --- 528599306 diffusion 0 [0 0 0 0] ------- [1:254 1:255 32 0] 
r 50.124524431 _4_ RTR  --- 528599305 diffusion 0 [13a 4 1 800] ------- [1:255 4:255 32 4] 
r 50.124525431 _4_ AGT  --- 611591141 diffusion 0 [0 0 0 0] ------- [4:255 4:254 32 0] 
s 50.124526431 _4_ AGT  --- 300615871 diffusion 0 [0 0 0 0] ------- [4:254 4:255 32 0] 
r 50.124526431 _4_ RTR  --- 300615871 diffusion 0 [0 0 0 0] ------- [4:254 4:255 32 0] 
r 50.124527431 _4_ AGT  --- 528599305 diffusion 0 [0 0 0 0] ------- [4:255 4:254 32 0] 
s 55.123001000 _1_ AGT  --- 528599307 diffusion 0 [0 0 0 0] ------- [1:254 1:255 32 0] 
r 55.123001000 _1_ RTR  --- 528599307 diffusion 0 [0 0 0 0] ------- [1:254 1:255 32 0] 
r 55.123002000 _1_ AGT  --- 1225933921 diffusion 0 [0 0 0 0] ------- [1:255 1:254 32 0] 
s 55.123003000 _1_ AGT  --- 528599308 diffusion 0 [0 0 0 0] ------- [1:254 1:255 32 0] 
r 55.123003000 _1_ RTR  --- 528599308 diffusion 0 [0 0 0 0] ------- [1:254 1:255 32 0] 
r 55.124624431 _4_ RTR  --- 528599307 diffusion 0 [13a 4 1 800] ------- [1:255 4:255 32 4] 
r 55.124625431 _4_ AGT  --- 611591142 diffusion 0 [0 0 0 0] ------- [4:255 4:254 32 0] 
s 55.124626431 _4_ AGT  --- 300615872 diffusion 0 [0 0 0 0] ------- [4:254 4:255 32 0] 
r 55.124626431 _4_ RTR  --- 300615872 diffusion 0 [0 0 0 0] ------- [4:254 4:255 32 0] 
r 55.124627431 _4_ AGT  --- 528599307 diffusion 0 [0 0 0 0] ------- [4:255 4:254 32 0] 
s 55.297001000 _1_ AGT  --- 528599309 diffusion 0 [0 0 0 0] ------- [1:254 1:255 32 0] 
r 55.297001000 _1_ RTR  --- 528599309 diffusion 0 [0 0 0 0] ------- [1:254 1:255 32 0] 
r 55.297002000 _1_ AGT  --- 1225933922 diffusion 0 [0 0 0 0] ------- [1:255 1:254 32 0] 
s 60.000001000 _0_ AGT  --- 1190071892 diffusion 0 [0 0 0 0] ------- [0:254 0:255 32 0] 
r 60.000001000 _0_ RTR  --- 1190071892 diffusion 0 [0 0 0 0] ------- [0:254 0:255 32 0] 
s 60.000001000 _1_ AGT  --- 528599310 diffusion 0 [0 0 0 0] ------- [1:254 1:255 32 0] 
r 60.000001000 _1_ RTR  --- 528599310 diffusion 0 [0 0 0 0] ------- [1:254 1:255 32 0] 
s 60.000001000 _2_ AGT  --- 1566500013 diffusion 0 [0 0 0 0] ------- [2:254 2:255 32 0] 
r 60.000001000 _2_ RTR  --- 1566500013 diffusion 0 [0 0 0 0] ------- [2:254 2:255 32 0] 
s 60.000001000 _3_ AGT  --- 1437693529 diffusion 0 [0 0 0 0] ------- [3:254 3:255 32 0] 
r 60.000001000 _3_ RTR  --- 1437693529 diffusion 0 [0 0 0 0] ------- [3:254 3:255 32 0] 
s 60.000001000 _4_ AGT  --- 300615873 diffusion 0 [0 0 0 0] ------- [4:254 4:255 32 0] 
r 60.000001000 _4_ RTR  --- 300615873 diffusion 0 [0 0 0 0] ------- [4:254 4:255 32 0] 
s 60.123001000 _1_ AGT  --- 528599311 diffusion 0 [0 0 0 0] ------- [1:254 1:255 32 0] 
r 60.123001000 _1_ RTR  --- 528599311 diffusion 0 [0 0 0 0] ------- [1:254 1:255 32 0] 
r 60.123002000 _1_ AGT  --- 1225933923 diffusion 0 [0 0 0 0] ------- [1:255 1:254 32 0] 
s 60.123003000 _1_ AGT  --- 528599312 diffusion 0 [0 0 0 0] ------- [1:254 1:255 32 0] 
r 60.123003000 _1_ RTR  --- 528599312 diffusion 0 [0 0 0 0] ------- [1:254 1:255 32 0] 
r 60.124624431 _4_ RTR  --- 528599311 diffusion 0 [13a 4 1 800] ------- [1:255 4:255 32 4] 
r 60.124625431 _4_ AGT  --- 611591143 diffusion 0 [0 0 0 0] ------- [4:255 4:254 32 0] 
s 60.124626431 _4_ AGT  --- 300615874 diffusion 0 [0 0 0 0] ------- [4:254 4:255 32 0] 
r 60.124626431 _4_ RTR  --- 300615874 diffusion 0 [0 0 0 0] ------- [4:254 4:255 32 0] 
r 60.124627431 _4_ AGT  --- 528599311 diffusion 0 [0 0 0 0] ------- [4:255 4:254 32 0] 
s 65.123001000 _1_ AGT  --- 528599313 diffusion 0 [0 0 0 0] ------- [1:254 1:255 32 0] 
r 65.123001000 _1_ RTR  --- 528599313 diffusion 0 [0 0 0 0] ------- [1:254 1:255 32 0] 
r 65.123002000 _1_ AGT  --- 1225933924 diffusion 0 [0 0 0 0] ------- [1:255 1:254 32 0] 
s 65.123003000 _1_ AGT  --- 528599314 diffusion 0 [0 0 0 0] ------- [1:254 1:255 32 0] 
r 65.123003000 _1_ RTR  --- 528599314 diffusion 0 [0 0 0 0] ------- [1:254 1:255 32 0] 
r 65.124244431 _4_ RTR  --- 528599313 diffusion 0 [13a 4 1 800] ------- [1:255 4:255 32 4] 
r 65.124245431 _4_ AGT  --- 611591144 diffusion 0 [0 0 0 0] ------- [4:255 4:254 32 0] 
s 65.124246431 _4_ AGT  --- 300615875 diffusion 0 [0 0 0 0] ------- [4:254 4:255 32 0] 
r 65.124246431 _4_ RTR  --- 300615875 diffusion 0 [0 0 0 0] ------- [4:254 4:255 32 0] 
r 65.124247431 _4_ AGT  --- 528599313 diffusion 0 [0 0 0 0] ------- [4:255 4:254 32 0] 
s 68.348001000 _1_ AGT  --- 528599315 diffusion 0 [0 0 0 0] ------- [1:254 1:255 32 0] 
r 68.348001000 _1_ RTR  --- 528599315 diffusion 0 [0 0 0 0] ------- [1:254 1:255 32 0] 
r 68.348002000 _1_ AGT  --- 1225933925 diffusion 0 [0 0 0 0] ------- [1:255 1:254 32 0] 
s 70.123001000 _1_ AGT  --- 528599316 diffusion 0 [0 0 0 0] ------- [1:254 1:255 32 0] 
r 70.123001000 _1_ RTR  --- 528599316 diffusion 0 [0 0 0 0] ------- [1:254 1:255 32 0] 
r 70.123002000 _1_ AGT  --- 1225933926 diffusion 0 [0 0 0 0] ------- [1:255 1:254 32 0] 
s 70.123003000 _1_ AGT  --- 528599317 diffusion 0 [0 0 0 0] ------- [1:254 1:255 32 0] 
r 70.123003000 _1_ RTR  --- 528599317 diffusion 0 [0 0 0 0] ------- [1:254 1:255 32 0] 
r 70.124744431 _4_ RTR  --- 528599316 diffusion 0 [13a 4 1 800] ------- [1:255 4:255 32 4] 
r 70.124745431 _4_ AGT  --- 611591145 diffusion 0 [0 0 0 0] ------- [4:255 4:254 32 0] 
s 70.124746431 _4_ AGT  --- 300615876 diffusion 0 [0 0 0 0] ------- [4:254 4:255 32 0] 
r 70.124746431 _4_ RTR  --- 300615876 diffusion 0 [0 0 0 0] ------- [4:254 4:255 32 0] 
r 70.124747431 _4_ AGT  --- 528599316 diffusion 0 [0 0 0 0] ------- [4:255 4:254 32 0] 
s 74.194001000 _4_ AGT  --- 300615877 diffusion 0 [0 0 0 0] ------- [4:254 4:255 32 0] 
r 74.194001000 _4_ RTR  --- 300615877 diffusion 0 [0 0 0 0] ------- [4:254 4:255 32 0] 
r 74.194002000 _4_ AGT  --- 611591146 diffusion 0 [0 0 0 0] ------- [4:255 4:254 32 0] 
s 74.312003000 _4_ AGT  --- 300615878 diffusion 0 [0 0 0 0] ------- [4:254 4:255 32 0] 
r 74.312003000 _4_ RTR  --- 300615878 diffusion 0 [0 0 0 0] ------- [4:254 4:255 32 0] 
r 74.312607194 _3_ RTR  --- 300615877 diffusion 0 [0 ffffffff 4 800] ------- [4:255 -1:255 32 0] 
r 74.312607477 _1_ RTR  --- 300615877 diffusion 0 [0 ffffffff 4 800] ------- [4:255 -1:255 32 0] 
r 74.312607590 _2_ RTR  --- 300615877 diffusion 0 [0 ffffffff 4 800] ------- [4:255 -1:255 32 0] 
r 74.312608194 _3_ AGT  --- 1223941505 diffusion 0 [0 0 0 0] ------- [3:255 3:254 32 0] 
r 74.312608477 _1_ AGT  --- 1225933927 diffusion 0 [0 0 0 0] ------- [1:255 1:254 32 0] 
r 74.312608590 _2_ AGT  --- 580900454 diffusion 0 [0 0 0 0] ------- [2:255 2:254 32 0] 
s 74.399609194 _3_ AGT  --- 1437693530 diffusion 0 [0 0 0 0] ------- [3:254 3:255 32 0] 
r 74.399609194 _3_ RTR  --- 1437693530 diffusion 0 [0 0 0 0] ------- [3:254 3:255 32 0] 
r 74.400313388 _4_ RTR  --- 300615877 diffusion 0 [0 ffffffff 3 800] ------- [3:255 -1:255 32 0] 
r 74.400313647 _2_ RTR  --- 300615877 diffusion 0 [0 ffffffff 3 800] ------- [3:255 -1:255 32 0] 
r 74.400313793 _1_ RTR  --- 300615877 diffusion 0 [0 ffffffff 3 800] ------- [3:255 -1:255 32 0] 
r 74.400314388 _4_ AGT  --- 611591147 diffusion 0 [0 0 0 0] ------- [4:255 4:254 32 0] 
r 74.400314647 _2_ AGT  --- 580900455 diffusion 0 [0 0 0 0] ------- [2:255 2:254 32 0] 
r 74.400314793 _1_ AGT  --- 1225933928 diffusion 0 [0 0 0 0] ------- [1:255 1:254 32 0] 
s 74.411609590 _2_ AGT  --- 1566500014 diffusion 0 [0 0 0 0] ------- [2:254 2:255 32 0] 
r 74.411609590 _2_ RTR  --- 1566500014 diffusion 0 [0 0 0 0] ------- [2:254 2:255 32 0] 
r 74.412554042 _3_ RTR  --- 300615877 diffusion 0 [0 ffffffff 2 800] ------- [2:255 -1:255 32 0] 
r 74.412554180 _4_ RTR  --- 300615877 diffusion 0 [0 ffffffff 2 800] ------- [2:255 -1:255 32 0] 
r 74.412554300 _1_ RTR  --- 300615877 diffusion 0 [0 ffffffff 2 800] ------- [2:255 -1:255 32 0] 
r 74.412555042 _3_ AGT  --- 1223941506 diffusion 0 [0 0 0 0] ------- [3:255 3:254 32 0] 
r 74.412555180 _4_ AGT  --- 611591148 diffusion 0 [0 0 0 0] ------- [4:255 4:254 32 0] 
r 74.412555300 _1_ AGT  --- 1225933929 diffusion 0 [0 0 0 0] ------- [1:255 1:254 32 0] 
s 74.435609477 _1_ AGT  --- 528599318 diffusion 0 [0 0 0 0] ------- [1:254 1:255 32 0] 
r 74.435609477 _1_ RTR  --- 528599318 diffusion 0 [0 0 0 0] ------- [1:254 1:255 32 0] 
r 74.436233954 _4_ RTR  --- 300615877 diffusion 0 [0 ffffffff 1 800] ------- [1:255 -1:255 32 0] 
r 74.436234076 _3_ RTR  --- 300615877 diffusion 0 [0 ffffffff 1 800] ------- [1:255 -1:255 32 0] 