s 0.000001000 _0_ AGT  --- 1190071889 diffusion 0 [0 0 0 0] ------- [0:254 0:255 32 0] 
s 0.000001000 _1_ AGT  --- 528599277 diffusion 0 [0 0 0 0] ------- [1:254 1:255 32 0] 
s 0.000001000 _2_ AGT  --- 1566500007 diffusion 0 [0 0 0 0] ------- [2:254 2:255 32 0] 
s 0.000001000 _3_ AGT  --- 1437693523 diffusion 0 [0 0 0 0] ------- [3:254 3:255 32 0] 
s 0.000001000 _4_ AGT  --- 300615853 diffusion 0 [0 0 0 0] ------- [4:254 4:255 32 0] 
s 0.000001000 _0_ AGT  --- 1190071890 diffusion 0 [0 0 0 0] ------- [0:254 0:255 32 0] 
s 0.000001000 _0_ AGT  --- 1190071891 diffusion 0 [0 0 0 0] ------- [0:254 0:255 32 0] 
s 0.000001000 _0_ AGT  --- 1190071892 diffusion 0 [0 0 0 0] ------- [0:254 0:255 32 0] 
s 0.000001000 _1_ AGT  --- 528599278 diffusion 0 [0 0 0 0] ------- [1:254 1:255 32 0] 
s 0.000001000 _1_ AGT  --- 528599279 diffusion 0 [0 0 0 0] ------- [1:254 1:255 32 0] 
s 0.000001000 _1_ AGT  --- 528599280 diffusion 0 [0 0 0 0] ------- [1:254 1:255 32 0] 
s 0.000001000 _2_ AGT  --- 1566500008 diffusion 0 [0 0 0 0] ------- [2:254 2:255 32 0] 
s 0.000001000 _2_ AGT  --- 1566500009 diffusion 0 [0 0 0 0] ------- [2:254 2:255 32 0] 
s 0.000001000 _2_ AGT  --- 1566500010 diffusion 0 [0 0 0 0] ------- [2:254 2:255 32 0] 
s 0.000001000 _3_ AGT  --- 1437693524 diffusion 0 [0 0 0 0] ------- [3:254 3:255 32 0] 
s 0.000001000 _3_ AGT  --- 1437693525 diffusion 0 [0 0 0 0] ------- [3:254 3:255 32 0] 
s 0.000001000 _3_ AGT  --- 1437693526 diffusion 0 [0 0 0 0] ------- [3:254 3:255 32 0] 
s 0.000001000 _4_ AGT  --- 300615854 diffusion 0 [0 0 0 0] ------- [4:254 4:255 32 0] 
s 0.000001000 _4_ AGT  --- 300615855 diffusion 0 [0 0 0 0] ------- [4:254 4:255 32 0] 
s 0.000001000 _4_ AGT  --- 300615856 diffusion 0 [0 0 0 0] ------- [4:254 4:255 32 0] 
r 0.000586382 _2_ AGT  --- 580900445 diffusion 0 [0 0 0 0] ------- [2:255 2:254 32 0] 
r 0.000586831 _4_ AGT  --- 611591120 diffusion 0 [0 0 0 0] ------- [4:255 4:254 32 0] 
r 0.001201663 _3_ AGT  --- 1223941496 diffusion 0 [0 0 0 0] ------- [3:255 3:254 32 0] 
r 0.001685756 _1_ AGT  --- 1225933899 diffusion 0 [0 0 0 0] ------- [1:255 1:254 32 0] 
r 0.002840169 _0_ AGT  --- 2045655601 diffusion 0 [0 0 0 0] ------- [0:255 0:254 32 0] 
r 0.002840303 _2_ AGT  --- 580900446 diffusion 0 [0 0 0 0] ------- [2:255 2:254 32 0] 
r 0.003954685 _3_ AGT  --- 1223941497 diffusion 0 [0 0 0 0] ------- [3:255 3:254 32 0] 
r 0.003954851 _1_ AGT  --- 1225933900 diffusion 0 [0 0 0 0] ------- [1:255 1:254 32 0] 
s 0.133001000 _0_ AGT  --- 1190071893 diffusion 0 [0 0 0 0] ------- [0:254 0:255 32 0] 
r 0.133002000 _0_ AGT  --- 2045655602 diffusion 0 [0 0 0 0] ------- [0:255 0:254 32 0] 
s 0.133003000 _0_ AGT  --- 1190071894 diffusion 0 [0 0 0 0] ------- [0:254 0:255 32 0] 
r 0.133004000 _0_ AGT  --- 2045655603 diffusion 0 [0 0 0 0] ------- [0:255 0:254 32 0] 
s 1.118587831 _4_ AGT  --- 300615857 diffusion 0 [0 0 0 0] ------- [4:254 4:255 32 0] 
r 1.119273663 _3_ AGT  --- 1223941498 diffusion 0 [0 0 0 0] ------- [3:255 3:254 32 0] 
s 1.177587382 _2_ AGT  --- 1566500011 diffusion 0 [0 0 0 0] ------- [2:254 2:255 32 0] 
r 1.178712764 _3_ AGT  --- 1223941499 diffusion 0 [0 0 0 0] ------- [3:255 3:254 32 0] 
r 1.178712930 _1_ AGT  --- 1225933901 diffusion 0 [0 0 0 0] ------- [1:255 1:254 32 0] 
s 1.217686756 _1_ AGT  --- 528599281 diffusion 0 [0 0 0 0] ------- [1:254 1:255 32 0] 
r 1.218372169 _0_ AGT  --- 2045655604 diffusion 0 [0 0 0 0] ------- [0:255 0:254 32 0] 
r 1.218372303 _2_ AGT  --- 580900447 diffusion 0 [0 0 0 0] ------- [2:255 2:254 32 0] 
s 1.259841303 _2_ AGT  --- 1566500012 diffusion 0 [0 0 0 0] ------- [2:254 2:255 32 0] 
r 1.260726685 _3_ AGT  --- 1223941500 diffusion 0 [0 0 0 0] ------- [3:255 3:254 32 0] 
r 1.260726851 _1_ AGT  --- 1225933902 diffusion 0 [0 0 0 0] ------- [1:255 1:254 32 0] 
s 1.352955685 _3_ AGT  --- 1437693527 diffusion 0 [0 0 0 0] ------- [3:254 3:255 32 0] 
r 1.353981067 _2_ AGT  --- 580900448 diffusion 0 [0 0 0 0] ------- [2:255 2:254 32 0] 
r 1.353981517 _4_ AGT  --- 611591121 diffusion 0 [0 0 0 0] ------- [4:255 4:254 32 0] 
s 1.466001000 _4_ AGT  --- 300615858 diffusion 0 [0 0 0 0] ------- [4:254 4:255 32 0] 
r 1.466002000 _4_ AGT  --- 611591122 diffusion 0 [0 0 0 0] ------- [4:255 4:254 32 0] 
s 1.466003000 _4_ AGT  --- 300615859 diffusion 0 [0 0 0 0] ------- [4:254 4:255 32 0] 
r 1.466004000 _4_ AGT  --- 611591123 diffusion 0 [0 0 0 0] ------- [4:255 4:254 32 0] 
s 1.530202663 _3_ AGT  --- 1437693528 diffusion 0 [0 0 0 0] ------- [3:254 3:255 32 0] 
r 1.531328045 _2_ AGT  --- 580900449 diffusion 0 [0 0 0 0] ------- [2:255 2:254 32 0] 
r 1.531328494 _4_ AGT  --- 611591124 diffusion 0 [0 0 0 0] ------- [4:255 4:254 32 0] 
s 1.545005000 _4_ AGT  --- 300615860 diffusion 0 [0 0 0 0] ------- [4:254 4:255 32 0] 
r 1.545006000 _4_ AGT  --- 611591125 diffusion 0 [0 0 0 0] ------- [4:255 4:254 32 0] 
s 1.545007000 _4_ AGT  --- 300615861 diffusion 0 [0 0 0 0] ------- [4:254 4:255 32 0] 
r 1.549004820 _3_ AGT  --- 1223941501 diffusion 0 [0 0 0 0] ------- [3:255 3:254 32 0] 
s 1.549005820 _3_ AGT  --- 1437693529 diffusion 0 [0 0 0 0] ------- [3:254 3:255 32 0] 
r 1.549006820 _3_ AGT  --- 1223941502 diffusion 0 [0 0 0 0] ------- [3:255 3:254 32 0] 
s 1.610955851 _1_ AGT  --- 528599282 diffusion 0 [0 0 0 0] ------- [1:254 1:255 32 0] 
r 1.611621265 _0_ AGT  --- 2045655605 diffusion 0 [0 0 0 0] ------- [0:255 0:254 32 0] 
r 1.611621399 _2_ AGT  --- 580900450 diffusion 0 [0 0 0 0] ------- [2:255 2:254 32 0] 
s 1.647007820 _3_ AGT  --- 1437693530 diffusion 0 [0 0 0 0] ------- [3:254 3:255 32 0] 
r 1.647008820 _3_ AGT  --- 1223941503 diffusion 0 [0 0 0 0] ------- [3:255 3:254 32 0] 
s 1.647009820 _3_ AGT  --- 1437693531 diffusion 0 [0 0 0 0] ------- [3:254 3:255 32 0] 
r 1.651664494 _2_ AGT  --- 580900451 diffusion 0 [0 0 0 0] ------- [2:255 2:254 32 0] 
s 1.651665494 _2_ AGT  --- 1566500013 diffusion 0 [0 0 0 0] ------- [2:254 2:255 32 0] 
r 1.651666494 _2_ AGT  --- 580900452 diffusion 0 [0 0 0 0] ------- [2:255 2:254 32 0] 
s 1.741841169 _0_ AGT  --- 1190071895 diffusion 0 [0 0 0 0] ------- [0:254 0:255 32 0] 
r 1.742686583 _1_ AGT  --- 1225933903 diffusion 0 [0 0 0 0] ------- [1:255 1:254 32 0] 
s 1.764667494 _2_ AGT  --- 1566500014 diffusion 0 [0 0 0 0] ------- [2:254 2:255 32 0] 
r 1.764668494 _2_ AGT  --- 580900453 diffusion 0 [0 0 0 0] ------- [2:255 2:254 32 0] 
s 1.764669494 _2_ AGT  --- 1566500015 diffusion 0 [0 0 0 0] ------- [2:254 2:255 32 0] 
r 1.768985327 _1_ AGT  --- 1225933904 diffusion 0 [0 0 0 0] ------- [1:255 1:254 32 0] 
s 1.768986327 _1_ AGT  --- 528599283 diffusion 0 [0 0 0 0] ------- [1:254 1:255 32 0] 
r 1.768987327 _1_ AGT  --- 1225933905 diffusion 0 [0 0 0 0] ------- [1:255 1:254 32 0] 
s 1.876988327 _1_ AGT  --- 528599284 diffusion 0 [0 0 0 0] ------- [1:254 1:255 32 0] 
r 1.876989327 _1_ AGT  --- 1225933906 diffusion 0 [0 0 0 0] ------- [1:255 1:254 32 0] 
s 1.876990327 _1_ AGT  --- 528599285 diffusion 0 [0 0 0 0] ------- [1:254 1:255 32 0] 
r 1.880965221 _0_ AGT  --- 2045655606 diffusion 0 [0 0 0 0] ------- [0:255 0:254 32 0] 
s 1.880966221 _0_ AGT  --- 1190071896 diffusion 0 [0 0 0 0] ------- [0:254 0:255 32 0] 
r 1.880967221 _0_ AGT  --- 2045655607 diffusion 0 [0 0 0 0] ------- [0:255 0:254 32 0] 
s 1.880968221 _0_ AGT  --- 1190071897 diffusion 0 [0 0 0 0] ------- [0:254 0:255 32 0] 
r 1.880969221 _0_ AGT  --- 2045655608 diffusion 0 [0 0 0 0] ------- [0:255 0:254 32 0] 
s 1.880970221 _0_ AGT  --- 1190071898 diffusion 0 [0 0 0 0] ------- [0:254 0:255 32 0] 
r 1.880971221 _0_ AGT  --- 0 diffusion 0 [0 0 0 0] ------- [0:255 0:254 32 0] 
s 1.900007000 _4_ AGT  --- 300615862 diffusion 0 [0 0 0 0] ------- [4:254 4:255 32 0] 
r 1.900612831 _3_ AGT  --- 1223941504 diffusion 0 [0 0 0 0] ------- [3:255 3:254 32 0] 
s 1.994968221 _0_ AGT  --- 1190071899 diffusion 0 [0 0 0 0] ------- [0:254 0:255 32 0] 
r 1.994969221 _0_ AGT  --- 2045655609 diffusion 0 [0 0 0 0] ------- [0:255 0:254 32 0] 
s 2.058009820 _3_ AGT  --- 1437693532 diffusion 0 [0 0 0 0] ------- [3:254 3:255 32 0] 
r 2.058715202 _2_ AGT  --- 580900454 diffusion 0 [0 0 0 0] ------- [2:255 2:254 32 0] 
r 2.058715651 _4_ AGT  --- 611591126 diffusion 0 [0 0 0 0] ------- [4:255 4:254 32 0] 
s 2.152669494 _2_ AGT  --- 1566500016 diffusion 0 [0 0 0 0] ------- [2:254 2:255 32 0] 
r 2.153614876 _3_ AGT  --- 1223941505 diffusion 0 [0 0 0 0] ------- [3:255 3:254 32 0] 
r 2.153615042 _1_ AGT  --- 1225933907 diffusion 0 [0 0 0 0] ------- [1:255 1:254 32 0] 
s 2.313990327 _1_ AGT  --- 528599286 diffusion 0 [0 0 0 0] ------- [1:254 1:255 32 0] 
r 2.314615740 _0_ AGT  --- 2045655610 diffusion 0 [0 0 0 0] ------- [0:255 0:254 32 0] 
r 2.314615875 _2_ AGT  --- 580900455 diffusion 0 [0 0 0 0] ------- [2:255 2:254 32 0] 
s 5.123001000 _0_ AGT  --- 1190071900 diffusion 0 [0 0 0 0] ------- [0:254 0:255 32 0] 
r 5.123002000 _0_ AGT  --- 2045655611 diffusion 0 [0 0 0 0] ------- [0:255 0:254 32 0] 
s 5.123003000 _0_ AGT  --- 1190071901 diffusion 0 [0 0 0 0] ------- [0:254 0:255 32 0] 
r 5.123004000 _0_ AGT  --- 2045655612 diffusion 0 [0 0 0 0] ------- [0:255 0:254 32 0] 
s 5.123005000 _0_ AGT  --- 1190071902 diffusion 0 [0 0 0 0] ------- [0:254 0:255 32 0] 
r 5.123006000 _0_ AGT  --- 2045655613 diffusion 0 [0 0 0 0] ------- [0:255 0:254 32 0] 
s 5.123007000 _0_ AGT  --- 1190071903 diffusion 0 [0 0 0 0] ------- [0:254 0:255 32 0] 
r 5.124669240 _1_ AGT  --- 1225933908 diffusion 0 [0 0 0 0] ------- [1:255 1:254 32 0] 
s 5.124670240 _1_ AGT  --- 528599287 diffusion 0 [0 0 0 0] ------- [1:254 1:255 32 0] 
r 5.124671240 _1_ AGT  --- 1225933909 diffusion 0 [0 0 0 0] ------- [1:255 1:254 32 0] 
s 5.124672240 _1_ AGT  --- 528599288 diffusion 0 [0 0 0 0] ------- [1:254 1:255 32 0] 
r 5.124673240 _1_ AGT  --- 1225933910 diffusion 0 [0 0 0 0] ------- [1:255 1:254 32 0] 
s 5.124674240 _1_ AGT  --- 528599289 diffusion 0 [0 0 0 0] ------- [1:254 1:255 32 0] 
r 5.126434883 _2_ AGT  --- 580900456 diffusion 0 [0 0 0 0] ------- [2:255 2:254 32 0] 
s 5.126435883 _2_ AGT  --- 1566500017 diffusion 0 [0 0 0 0] ------- [2:254 2:255 32 0] 
r 5.126436883 _2_ AGT  --- 580900457 diffusion 0 [0 0 0 0] ------- [2:255 2:254 32 0] 
s 5.126437883 _2_ AGT  --- 1566500018 diffusion 0 [0 0 0 0] ------- [2:254 2:255 32 0] 
r 5.126438883 _2_ AGT  --- 580900458 diffusion 0 [0 0 0 0] ------- [2:255 2:254 32 0] 
s 5.126439883 _2_ AGT  --- 1566500019 diffusion 0 [0 0 0 0] ------- [2:254 2:255 32 0] 
r 5.128100029 _3_ AGT  --- 1223941506 diffusion 0 [0 0 0 0] ------- [3:255 3:254 32 0] 
s 5.128101029 _3_ AGT  --- 1437693533 diffusion 0 [0 0 0 0] ------- [3:254 3:255 32 0] 
r 5.128102029 _3_ AGT  --- 1223941507 diffusion 0 [0 0 0 0] ------- [3:255 3:254 32 0] 
s 5.128103029 _3_ AGT  --- 1437693534 diffusion 0 [0 0 0 0] ------- [3:254 3:255 32 0] 
r 5.128104029 _3_ AGT  --- 1223941508 diffusion 0 [0 0 0 0] ------- [3:255 3:254 32 0] 
s 5.128105029 _3_ AGT  --- 1437693535 diffusion 0 [0 0 0 0] ------- [3:254 3:255 32 0] 
r 5.130026523 _4_ AGT  --- 611591127 diffusion 0 [0 0 0 0] ------- [4:255 4:254 32 0] 
s 5.130027523 _4_ AGT  --- 300615863 diffusion 0 [0 0 0 0] ------- [4:254 4:255 32 0] 
r 5.130028523 _4_ AGT  --- 611591128 diffusion 0 [0 0 0 0] ------- [4:255 4:254 32 0] 
s 5.130029523 _4_ AGT  --- 300615864 diffusion 0 [0 0 0 0] ------- [4:254 4:255 32 0] 
r 5.130030523 _4_ AGT  --- 611591129 diffusion 0 [0 0 0 0] ------- [4:255 4:254 32 0] 
s 5.130031523 _4_ AGT  --- 300615865 diffusion 0 [0 0 0 0] ------- [4:254 4:255 32 0] 
r 5.130032523 _4_ AGT  --- 1190071900 diffusion 0 [0 0 0 0] ------- [4:255 4:254 32 0] 
s 5.635029523 _4_ AGT  --- 300615866 diffusion 0 [0 0 0 0] ------- [4:254 4:255 32 0] 
r 5.635030523 _4_ AGT  --- 611591130 diffusion 0 [0 0 0 0] ------- [4:255 4:254 32 0] 
s 5.635031523 _4_ AGT  --- 300615867 diffusion 0 [0 0 0 0] ------- [4:254 4:255 32 0] 
r 5.636775018 _3_ AGT  --- 1223941509 diffusion 0 [0 0 0 0] ------- [3:255 3:254 32 0] 
s 5.636776018 _3_ AGT  --- 1437693536 diffusion 0 [0 0 0 0] ------- [3:254 3:255 32 0] 
r 5.636777018 _3_ AGT  --- 1223941510 diffusion 0 [0 0 0 0] ------- [3:255 3:254 32 0] 
s 5.636778018 _3_ AGT  --- 1437693537 diffusion 0 [0 0 0 0] ------- [3:254 3:255 32 0] 
r 5.636779018 _3_ AGT  --- 1223941511 diffusion 0 [0 0 0 0] ------- [3:255 3:254 32 0] 
s 5.636780018 _3_ AGT  --- 1437693538 diffusion 0 [0 0 0 0] ------- [3:254 3:255 32 0] 
r 5.638280164 _2_ AGT  --- 580900459 diffusion 0 [0 0 0 0] ------- [2:255 2:254 32 0] 
s 5.638281164 _2_ AGT  --- 1566500020 diffusion 0 [0 0 0 0] ------- [2:254 2:255 32 0] 
r 5.638282164 _2_ AGT  --- 580900460 diffusion 0 [0 0 0 0] ------- [2:255 2:254 32 0] 
s 5.638283164 _2_ AGT  --- 1566500021 diffusion 0 [0 0 0 0] ------- [2:254 2:255 32 0] 
r 5.638284164 _2_ AGT  --- 580900461 diffusion 0 [0 0 0 0] ------- [2:255 2:254 32 0] 
s 5.638285164 _2_ AGT  --- 1566500022 diffusion 0 [0 0 0 0] ------- [2:254 2:255 32 0] 
r 5.640005806 _1_ AGT  --- 1225933911 diffusion 0 [0 0 0 0] ------- [1:255 1:254 32 0] 
s 5.640006806 _1_ AGT  --- 528599290 diffusion 0 [0 0 0 0] ------- [1:254 1:255 32 0] 
r 5.640007806 _1_ AGT  --- 1225933912 diffusion 0 [0 0 0 0] ------- [1:255 1:254 32 0] 
s 5.640008806 _1_ AGT  --- 528599291 diffusion 0 [0 0 0 0] ------- [1:254 1:255 32 0] 
r 5.640009806 _1_ AGT  --- 1225933913 diffusion 0 [0 0 0 0] ------- [1:255 1:254 32 0] 
s 5.640010806 _1_ AGT  --- 528599292 diffusion 0 [0 0 0 0] ------- [1:254 1:255 32 0] 
r 5.641751047 _0_ AGT  --- 2045655614 diffusion 0 [0 0 0 0] ------- [0:255 0:254 32 0] 
s 5.641752047 _0_ AGT  --- 1190071904 diffusion 0 [0 0 0 0] ------- [0:254 0:255 32 0] 
r 5.641753047 _0_ AGT  --- 2045655615 diffusion 0 [0 0 0 0] ------- [0:255 0:254 32 0] 
s 10.123001000 _0_ AGT  --- 1190071905 diffusion 0 [0 0 0 0] ------- [0:254 0:255 32 0] 
r 10.123002000 _0_ AGT  --- 2045655616 diffusion 0 [0 0 0 0] ------- [0:255 0:254 32 0] 
s 10.123003000 _0_ AGT  --- 1190071906 diffusion 0 [0 0 0 0] ------- [0:254 0:255 32 0] 
r 10.123004000 _0_ AGT  --- 2045655617 diffusion 0 [0 0 0 0] ------- [0:255 0:254 32 0] 
s 10.123005000 _0_ AGT  --- 1190071907 diffusion 0 [0 0 0 0] ------- [0:254 0:255 32 0] 
r 10.123006000 _0_ AGT  --- 2045655618 diffusion 0 [0 0 0 0] ------- [0:255 0:254 32 0] 
s 10.123007000 _0_ AGT  --- 1190071908 diffusion 0 [0 0 0 0] ------- [0:254 0:255 32 0] 
r 10.124529240 _1_ AGT  --- 1225933914 diffusion 0 [0 0 0 0] ------- [1:255 1:254 32 0] 
s 10.124530240 _1_ AGT  --- 528599293 diffusion 0 [0 0 0 0] ------- [1:254 1:255 32 0] 
r 10.124531240 _1_ AGT  --- 1225933915 diffusion 0 [0 0 0 0] ------- [1:255 1:254 32 0] 
s 10.124532240 _1_ AGT  --- 528599294 diffusion 0 [0 0 0 0] ------- [1:254 1:255 32 0] 
r 10.124533240 _1_ AGT  --- 1225933916 diffusion 0 [0 0 0 0] ------- [1:255 1:254 32 0] 
s 10.124534240 _1_ AGT  --- 528599295 diffusion 0 [0 0 0 0] ------- [1:254 1:255 32 0] 
r 10.126134883 _2_ AGT  --- 580900462 diffusion 0 [0 0 0 0] ------- [2:255 2:254 32 0] 
s 10.126135883 _2_ AGT  --- 1566500023 diffusion 0 [0 0 0 0] ------- [2:254 2:255 32 0] 
r 10.126136883 _2_ AGT  --- 580900463 diffusion 0 [0 0 0 0] ------- [2:255 2:254 32 0] 
s 10.126137883 _2_ AGT  --- 1566500024 diffusion 0 [0 0 0 0] ------- [2:254 2:255 32 0] 
r 10.126138883 _2_ AGT  --- 580900464 diffusion 0 [0 0 0 0] ------- [2:255 2:254 32 0] 
s 10.126139883 _2_ AGT  --- 1566500025 diffusion 0 [0 0 0 0] ------- [2:254 2:255 32 0] 
r 10.127780029 _3_ AGT  --- 1223941512 diffusion 0 [0 0 0 0] ------- [3:255 3:254 32 0] 
s 10.127781029 _3_ AGT  --- 1437693539 diffusion 0 [0 0 0 0] ------- [3:254 3:255 32 0] 
r 10.127782029 _3_ AGT  --- 1223941513 diffusion 0 [0 0 0 0] ------- [3:255 3:254 32 0] 
s 10.127783029 _3_ AGT  --- 1437693540 diffusion 0 [0 0 0 0] ------- [3:254 3:255 32 0] 
r 10.127784029 _3_ AGT  --- 1223941514 diffusion 0 [0 0 0 0] ------- [3:255 3:254 32 0] 
s 10.127785029 _3_ AGT  --- 1437693541 diffusion 0 [0 0 0 0] ------- [3:254 3:255 32 0] 
r 10.129346523 _4_ AGT  --- 611591131 diffusion 0 [0 0 0 0] ------- [4:255 4:254 32 0] 
s 10.129347523 _4_ AGT  --- 300615868 diffusion 0 [0 0 0 0] ------- [4:254 4:255 32 0] 
r 10.129348523 _4_ AGT  --- 611591132 diffusion 0 [0 0 0 0] ------- [4:255 4:254 32 0] 
s 10.129349523 _4_ AGT  --- 300615869 diffusion 0 [0 0 0 0] ------- [4:254 4:255 32 0] 
r 10.129350523 _4_ AGT  --- 611591133 diffusion 0 [0 0 0 0] ------- [4:255 4:254 32 0] 
s 10.129351523 _4_ AGT  --- 300615870 diffusion 0 [0 0 0 0] ------- [4:254 4:255 32 0] 
r 10.129352523 _4_ AGT  --- 1190071905 diffusion 0 [0 0 0 0] ------- [4:255 4:254 32 0] 
s 15.123001000 _0_ AGT  --- 1190071909 diffusion 0 [0 0 0 0] ------- [0:254 0:255 32 0] 
r 15.123002000 _0_ AGT  --- 2045655619 diffusion 0 [0 0 0 0] ------- [0:255 0:254 32 0] 
s 15.123003000 _0_ AGT  --- 1190071910 diffusion 0 [0 0 0 0] ------- [0:254 0:255 32 0] 
r 15.123004000 _0_ AGT  --- 2045655620 diffusion 0 [0 0 0 0] ------- [0:255 0:254 32 0] 
s 15.123005000 _0_ AGT  --- 1190071911 diffusion 0 [0 0 0 0] ------- [0:254 0:255 32 0] 
r 15.123006000 _0_ AGT  --- 2045655621 diffusion 0 [0 0 0 0] ------- [0:255 0:254 32 0] 
s 15.123007000 _0_ AGT  --- 1190071912 diffusion 0 [0 0 0 0] ------- [0:254 0:255 32 0] 
r 15.124369240 _1_ AGT  --- 1225933917 diffusion 0 [0 0 0 0] ------- [1:255 1:254 32 0] 
s 15.124370240 _1_ AGT  --- 528599296 diffusion 0 [0 0 0 0] ------- [1:254 1:255 32 0] 
r 15.124371240 _1_ AGT  --- 1225933918 diffusion 0 [0 0 0 0] ------- [1:255 1:254 32 0] 
s 15.124372240 _1_ AGT  --- 528599297 diffusion 0 [0 0 0 0] ------- [1:254 1:255 32 0] 
r 15.124373240 _1_ AGT  --- 1225933919 diffusion 0 [0 0 0 0] ------- [1:255 1:254 32 0] 
s 15.124374240 _1_ AGT  --- 528599298 diffusion 0 [0 0 0 0] ------- [1:254 1:255 32 0] 
r 15.126414883 _2_ AGT  --- 580900465 diffusion 0 [0 0 0 0] ------- [2:255 2:254 32 0] 
s 15.126415883 _2_ AGT  --- 1566500026 diffusion 0 [0 0 0 0] ------- [2:254 2:255 32 0] 
r 15.126416883 _2_ AGT  --- 580900466 diffusion 0 [0 0 0 0] ------- [2:255 2:254 32 0] 
s 15.126417883 _2_ AGT  --- 1566500027 diffusion 0 [0 0 0 0] ------- [2:254 2:255 32 0] 
r 15.126418883 _2_ AGT  --- 580900467 diffusion 0 [0 0 0 0] ------- [2:255 2:254 32 0] 
s 15.126419883 _2_ AGT  --- 1566500028 diffusion 0 [0 0 0 0] ------- [2:254 2:255 32 0] 
r 15.128520029 _3_ AGT  --- 1223941515 diffusion 0 [0 0 0 0] ------- [3:255 3:254 32 0] 
s 15.128521029 _3_ AGT  --- 1437693542 diffusion 0 [0 0 0 0] ------- [3:254 3:255 32 0] 
r 15.128522029 _3_ AGT  --- 1223941516 diffusion 0 [0 0 0 0] ------- [3:255 3:254 32 0] 
s 15.128523029 _3_ AGT  --- 1437693543 diffusion 0 [0 0 0 0] ------- [3:254 3:255 32 0] 
r 15.128524029 _3_ AGT  --- 1223941517 diffusion 0 [0 0 0 0] ------- [3:255 3:254 32 0] 
s 15.128525029 _3_ AGT  --- 1437693544 diffusion 0 [0 0 0 0] ------- [3:254 3:255 32 0] 
r 15.130546523 _4_ AGT  --- 611591134 diffusion 0 [0 0 0 0] ------- [4:255 4:254 32 0] 
s 15.130547523 _4_ AGT  --- 300615871 diffusion 0 [0 0 0 0] ------- [4:254 4:255 32 0] 
r 15.130548523 _4_ AGT  --- 611591135 diffusion 0 [0 0 0 0] ------- [4:255 4:254 32 0] 
s 15.130549523 _4_ AGT  --- 300615872 diffusion 0 [0 0 0 0] ------- [4:254 4:255 32 0] 
r 15.130550523 _4_ AGT  --- 611591136 diffusion 0 [0 0 0 0] ------- [4:255 4:254 32 0] 
s 15.130551523 _4_ AGT  --- 300615873 diffusion 0 [0 0 0 0] ------- [4:254 4:255 32 0] 
r 15.130552523 _4_ AGT  --- 1190071909 diffusion 0 [0 0 0 0] ------- [4:255 4:254 32 0] 
s 19.301001000 _0_ AGT  --- 1190071913 diffusion 0 [0 0 0 0] ------- [0:254 0:255 32 0] 
r 19.301002000 _0_ AGT  --- 2045655622 diffusion 0 [0 0 0 0] ------- [0:255 0:254 32 0] 
s 19.301003000 _0_ AGT  --- 1190071914 diffusion 0 [0 0 0 0] ------- [0:254 0:255 32 0] 
r 19.301004000 _0_ AGT  --- 2045655623 diffusion 0 [0 0 0 0] ------- [0:255 0:254 32 0] 
s 20.000001000 _0_ AGT  --- 1190071915 diffusion 0 [0 0 0 0] ------- [0:254 0:255 32 0] 
s 20.000001000 _1_ AGT  --- 528599299 diffusion 0 [0 0 0 0] ------- [1:254 1:255 32 0] 
s 20.000001000 _2_ AGT  --- 1566500029 diffusion 0 [0 0 0 0] ------- [2:254 2:255 32 0] 
s 20.000001000 _3_ AGT  --- 1437693545 diffusion 0 [0 0 0 0] ------- [3:254 3:255 32 0] 
s 20.000001000 _4_ AGT  --- 300615874 diffusion 0 [0 0 0 0] ------- [4:254 4:255 32 0] 
s 20.000001000 _0_ AGT  --- 1190071916 diffusion 0 [0 0 0 0] ------- [0:254 0:255 32 0] 
s 20.000001000 _0_ AGT  --- 1190071917 diffusion 0 [0 0 0 0] ------- [0:254 0:255 32 0] 
s 20.000001000 _1_ AGT  --- 528599300 diffusion 0 [0 0 0 0] ------- [1:254 1:255 32 0] 
s 20.000001000 _1_ AGT  --- 528599301 diffusion 0 [0 0 0 0] ------- [1:254 1:255 32 0] 
s 20.000001000 _2_ AGT  --- 1566500030 diffusion 0 [0 0 0 0] ------- [2:254 2:255 32 0] 
s 20.000001000 _2_ AGT  --- 1566500031 diffusion 0 [0 0 0 0] ------- [2:254 2:255 32 0] 
s 20.000001000 _3_ AGT  --- 1437693546 diffusion 0 [0 0 0 0] ------- [3:254 3:255 32 0] 
s 20.000001000 _3_ AGT  --- 1437693547 diffusion 0 [0 0 0 0] ------- [3:254 3:255 32 0] 
s 20.000001000 _4_ AGT  --- 300615875 diffusion 0 [0 0 0 0] ------- [4:254 4:255 32 0] 
s 20.000001000 _4_ AGT  --- 300615876 diffusion 0 [0 0 0 0] ------- [4:254 4:255 32 0] 
s 20.123001000 _0_ AGT  --- 1190071918 diffusion 0 [0 0 0 0] ------- [0:254 0:255 32 0] 
r 20.123002000 _0_ AGT  --- 2045655624 diffusion 0 [0 0 0 0] ------- [0:255 0:254 32 0] 
s 20.123003000 _0_ AGT  --- 1190071919 diffusion 0 [0 0 0 0] ------- [0:254 0:255 32 0] 
r 20.123004000 _0_ AGT  --- 2045655625 diffusion 0 [0 0 0 0] ------- [0:255 0:254 32 0] 
s 20.123005000 _0_ AGT  --- 1190071920 diffusion 0 [0 0 0 0] ------- [0:254 0:255 32 0] 
r 20.123006000 _0_ AGT  --- 2045655626 diffusion 0 [0 0 0 0] ------- [0:255 0:254 32 0] 
s 20.123007000 _0_ AGT  --- 1190071921 diffusion 0 [0 0 0 0] ------- [0:254 0:255 32 0] 
r 20.124429240 _1_ AGT  --- 1225933920 diffusion 0 [0 0 0 0] ------- [1:255 1:254 32 0] 
s 20.124430240 _1_ AGT  --- 528599302 diffusion 0 [0 0 0 0] ------- [1:254 1:255 32 0] 
r 20.124431240 _1_ AGT  --- 1225933921 diffusion 0 [0 0 0 0] ------- [1:255 1:254 32 0] 
s 20.124432240 _1_ AGT  --- 528599303 diffusion 0 [0 0 0 0] ------- [1:254 1:255 32 0] 
r 20.124433240 _1_ AGT  --- 1225933922 diffusion 0 [0 0 0 0] ------- [1:255 1:254 32 0] 
s 20.124434240 _1_ AGT  --- 528599304 diffusion 0 [0 0 0 0] ------- [1:254 1:255 32 0] 
r 20.126274883 _2_ AGT  --- 580900468 diffusion 0 [0 0 0 0] ------- [2:255 2:254 32 0] 
s 20.126275883 _2_ AGT  --- 1566500032 diffusion 0 [0 0 0 0] ------- [2:254 2:255 32 0] 
r 20.126276883 _2_ AGT  --- 580900469 diffusion 0 [0 0 0 0] ------- [2:255 2:254 32 0] 
s 20.126277883 _2_ AGT  --- 1566500033 diffusion 0 [0 0 0 0] ------- [2:254 2:255 32 0] 
r 20.126278883 _2_ AGT  --- 580900470 diffusion 0 [0 0 0 0] ------- [2:255 2:254 32 0] 
s 20.126279883 _2_ AGT  --- 1566500034 diffusion 0 [0 0 0 0] ------- [2:254 2:255 32 0] 
r 20.128120029 _3_ AGT  --- 1223941518 diffusion 0 [0 0 0 0] ------- [3:255 3:254 32 0] 
s 20.128121029 _3_ AGT  --- 1437693548 diffusion 0 [0 0 0 0] ------- [3:254 3:255 32 0] 
r 20.128122029 _3_ AGT  --- 1223941519 diffusion 0 [0 0 0 0] ------- [3:255 3:254 32 0] 
s 20.128123029 _3_ AGT  --- 1437693549 diffusion 0 [0 0 0 0] ------- [3:254 3:255 32 0] 
r 20.128124029 _3_ AGT  --- 1223941520 diffusion 0 [0 0 0 0] ------- [3:255 3:254 32 0] 
s 20.128125029 _3_ AGT  --- 1437693550 diffusion 0 [0 0 0 0] ------- [3:254 3:255 32 0] 
r 20.130146523 _4_ AGT  --- 611591137 diffusion 0 [0 0 0 0] ------- [4:255 4:254 32 0] 
s 20.130147523 _4_ AGT  --- 300615877 diffusion 0 [0 0 0 0] ------- [4:254 4:255 32 0] 
r 20.130148523 _4_ AGT  --- 611591138 diffusion 0 [0 0 0 0] ------- [4:255 4:254 32 0] 
s 20.130149523 _4_ AGT  --- 300615878 diffusion 0 [0 0 0 0] ------- [4:254 4:255 32 0] 
r 20.130150523 _4_ AGT  --- 611591139 diffusion 0 [0 0 0 0] ------- [4:255 4:254 32 0] 
s 20.130151523 _4_ AGT  --- 300615879 diffusion 0 [0 0 0 0] ------- [4:254 4:255 32 0] 
r 20.130152523 _4_ AGT  --- 1190071918 diffusion 0 [0 0 0 0] ------- [4:255 4:254 32 0] 
s 25.123001000 _0_ AGT  --- 1190071922 diffusion 0 [0 0 0 0] ------- [0:254 0:255 32 0] 
r 25.123002000 _0_ AGT  --- 2045655627 diffusion 0 [0 0 0 0] ------- [0:255 0:254 32 0] 
s 25.123003000 _0_ AGT  --- 1190071923 diffusion 0 [0 0 0 0] ------- [0:254 0:255 32 0] 
r 25.123004000 _0_ AGT  --- 2045655628 diffusion 0 [0 0 0 0] ------- [0:255 0:254 32 0] 
s 25.123005000 _0_ AGT  --- 1190071924 diffusion 0 [0 0 0 0] ------- [0:254 0:255 32 0] 
r 25.123006000 _0_ AGT  --- 2045655629 diffusion 0 [0 0 0 0] ------- [0:255 0:254 32 0] 
s 25.123007000 _0_ AGT  --- 1190071925 diffusion 0 [0 0 0 0] ------- [0:254 0:255 32 0] 
r 25.124589240 _1_ AGT  --- 1225933923 diffusion 0 [0 0 0 0] ------- [1:255 1:254 32 0] 
s 25.124590240 _1_ AGT  --- 528599305 diffusion 0 [0 0 0 0] ------- [1:254 1:255 32 0] 
r 25.124591240 _1_ AGT  --- 1225933924 diffusion 0 [0 0 0 0] ------- [1:255 1:254 32 0] 
s 25.124592240 _1_ AGT  --- 528599306 diffusion 0 [0 0 0 0] ------- [1:254 1:255 32 0] 
r 25.124593240 _1_ AGT  --- 1225933925 diffusion 0 [0 0 0 0] ------- [1:255 1:254 32 0] 
s 25.124594240 _1_ AGT  --- 528599307 diffusion 0 [0 0 0 0] ------- [1:254 1:255 32 0] 
r 25.126554883 _2_ AGT  --- 580900471 diffusion 0 [0 0 0 0] ------- [2:255 2:254 32 0] 
s 25.126555883 _2_ AGT  --- 1566500035 diffusion 0 [0 0 0 0] ------- [2:254 2:255 32 0] 
r 25.126556883 _2_ AGT  --- 580900472 diffusion 0 [0 0 0 0] ------- [2:255 2:254 32 0] 
s 25.126557883 _2_ AGT  --- 1566500036 diffusion 0 [0 0 0 0] ------- [2:254 2:255 32 0] 
r 25.126558883 _2_ AGT  --- 580900473 diffusion 0 [0 0 0 0] ------- [2:255 2:254 32 0] 
s 25.126559883 _2_ AGT  --- 1566500037 diffusion 0 [0 0 0 0] ------- [2:254 2:255 32 0] 
r 25.128200029 _3_ AGT  --- 1223941521 diffusion 0 [0 0 0 0] ------- [3:255 3:254 32 0] 
s 25.128201029 _3_ AGT  --- 1437693551 diffusion 0 [0 0 0 0] ------- [3:254 3:255 32 0] 
r 25.128202029 _3_ AGT  --- 1223941522 diffusion 0 [0 0 0 0] ------- [3:255 3:254 32 0] 
s 25.128203029 _3_ AGT  --- 1437693552 diffusion 0 [0 0 0 0] ------- [3:254 3:255 32 0] 
r 25.128204029 _3_ AGT  --- 1223941523 diffusion 0 [0 0 0 0] ------- [3:255 3:254 32 0] 
s 25.128205029 _3_ AGT  --- 1437693553 diffusion 0 [0 0 0 0] ------- [3:254 3:255 32 0] 
r 25.129866523 _4_ AGT  --- 611591140 diffusion 0 [0 0 0 0] ------- [4:255 4:254 32 0] 
s 25.129867523 _4_ AGT  --- 300615880 diffusion 0 [0 0 0 0] ------- [4:254 4:255 32 0] 
r 25.129868523 _4_ AGT  --- 611591141 diffusion 0 [0 0 0 0] ------- [4:255 4:254 32 0] 
s 25.129869523 _4_ AGT  --- 300615881 diffusion 0 [0 0 0 0] ------- [4:254 4:255 32 0] 
r 25.129870523 _4_ AGT  --- 611591142 diffusion 0 [0 0 0 0] ------- [4:255 4:254 32 0] 
s 25.129871523 _4_ AGT  --- 300615882 diffusion 0 [0 0 0 0] ------- [4:254 4:255 32 0] 
r 25.129872523 _4_ AGT  --- 1190071922 diffusion 0 [0 0 0 0] ------- [4:255 4:254 32 0] 
s 25.492001000 _4_ AGT  --- 300615883 diffusion 0 [0 0 0 0] ------- [4:254 4:255 32 0] 
r 25.492002000 _4_ AGT  --- 611591143 diffusion 0 [0 0 0 0] ------- [4:255 4:254 32 0] 
s 25.492003000 _4_ AGT  --- 300615884 diffusion 0 [0 0 0 0] ------- [4:254 4:255 32 0] 
r 25.492004000 _4_ AGT  --- 611591144 diffusion 0 [0 0 0 0] ------- [4:255 4:254 32 0] 
s 25.585005000 _4_ AGT  --- 300615885 diffusion 0 [0 0 0 0] ------- [4:254 4:255 32 0] 
r 25.585006000 _4_ AGT  --- 611591145 diffusion 0 [0 0 0 0] ------- [4:255 4:254 32 0] 
s 25.585007000 _4_ AGT  --- 300615886 diffusion 0 [0 0 0 0] ------- [4:254 4:255 32 0] 
r 25.586270494 _3_ AGT  --- 1223941524 diffusion 0 [0 0 0 0] ------- [3:255 3:254 32 0] 
s 25.586271494 _3_ AGT  --- 1437693554 diffusion 0 [0 0 0 0] ------- [3:254 3:255 32 0] 
r 25.586272494 _3_ AGT  --- 1223941525 diffusion 0 [0 0 0 0] ------- [3:255 3:254 32 0] 
s 25.694273494 _3_ AGT  --- 1437693555 diffusion 0 [0 0 0 0] ------- [3:254 3:255 32 0] 
r 25.694274494 _3_ AGT  --- 1223941526 diffusion 0 [0 0 0 0] ------- [3:255 3:254 32 0] 
s 25.694275494 _3_ AGT  --- 1437693556 diffusion 0 [0 0 0 0] ------- [3:254 3:255 32 0] 
r 25.695637640 _2_ AGT  --- 580900474 diffusion 0 [0 0 0 0] ------- [2:255 2:254 32 0] 
s 25.695638640 _2_ AGT  --- 1566500038 diffusion 0 [0 0 0 0] ------- [2:254 2:255 32 0] 
r 25.695639640 _2_ AGT  --- 580900475 diffusion 0 [0 0 0 0] ------- [2:255 2:254 32 0] 
s 25.808640640 _2_ AGT  --- 1566500039 diffusion 0 [0 0 0 0] ------- [2:254 2:255 32 0] 
r 25.808641640 _2_ AGT  --- 580900476 diffusion 0 [0 0 0 0] ------- [2:255 2:254 32 0] 
s 25.808642640 _2_ AGT  --- 1566500040 diffusion 0 [0 0 0 0] ------- [2:254 2:255 32 0] 
r 25.810105283 _1_ AGT  --- 1225933926 diffusion 0 [0 0 0 0] ------- [1:255 1:254 32 0] 
s 25.810106283 _1_ AGT  --- 528599308 diffusion 0 [0 0 0 0] ------- [1:254 1:255 32 0] 
r 25.810107283 _1_ AGT  --- 1225933927 diffusion 0 [0 0 0 0] ------- [1:255 1:254 32 0] 
s 25.918108283 _1_ AGT  --- 528599309 diffusion 0 [0 0 0 0] ------- [1:254 1:255 32 0] 
r 25.918109283 _1_ AGT  --- 1225933928 diffusion 0 [0 0 0 0] ------- [1:255 1:254 32 0] 
s 25.918110283 _1_ AGT  --- 528599310 diffusion 0 [0 0 0 0] ------- [1:254 1:255 32 0] 
r 25.919832523 _0_ AGT  --- 2045655630 diffusion 0 [0 0 0 0] ------- [0:255 0:254 32 0] 
s 25.919833523 _0_ AGT  --- 1190071926 diffusion 0 [0 0 0 0] ------- [0:254 0:255 32 0] 
r 25.919834523 _0_ AGT  --- 2045655631 diffusion 0 [0 0 0 0] ------- [0:255 0:254 32 0] 
s 26.010835523 _0_ AGT  --- 1190071927 diffusion 0 [0 0 0 0] ------- [0:254 0:255 32 0] 
r 26.010836523 _0_ AGT  --- 2045655632 diffusion 0 [0 0 0 0] ------- [0:255 0:254 32 0] 
s 30.123001000 _0_ AGT  --- 1190071928 diffusion 0 [0 0 0 0] ------- [0:254 0:255 32 0] 
r 30.123002000 _0_ AGT  --- 2045655633 diffusion 0 [0 0 0 0] ------- [0:255 0:254 32 0] 
s 30.123003000 _0_ AGT  --- 1190071929 diffusion 0 [0 0 0 0] ------- [0:254 0:255 32 0] 
r 30.123004000 _0_ AGT  --- 2045655634 diffusion 0 [0 0 0 0] ------- [0:255 0:254 32 0] 
s 30.123005000 _0_ AGT  --- 1190071930 diffusion 0 [0 0 0 0] ------- [0:254 0:255 32 0] 
r 30.123006000 _0_ AGT  --- 2045655635 diffusion 0 [0 0 0 0] ------- [0:255 0:254 32 0] 
s 30.123007000 _0_ AGT  --- 1190071931 diffusion 0 [0 0 0 0] ------- [0:254 0:255 32 0] 
r 30.124249240 _1_ AGT  --- 1225933929 diffusion 0 [0 0 0 0] ------- [1:255 1:254 32 0] 