s 0.000001000 _0_ AGT  --- 1190071889 diffusion 0 [0 0 0 0] ------- [0:254 0:255 32 0] 
s 0.000001000 _1_ AGT  --- 528599277 diffusion 0 [0 0 0 0] ------- [1:254 1:255 32 0] 
s 0.000001000 _2_ AGT  --- 1566500007 diffusion 0 [0 0 0 0] ------- [2:254 2:255 32 0] 
s 0.000001000 _3_ AGT  --- 1437693523 diffusion 0 [0 0 0 0] ------- [3:254 3:255 32 0] 
s 0.000001000 _4_ AGT  --- 300615853 diffusion 0 [0 0 0 0] ------- [4:254 4:255 32 0] 
s 0.000001000 _5_ AGT  --- 905258839 diffusion 0 [0 0 0 0] ------- [5:254 5:255 32 0] 
s 0.000001000 _6_ AGT  --- 1811076627 diffusion 0 [0 0 0 0] ------- [6:254 6:255 32 0] 
s 0.000001000 _7_ AGT  --- 1732828135 diffusion 0 [0 0 0 0] ------- [7:254 7:255 32 0] 
s 0.000001000 _8_ AGT  --- 379185994 diffusion 0 [0 0 0 0] ------- [8:254 8:255 32 0] 
s 0.000001000 _9_ AGT  --- 1003364341 diffusion 0 [0 0 0 0] ------- [9:254 9:255 32 0] 
s 0.123001000 _2_ AGT  --- 1566500008 diffusion 0 [0 0 0 0] ------- [2:254 2:255 32 0] 
r 0.123002000 _2_ AGT  --- 580900445 diffusion 0 [0 0 0 0] ------- [2:255 2:254 32 0] 
s 0.170003000 _2_ AGT  --- 1566500009 diffusion 0 [0 0 0 0] ------- [2:254 2:255 32 0] 
r 0.170968328 _9_ AGT  --- 495722036 diffusion 0 [0 0 0 0] ------- [9:255 9:254 32 0] 
r 0.170968452 _3_ AGT  --- 1223941496 diffusion 0 [0 0 0 0] ------- [3:255 3:254 32 0] 
r 0.170968557 _7_ AGT  --- 394266824 diffusion 0 [0 0 0 0] ------- [7:255 7:254 32 0] 
r 0.170968590 _4_ AGT  --- 611591120 diffusion 0 [0 0 0 0] ------- [4:255 4:254 32 0] 
r 0.170968710 _1_ AGT  --- 1225933899 diffusion 0 [0 0 0 0] ------- [1:255 1:254 32 0] 
s 0.215969328 _9_ AGT  --- 1003364342 diffusion 0 [0 0 0 0] ------- [9:254 9:255 32 0] 
s 0.215969557 _7_ AGT  --- 1732828136 diffusion 0 [0 0 0 0] ------- [7:254 7:255 32 0] 
r 0.216654656 _2_ AGT  --- 580900446 diffusion 0 [0 0 0 0] ------- [2:255 2:254 32 0] 
r 0.216654670 _3_ AGT  --- 1223941497 diffusion 0 [0 0 0 0] ------- [3:255 3:254 32 0] 
r 0.216654754 _7_ AGT  --- 394266825 diffusion 0 [0 0 0 0] ------- [7:255 7:254 32 0] 
r 0.216654864 _4_ AGT  --- 611591121 diffusion 0 [0 0 0 0] ------- [4:255 4:254 32 0] 
r 0.218109180 _9_ AGT  --- 495722037 diffusion 0 [0 0 0 0] ------- [9:255 9:254 32 0] 
r 0.218109311 _2_ AGT  --- 580900447 diffusion 0 [0 0 0 0] ------- [2:255 2:254 32 0] 
r 0.218109522 _3_ AGT  --- 1223941498 diffusion 0 [0 0 0 0] ------- [3:255 3:254 32 0] 
s 0.221969452 _3_ AGT  --- 1437693524 diffusion 0 [0 0 0 0] ------- [3:254 3:255 32 0] 
r 0.223074647 _4_ AGT  --- 611591122 diffusion 0 [0 0 0 0] ------- [4:255 4:254 32 0] 
r 0.223074795 _9_ AGT  --- 495722038 diffusion 0 [0 0 0 0] ------- [9:255 9:254 32 0] 
r 0.223074905 _2_ AGT  --- 580900448 diffusion 0 [0 0 0 0] ------- [2:255 2:254 32 0] 
r 0.223075051 _1_ AGT  --- 1225933900 diffusion 0 [0 0 0 0] ------- [1:255 1:254 32 0] 
r 0.223075220 _7_ AGT  --- 394266826 diffusion 0 [0 0 0 0] ------- [7:255 7:254 32 0] 
r 0.223075269 _6_ AGT  --- 557533818 diffusion 0 [0 0 0 0] ------- [6:255 6:254 32 0] 
s 0.223969710 _1_ AGT  --- 528599278 diffusion 0 [0 0 0 0] ------- [1:254 1:255 32 0] 
r 0.225095187 _4_ AGT  --- 611591123 diffusion 0 [0 0 0 0] ------- [4:255 4:254 32 0] 
r 0.225095309 _3_ AGT  --- 1223941499 diffusion 0 [0 0 0 0] ------- [3:255 3:254 32 0] 
r 0.225095420 _2_ AGT  --- 580900449 diffusion 0 [0 0 0 0] ------- [2:255 2:254 32 0] 
s 0.229969590 _4_ AGT  --- 300615854 diffusion 0 [0 0 0 0] ------- [4:254 4:255 32 0] 
r 0.231094784 _3_ AGT  --- 1223941500 diffusion 0 [0 0 0 0] ------- [3:255 3:254 32 0] 
r 0.231095067 _1_ AGT  --- 1225933901 diffusion 0 [0 0 0 0] ------- [1:255 1:254 32 0] 
r 0.231095126 _9_ AGT  --- 495722039 diffusion 0 [0 0 0 0] ------- [9:255 9:254 32 0] 
r 0.231095180 _2_ AGT  --- 580900450 diffusion 0 [0 0 0 0] ------- [2:255 2:254 32 0] 
r 0.231095394 _6_ AGT  --- 557533819 diffusion 0 [0 0 0 0] ------- [6:255 6:254 32 0] 
s 0.246001000 _3_ AGT  --- 1437693525 diffusion 0 [0 0 0 0] ------- [3:254 3:255 32 0] 
r 0.246002000 _3_ AGT  --- 1223941501 diffusion 0 [0 0 0 0] ------- [3:255 3:254 32 0] 
s 0.263076269 _6_ AGT  --- 1811076628 diffusion 0 [0 0 0 0] ------- [6:254 6:255 32 0] 
r 0.263821416 _8_ AGT  --- 1180591529 diffusion 0 [0 0 0 0] ------- [8:255 8:254 32 0] 
r 0.263821709 _0_ AGT  --- 2045655601 diffusion 0 [0 0 0 0] ------- [0:255 0:254 32 0] 
r 0.263821913 _5_ AGT  --- 885480288 diffusion 0 [0 0 0 0] ------- [5:255 5:254 32 0] 
r 0.263822073 _4_ AGT  --- 611591124 diffusion 0 [0 0 0 0] ------- [4:255 4:254 32 0] 
r 0.263822085 _3_ AGT  --- 1223941502 diffusion 0 [0 0 0 0] ------- [3:255 3:254 32 0] 
s 0.306003000 _3_ AGT  --- 1437693526 diffusion 0 [0 0 0 0] ------- [3:254 3:255 32 0] 
r 0.306668194 _4_ AGT  --- 611591125 diffusion 0 [0 0 0 0] ------- [4:255 4:254 32 0] 
r 0.306668342 _9_ AGT  --- 495722040 diffusion 0 [0 0 0 0] ------- [9:255 9:254 32 0] 
r 0.306668452 _2_ AGT  --- 580900451 diffusion 0 [0 0 0 0] ------- [2:255 2:254 32 0] 
r 0.306668599 _1_ AGT  --- 1225933902 diffusion 0 [0 0 0 0] ------- [1:255 1:254 32 0] 
r 0.306668768 _7_ AGT  --- 394266827 diffusion 0 [0 0 0 0] ------- [7:255 7:254 32 0] 
r 0.306668816 _6_ AGT  --- 557533820 diffusion 0 [0 0 0 0] ------- [6:255 6:254 32 0] 
s 0.313822416 _8_ AGT  --- 379185995 diffusion 0 [0 0 0 0] ------- [8:254 8:255 32 0] 
s 0.313822709 _0_ AGT  --- 1190071890 diffusion 0 [0 0 0 0] ------- [0:254 0:255 32 0] 
r 0.314447564 _6_ AGT  --- 557533821 diffusion 0 [0 0 0 0] ------- [6:255 6:254 32 0] 
r 0.314447734 _0_ AGT  --- 2045655602 diffusion 0 [0 0 0 0] ------- [0:255 0:254 32 0] 
r 0.314448140 _5_ AGT  --- 885480289 diffusion 0 [0 0 0 0] ------- [5:255 5:254 32 0] 
r 0.315002052 _8_ AGT  --- 1180591530 diffusion 0 [0 0 0 0] ------- [8:255 8:254 32 0] 
r 0.315002175 _6_ AGT  --- 557533822 diffusion 0 [0 0 0 0] ------- [6:255 6:254 32 0] 
s 0.315822913 _5_ AGT  --- 905258840 diffusion 0 [0 0 0 0] ------- [5:254 5:255 32 0] 
r 0.316568558 _6_ AGT  --- 557533823 diffusion 0 [0 0 0 0] ------- [6:255 6:254 32 0] 
r 0.316568637 _8_ AGT  --- 1180591531 diffusion 0 [0 0 0 0] ------- [8:255 8:254 32 0] 
s 0.345669342 _9_ AGT  --- 1003364343 diffusion 0 [0 0 0 0] ------- [9:254 9:255 32 0] 
r 0.346614670 _2_ AGT  --- 580900452 diffusion 0 [0 0 0 0] ------- [2:255 2:254 32 0] 
r 0.346614685 _3_ AGT  --- 1223941503 diffusion 0 [0 0 0 0] ------- [3:255 3:254 32 0] 
r 0.346614768 _7_ AGT  --- 394266828 diffusion 0 [0 0 0 0] ------- [7:255 7:254 32 0] 
r 0.346614878 _4_ AGT  --- 611591126 diffusion 0 [0 0 0 0] ------- [4:255 4:254 32 0] 
s 0.357669194 _4_ AGT  --- 300615855 diffusion 0 [0 0 0 0] ------- [4:254 4:255 32 0] 
r 0.358234388 _3_ AGT  --- 1223941504 diffusion 0 [0 0 0 0] ------- [3:255 3:254 32 0] 
r 0.358234671 _1_ AGT  --- 1225933903 diffusion 0 [0 0 0 0] ------- [1:255 1:254 32 0] 
r 0.358234730 _9_ AGT  --- 495722041 diffusion 0 [0 0 0 0] ------- [9:255 9:254 32 0] 
r 0.358234784 _2_ AGT  --- 580900453 diffusion 0 [0 0 0 0] ------- [2:255 2:254 32 0] 
r 0.358234998 _6_ AGT  --- 557533824 diffusion 0 [0 0 0 0] ------- [6:255 6:254 32 0] 
s 0.360669768 _7_ AGT  --- 1732828137 diffusion 0 [0 0 0 0] ------- [7:254 7:255 32 0] 
r 0.361455194 _9_ AGT  --- 495722042 diffusion 0 [0 0 0 0] ------- [9:255 9:254 32 0] 
r 0.361455325 _2_ AGT  --- 580900454 diffusion 0 [0 0 0 0] ------- [2:255 2:254 32 0] 
r 0.361455536 _3_ AGT  --- 1223941505 diffusion 0 [0 0 0 0] ------- [3:255 3:254 32 0] 
s 0.362669599 _1_ AGT  --- 528599279 diffusion 0 [0 0 0 0] ------- [1:254 1:255 32 0] 
r 0.363235076 _4_ AGT  --- 611591127 diffusion 0 [0 0 0 0] ------- [4:255 4:254 32 0] 
r 0.363235198 _3_ AGT  --- 1223941506 diffusion 0 [0 0 0 0] ------- [3:255 3:254 32 0] 
r 0.363235309 _2_ AGT  --- 580900455 diffusion 0 [0 0 0 0] ------- [2:255 2:254 32 0] 
s 0.363669452 _2_ AGT  --- 1566500010 diffusion 0 [0 0 0 0] ------- [2:254 2:255 32 0] 
r 0.364394780 _9_ AGT  --- 495722043 diffusion 0 [0 0 0 0] ------- [9:255 9:254 32 0] 
r 0.364394905 _3_ AGT  --- 1223941507 diffusion 0 [0 0 0 0] ------- [3:255 3:254 32 0] 
r 0.364395009 _7_ AGT  --- 394266829 diffusion 0 [0 0 0 0] ------- [7:255 7:254 32 0] 
r 0.364395042 _4_ AGT  --- 611591128 diffusion 0 [0 0 0 0] ------- [4:255 4:254 32 0] 
r 0.364395162 _1_ AGT  --- 1225933904 diffusion 0 [0 0 0 0] ------- [1:255 1:254 32 0] 
s 0.365669816 _6_ AGT  --- 1811076629 diffusion 0 [0 0 0 0] ------- [6:254 6:255 32 0] 
r 0.366734964 _8_ AGT  --- 1180591532 diffusion 0 [0 0 0 0] ------- [8:255 8:254 32 0] 
r 0.366735257 _0_ AGT  --- 2045655603 diffusion 0 [0 0 0 0] ------- [0:255 0:254 32 0] 
r 0.366735461 _5_ AGT  --- 885480290 diffusion 0 [0 0 0 0] ------- [5:255 5:254 32 0] 
r 0.366735620 _4_ AGT  --- 611591129 diffusion 0 [0 0 0 0] ------- [4:255 4:254 32 0] 
r 0.366735633 _3_ AGT  --- 1223941508 diffusion 0 [0 0 0 0] ------- [3:255 3:254 32 0] 
s 0.369001000 _4_ AGT  --- 300615856 diffusion 0 [0 0 0 0] ------- [4:254 4:255 32 0] 
r 0.369002000 _4_ AGT  --- 611591130 diffusion 0 [0 0 0 0] ------- [4:255 4:254 32 0] 
s 0.413003000 _4_ AGT  --- 300615857 diffusion 0 [0 0 0 0] ------- [4:254 4:255 32 0] 
r 0.413948194 _3_ AGT  --- 1223941509 diffusion 0 [0 0 0 0] ------- [3:255 3:254 32 0] 
r 0.413948477 _1_ AGT  --- 1225933905 diffusion 0 [0 0 0 0] ------- [1:255 1:254 32 0] 
r 0.413948536 _9_ AGT  --- 495722044 diffusion 0 [0 0 0 0] ------- [9:255 9:254 32 0] 
r 0.413948590 _2_ AGT  --- 580900456 diffusion 0 [0 0 0 0] ------- [2:255 2:254 32 0] 
r 0.413948804 _6_ AGT  --- 557533825 diffusion 0 [0 0 0 0] ------- [6:255 6:254 32 0] 
s 0.416736257 _0_ AGT  --- 1190071891 diffusion 0 [0 0 0 0] ------- [0:254 0:255 32 0] 
r 0.417461575 _8_ AGT  --- 1180591533 diffusion 0 [0 0 0 0] ------- [8:255 8:254 32 0] 
r 0.417461697 _6_ AGT  --- 557533826 diffusion 0 [0 0 0 0] ------- [6:255 6:254 32 0] 
s 0.422736461 _5_ AGT  --- 905258841 diffusion 0 [0 0 0 0] ------- [5:254 5:255 32 0] 
r 0.423722106 _6_ AGT  --- 557533827 diffusion 0 [0 0 0 0] ------- [6:255 6:254 32 0] 
r 0.423722185 _8_ AGT  --- 1180591534 diffusion 0 [0 0 0 0] ------- [8:255 8:254 32 0] 
s 0.428735964 _8_ AGT  --- 379185996 diffusion 0 [0 0 0 0] ------- [8:254 8:255 32 0] 
r 0.429861112 _6_ AGT  --- 557533828 diffusion 0 [0 0 0 0] ------- [6:255 6:254 32 0] 
r 0.429861282 _0_ AGT  --- 2045655604 diffusion 0 [0 0 0 0] ------- [0:255 0:254 32 0] 
r 0.429861688 _5_ AGT  --- 885480291 diffusion 0 [0 0 0 0] ------- [5:255 5:254 32 0] 
s 0.452949804 _6_ AGT  --- 1811076630 diffusion 0 [0 0 0 0] ------- [6:254 6:255 32 0] 
r 0.454014952 _8_ AGT  --- 1180591535 diffusion 0 [0 0 0 0] ------- [8:255 8:254 32 0] 
r 0.454015245 _0_ AGT  --- 2045655605 diffusion 0 [0 0 0 0] ------- [0:255 0:254 32 0] 
r 0.454015449 _5_ AGT  --- 885480292 diffusion 0 [0 0 0 0] ------- [5:255 5:254 32 0] 
r 0.454015608 _4_ AGT  --- 611591131 diffusion 0 [0 0 0 0] ------- [4:255 4:254 32 0] 
r 0.454015620 _3_ AGT  --- 1223941510 diffusion 0 [0 0 0 0] ------- [3:255 3:254 32 0] 
s 0.460949536 _9_ AGT  --- 1003364344 diffusion 0 [0 0 0 0] ------- [9:254 9:255 32 0] 
r 0.461754864 _2_ AGT  --- 580900457 diffusion 0 [0 0 0 0] ------- [2:255 2:254 32 0] 
r 0.461754878 _3_ AGT  --- 1223941511 diffusion 0 [0 0 0 0] ------- [3:255 3:254 32 0] 
r 0.461754961 _7_ AGT  --- 394266830 diffusion 0 [0 0 0 0] ------- [7:255 7:254 32 0] 
r 0.461755071 _4_ AGT  --- 611591132 diffusion 0 [0 0 0 0] ------- [4:255 4:254 32 0] 
s 0.471949590 _2_ AGT  --- 1566500011 diffusion 0 [0 0 0 0] ------- [2:254 2:255 32 0] 
r 0.472794918 _9_ AGT  --- 495722045 diffusion 0 [0 0 0 0] ------- [9:255 9:254 32 0] 
r 0.472795042 _3_ AGT  --- 1223941512 diffusion 0 [0 0 0 0] ------- [3:255 3:254 32 0] 
r 0.472795147 _7_ AGT  --- 394266831 diffusion 0 [0 0 0 0] ------- [7:255 7:254 32 0] 
r 0.472795180 _4_ AGT  --- 611591133 diffusion 0 [0 0 0 0] ------- [4:255 4:254 32 0] 
r 0.472795300 _1_ AGT  --- 1225933906 diffusion 0 [0 0 0 0] ------- [1:255 1:254 32 0] 
s 0.474949194 _3_ AGT  --- 1437693527 diffusion 0 [0 0 0 0] ------- [3:254 3:255 32 0] 
r 0.475814388 _4_ AGT  --- 611591134 diffusion 0 [0 0 0 0] ------- [4:255 4:254 32 0] 
r 0.475814536 _9_ AGT  --- 495722046 diffusion 0 [0 0 0 0] ------- [9:255 9:254 32 0] 
r 0.475814647 _2_ AGT  --- 580900458 diffusion 0 [0 0 0 0] ------- [2:255 2:254 32 0] 
r 0.475814793 _1_ AGT  --- 1225933907 diffusion 0 [0 0 0 0] ------- [1:255 1:254 32 0] 
r 0.475814962 _7_ AGT  --- 394266832 diffusion 0 [0 0 0 0] ------- [7:255 7:254 32 0] 
r 0.475815010 _6_ AGT  --- 557533829 diffusion 0 [0 0 0 0] ------- [6:255 6:254 32 0] 
s 0.475949477 _1_ AGT  --- 528599280 diffusion 0 [0 0 0 0] ------- [1:254 1:255 32 0] 
r 0.476914954 _4_ AGT  --- 611591135 diffusion 0 [0 0 0 0] ------- [4:255 4:254 32 0] 
r 0.476915076 _3_ AGT  --- 1223941513 diffusion 0 [0 0 0 0] ------- [3:255 3:254 32 0] 
r 0.476915187 _2_ AGT  --- 580900459 diffusion 0 [0 0 0 0] ------- [2:255 2:254 32 0] 
s 0.492001000 _5_ AGT  --- 905258842 diffusion 0 [0 0 0 0] ------- [5:254 5:255 32 0] 
r 0.492002000 _5_ AGT  --- 885480293 diffusion 0 [0 0 0 0] ------- [5:255 5:254 32 0] 
s 0.500016245 _0_ AGT  --- 1190071892 diffusion 0 [0 0 0 0] ------- [0:254 0:255 32 0] 
r 0.500701562 _8_ AGT  --- 1180591536 diffusion 0 [0 0 0 0] ------- [8:255 8:254 32 0] 
r 0.500701685 _6_ AGT  --- 557533830 diffusion 0 [0 0 0 0] ------- [6:255 6:254 32 0] 
s 0.503015952 _8_ AGT  --- 379185997 diffusion 0 [0 0 0 0] ------- [8:254 8:255 32 0] 
r 0.504121100 _6_ AGT  --- 557533831 diffusion 0 [0 0 0 0] ------- [6:255 6:254 32 0] 
r 0.504121270 _0_ AGT  --- 2045655606 diffusion 0 [0 0 0 0] ------- [0:255 0:254 32 0] 
r 0.504121676 _5_ AGT  --- 885480294 diffusion 0 [0 0 0 0] ------- [5:255 5:254 32 0] 
s 0.508755961 _7_ AGT  --- 1732828138 diffusion 0 [0 0 0 0] ------- [7:254 7:255 32 0] 
r 0.509921387 _9_ AGT  --- 495722047 diffusion 0 [0 0 0 0] ------- [9:255 9:254 32 0] 
r 0.509921519 _2_ AGT  --- 580900460 diffusion 0 [0 0 0 0] ------- [2:255 2:254 32 0] 
r 0.509921730 _3_ AGT  --- 1223941514 diffusion 0 [0 0 0 0] ------- [3:255 3:254 32 0] 
s 0.510016449 _5_ AGT  --- 905258843 diffusion 0 [0 0 0 0] ------- [5:254 5:255 32 0] 
r 0.511320935 _6_ AGT  --- 557533832 diffusion 0 [0 0 0 0] ------- [6:255 6:254 32 0] 
r 0.511321014 _8_ AGT  --- 1180591537 diffusion 0 [0 0 0 0] ------- [8:255 8:254 32 0] 
s 0.538003000 _5_ AGT  --- 905258844 diffusion 0 [0 0 0 0] ------- [5:254 5:255 32 0] 
r 0.538788645 _6_ AGT  --- 557533833 diffusion 0 [0 0 0 0] ------- [6:255 6:254 32 0] 
r 0.538788724 _8_ AGT  --- 1180591538 diffusion 0 [0 0 0 0] ------- [8:255 8:254 32 0] 
s 0.583789724 _8_ AGT  --- 379185998 diffusion 0 [0 0 0 0] ------- [8:254 8:255 32 0] 
r 0.584814872 _6_ AGT  --- 557533834 diffusion 0 [0 0 0 0] ------- [6:255 6:254 32 0] 
r 0.584815042 _0_ AGT  --- 2045655607 diffusion 0 [0 0 0 0] ------- [0:255 0:254 32 0] 
r 0.584815448 _5_ AGT  --- 885480295 diffusion 0 [0 0 0 0] ------- [5:255 5:254 32 0] 
s 0.593789645 _6_ AGT  --- 1811076631 diffusion 0 [0 0 0 0] ------- [6:254 6:255 32 0] 
r 0.594874793 _8_ AGT  --- 1180591539 diffusion 0 [0 0 0 0] ------- [8:255 8:254 32 0] 
r 0.594875085 _0_ AGT  --- 2045655608 diffusion 0 [0 0 0 0] ------- [0:255 0:254 32 0] 
r 0.594875289 _5_ AGT  --- 885480296 diffusion 0 [0 0 0 0] ------- [5:255 5:254 32 0] 
r 0.594875449 _4_ AGT  --- 611591136 diffusion 0 [0 0 0 0] ------- [4:255 4:254 32 0] 
r 0.594875461 _3_ AGT  --- 1223941515 diffusion 0 [0 0 0 0] ------- [3:255 3:254 32 0] 
s 0.640816042 _0_ AGT  --- 1190071893 diffusion 0 [0 0 0 0] ------- [0:254 0:255 32 0] 
r 0.641841360 _8_ AGT  --- 1180591540 diffusion 0 [0 0 0 0] ------- [8:255 8:254 32 0] 
r 0.641841482 _6_ AGT  --- 557533835 diffusion 0 [0 0 0 0] ------- [6:255 6:254 32 0] 
s 0.651876449 _4_ AGT  --- 300615858 diffusion 0 [0 0 0 0] ------- [4:254 4:255 32 0] 
r 0.652581643 _3_ AGT  --- 1223941516 diffusion 0 [0 0 0 0] ------- [3:255 3:254 32 0] 
r 0.652581926 _1_ AGT  --- 1225933908 diffusion 0 [0 0 0 0] ------- [1:255 1:254 32 0] 
r 0.652581985 _9_ AGT  --- 495722048 diffusion 0 [0 0 0 0] ------- [9:255 9:254 32 0] 
r 0.652582039 _2_ AGT  --- 580900461 diffusion 0 [0 0 0 0] ------- [2:255 2:254 32 0] 
r 0.652582253 _6_ AGT  --- 557533836 diffusion 0 [0 0 0 0] ------- [6:255 6:254 32 0] 
s 0.653876461 _3_ AGT  --- 1437693528 diffusion 0 [0 0 0 0] ------- [3:254 3:255 32 0] 
r 0.654901655 _4_ AGT  --- 611591137 diffusion 0 [0 0 0 0] ------- [4:255 4:254 32 0] 
r 0.654901803 _9_ AGT  --- 495722049 diffusion 0 [0 0 0 0] ------- [9:255 9:254 32 0] 
r 0.654901913 _2_ AGT  --- 580900462 diffusion 0 [0 0 0 0] ------- [2:255 2:254 32 0] 
r 0.654902060 _1_ AGT  --- 1225933909 diffusion 0 [0 0 0 0] ------- [1:255 1:254 32 0] 
r 0.654902229 _7_ AGT  --- 394266833 diffusion 0 [0 0 0 0] ------- [7:255 7:254 32 0] 
r 0.654902277 _6_ AGT  --- 557533837 diffusion 0 [0 0 0 0] ------- [6:255 6:254 32 0] 
s 0.694903229 _7_ AGT  --- 1732828139 diffusion 0 [0 0 0 0] ------- [7:254 7:255 32 0] 
r 0.695788655 _9_ AGT  --- 495722050 diffusion 0 [0 0 0 0] ------- [9:255 9:254 32 0] 
r 0.695788786 _2_ AGT  --- 580900463 diffusion 0 [0 0 0 0] ------- [2:255 2:254 32 0] 
r 0.695788997 _3_ AGT  --- 1223941517 diffusion 0 [0 0 0 0] ------- [3:255 3:254 32 0] 
s 0.702582985 _9_ AGT  --- 1003364345 diffusion 0 [0 0 0 0] ------- [9:254 9:255 32 0] 
s 0.702583039 _2_ AGT  --- 1566500012 diffusion 0 [0 0 0 0] ------- [2:254 2:255 32 0] 
r 0.703268313 _2_ AGT  --- 580900464 diffusion 0 [0 0 0 0] ------- [2:255 2:254 32 0] 
r 0.703268327 _3_ AGT  --- 1223941518 diffusion 0 [0 0 0 0] ------- [3:255 3:254 32 0] 
r 0.703268410 _7_ AGT  --- 394266834 diffusion 0 [0 0 0 0] ------- [7:255 7:254 32 0] 
r 0.703268520 _4_ AGT  --- 611591138 diffusion 0 [0 0 0 0] ------- [4:255 4:254 32 0] 
r 0.704982640 _9_ AGT  --- 495722051 diffusion 0 [0 0 0 0] ------- [9:255 9:254 32 0] 
r 0.704982765 _3_ AGT  --- 1223941519 diffusion 0 [0 0 0 0] ------- [3:255 3:254 32 0] 
r 0.704982870 _7_ AGT  --- 394266835 diffusion 0 [0 0 0 0] ------- [7:255 7:254 32 0] 
r 0.704982903 _4_ AGT  --- 611591139 diffusion 0 [0 0 0 0] ------- [4:255 4:254 32 0] 
r 0.704983022 _1_ AGT  --- 1225933910 diffusion 0 [0 0 0 0] ------- [1:255 1:254 32 0] 
s 0.708582926 _1_ AGT  --- 528599281 diffusion 0 [0 0 0 0] ------- [1:254 1:255 32 0] 
r 0.709188403 _4_ AGT  --- 611591140 diffusion 0 [0 0 0 0] ------- [4:255 4:254 32 0] 
r 0.709188525 _3_ AGT  --- 1223941520 diffusion 0 [0 0 0 0] ------- [3:255 3:254 32 0] 
r 0.709188636 _2_ AGT  --- 580900465 diffusion 0 [0 0 0 0] ------- [2:255 2:254 32 0] 
s 1.110001000 _9_ AGT  --- 1003364346 diffusion 0 [0 0 0 0] ------- [9:254 9:255 32 0] 
r 1.110002000 _9_ AGT  --- 495722052 diffusion 0 [0 0 0 0] ------- [9:255 9:254 32 0] 
s 5.123001000 _2_ AGT  --- 1566500013 diffusion 0 [0 0 0 0] ------- [2:254 2:255 32 0] 
r 5.123002000 _2_ AGT  --- 580900466 diffusion 0 [0 0 0 0] ------- [2:255 2:254 32 0] 
s 5.246001000 _3_ AGT  --- 1437693529 diffusion 0 [0 0 0 0] ------- [3:254 3:255 32 0] 
r 5.246002000 _3_ AGT  --- 1223941521 diffusion 0 [0 0 0 0] ------- [3:255 3:254 32 0] 
s 5.369001000 _4_ AGT  --- 300615859 diffusion 0 [0 0 0 0] ------- [4:254 4:255 32 0] 
r 5.369002000 _4_ AGT  --- 611591141 diffusion 0 [0 0 0 0] ------- [4:255 4:254 32 0] 
s 5.492001000 _5_ AGT  --- 905258845 diffusion 0 [0 0 0 0] ------- [5:254 5:255 32 0] 
r 5.492002000 _5_ AGT  --- 885480297 diffusion 0 [0 0 0 0] ------- [5:255 5:254 32 0] 
s 10.123001000 _2_ AGT  --- 1566500014 diffusion 0 [0 0 0 0] ------- [2:254 2:255 32 0] 
r 10.123002000 _2_ AGT  --- 580900467 diffusion 0 [0 0 0 0] ------- [2:255 2:254 32 0] 
s 10.246001000 _3_ AGT  --- 1437693530 diffusion 0 [0 0 0 0] ------- [3:254 3:255 32 0] 
r 10.246002000 _3_ AGT  --- 1223941522 diffusion 0 [0 0 0 0] ------- [3:255 3:254 32 0] 
s 10.369001000 _4_ AGT  --- 300615860 diffusion 0 [0 0 0 0] ------- [4:254 4:255 32 0] 
r 10.369002000 _4_ AGT  --- 611591142 diffusion 0 [0 0 0 0] ------- [4:255 4:254 32 0] 
s 10.492001000 _5_ AGT  --- 905258846 diffusion 0 [0 0 0 0] ------- [5:254 5:255 32 0] 
r 10.492002000 _5_ AGT  --- 885480298 diffusion 0 [0 0 0 0] ------- [5:255 5:254 32 0] 
s 12.312001000 _9_ AGT  --- 1003364347 diffusion 0 [0 0 0 0] ------- [9:254 9:255 32 0] 
r 12.312002000 _9_ AGT  --- 495722053 diffusion 0 [0 0 0 0] ------- [9:255 9:254 32 0] 
s 15.123001000 _2_ AGT  --- 1566500015 diffusion 0 [0 0 0 0] ------- [2:254 2:255 32 0] 
r 15.123002000 _2_ AGT  --- 580900468 diffusion 0 [0 0 0 0] ------- [2:255 2:254 32 0] 
s 15.246001000 _3_ AGT  --- 1437693531 diffusion 0 [0 0 0 0] ------- [3:254 3:255 32 0] 
r 15.246002000 _3_ AGT  --- 1223941523 diffusion 0 [0 0 0 0] ------- [3:255 3:254 32 0] 
s 15.369001000 _4_ AGT  --- 300615861 diffusion 0 [0 0 0 0] ------- [4:254 4:255 32 0] 
r 15.369002000 _4_ AGT  --- 611591143 diffusion 0 [0 0 0 0] ------- [4:255 4:254 32 0] 
s 15.492001000 _5_ AGT  --- 905258847 diffusion 0 [0 0 0 0] ------- [5:254 5:255 32 0] 
r 15.492002000 _5_ AGT  --- 885480299 diffusion 0 [0 0 0 0] ------- [5:255 5:254 32 0] 
s 20.000001000 _0_ AGT  --- 1190071894 diffusion 0 [0 0 0 0] ------- [0:254 0:255 32 0] 
s 20.000001000 _1_ AGT  --- 528599282 diffusion 0 [0 0 0 0] ------- [1:254 1:255 32 0] 
s 20.000001000 _2_ AGT  --- 1566500016 diffusion 0 [0 0 0 0] ------- [2:254 2:255 32 0] 
s 20.000001000 _3_ AGT  --- 1437693532 diffusion 0 [0 0 0 0] ------- [3:254 3:255 32 0] 
s 20.000001000 _4_ AGT  --- 300615862 diffusion 0 [0 0 0 0] ------- [4:254 4:255 32 0] 
s 20.000001000 _5_ AGT  --- 905258848 diffusion 0 [0 0 0 0] ------- [5:254 5:255 32 0] 
s 20.000001000 _6_ AGT  --- 1811076632 diffusion 0 [0 0 0 0] ------- [6:254 6:255 32 0] 
s 20.000001000 _7_ AGT  --- 1732828140 diffusion 0 [0 0 0 0] ------- [7:254 7:255 32 0] 
s 20.000001000 _8_ AGT  --- 379185999 diffusion 0 [0 0 0 0] ------- [8:254 8:255 32 0] 
s 20.000001000 _9_ AGT  --- 1003364348 diffusion 0 [0 0 0 0] ------- [9:254 9:255 32 0] 
s 20.123001000 _2_ AGT  --- 1566500017 diffusion 0 [0 0 0 0] ------- [2:254 2:255 32 0] 
r 20.123002000 _2_ AGT  --- 580900469 diffusion 0 [0 0 0 0] ------- [2:255 2:254 32 0] 
s 20.246001000 _3_ AGT  --- 1437693533 diffusion 0 [0 0 0 0] ------- [3:254 3:255 32 0] 
r 20.246002000 _3_ AGT  --- 1223941524 diffusion 0 [0 0 0 0] ------- [3:255 3:254 32 0] 
s 20.369001000 _4_ AGT  --- 300615863 diffusion 0 [0 0 0 0] ------- [4:254 4:255 32 0] 
r 20.369002000 _4_ AGT  --- 611591144 diffusion 0 [0 0 0 0] ------- [4:255 4:254 32 0] 
s 20.492001000 _5_ AGT  --- 905258849 diffusion 0 [0 0 0 0] ------- [5:254 5:255 32 0] 
r 20.492002000 _5_ AGT  --- 885480300 diffusion 0 [0 0 0 0] ------- [5:255 5:254 32 0] 
s 25.123001000 _2_ AGT  --- 1566500018 diffusion 0 [0 0 0 0] ------- [2:254 2:255 32 0] 
r 25.123002000 _2_ AGT  --- 580900470 diffusion 0 [0 0 0 0] ------- [2:255 2:254 32 0] 
s 25.246001000 _3_ AGT  --- 1437693534 diffusion 0 [0 0 0 0] ------- [3:254 3:255 32 0] 
r 25.246002000 _3_ AGT  --- 1223941525 diffusion 0 [0 0 0 0] ------- [3:255 3:254 32 0] 
s 25.369001000 _4_ AGT  --- 300615864 diffusion 0 [0 0 0 0] ------- [4:254 4:255 32 0] 
r 25.369002000 _4_ AGT  --- 611591145 diffusion 0 [0 0 0 0] ------- [4:255 4:254 32 0] 
s 25.492001000 _5_ AGT  --- 905258850 diffusion 0 [0 0 0 0] ------- [5:254 5:255 32 0] 
r 25.492002000 _5_ AGT  --- 885480301 diffusion 0 [0 0 0 0] ------- [5:255 5:254 32 0] 
s 30.123001000 _2_ AGT  --- 1566500019 diffusion 0 [0 0 0 0] ------- [2:254 2:255 32 0] 
r 30.123002000 _2_ AGT  --- 580900471 diffusion 0 [0 0 0 0] ------- [2:255 2:254 32 0] 
s 30.246001000 _3_ AGT  --- 1437693535 diffusion 0 [0 0 0 0] ------- [3:254 3:255 32 0] 
r 30.246002000 _3_ AGT  --- 1223941526 diffusion 0 [0 0 0 0] ------- [3:255 3:254 32 0] 
s 30.369001000 _4_ AGT  --- 300615865 diffusion 0 [0 0 0 0] ------- [4:254 4:255 32 0] 
r 30.369002000 _4_ AGT  --- 611591146 diffusion 0 [0 0 0 0] ------- [4:255 4:254 32 0] 
s 30.492001000 _5_ AGT  --- 905258851 diffusion 0 [0 0 0 0] ------- [5:254 5:255 32 0] 
r 30.492002000 _5_ AGT  --- 885480302 diffusion 0 [0 0 0 0] ------- [5:255 5:254 32 0] 
s 35.123001000 _2_ AGT  --- 1566500020 diffusion 0 [0 0 0 0] ------- [2:254 2:255 32 0] 
r 35.123002000 _2_ AGT  --- 580900472 diffusion 0 [0 0 0 0] ------- [2:255 2:254 32 0] 
s 35.246001000 _3_ AGT  --- 1437693536 diffusion 0 [0 0 0 0] ------- [3:254 3:255 32 0] 
r 35.246002000 _3_ AGT  --- 1223941527 diffusion 0 [0 0 0 0] ------- [3:255 3:254 32 0] 
s 35.369001000 _4_ AGT  --- 300615866 diffusion 0 [0 0 0 0] ------- [4:254 4:255 32 0] 
r 35.369002000 _4_ AGT  --- 611591147 diffusion 0 [0 0 0 0] ------- [4:255 4:254 32 0] 
s 35.492001000 _5_ AGT  --- 905258852 diffusion 0 [0 0 0 0] ------- [5:254 5:255 32 0] 
r 35.492002000 _5_ AGT  --- 885480303 diffusion 0 [0 0 0 0] ------- [5:255 5:254 32 0] 
s 40.000001000 _0_ AGT  --- 1190071895 diffusion 0 [0 0 0 0] ------- [0:254 0:255 32 0] 
s 40.000001000 _1_ AGT  --- 528599283 diffusion 0 [0 0 0 0] ------- [1:254 1:255 32 0] 
s 40.000001000 _2_ AGT  --- 1566500021 diffusion 0 [0 0 0 0] ------- [2:254 2:255 32 0] 
s 40.000001000 _3_ AGT  --- 1437693537 diffusion 0 [0 0 0 0] ------- [3:254 3:255 32 0] 
s 40.000001000 _4_ AGT  --- 300615867 diffusion 0 [0 0 0 0] ------- [4:254 4:255 32 0] 
s 40.000001000 _5_ AGT  --- 905258853 diffusion 0 [0 0 0 0] ------- [5:254 5:255 32 0] 
s 40.000001000 _6_ AGT  --- 1811076633 diffusion 0 [0 0 0 0] ------- [6:254 6:255 32 0] 
s 40.000001000 _7_ AGT  --- 1732828141 diffusion 0 [0 0 0 0] ------- [7:254 7:255 32 0] 
s 40.000001000 _8_ AGT  --- 379186000 diffusion 0 [0 0 0 0] ------- [8:254 8:255 32 0] 
s 40.000001000 _9_ AGT  --- 1003364349 diffusion 0 [0 0 0 0] ------- [9:254 9:255 32 0] 
s 40.123001000 _2_ AGT  --- 1566500022 diffusion 0 [0 0 0 0] ------- [2:254 2:255 32 0] 
r 40.123002000 _2_ AGT  --- 580900473 diffusion 0 [0 0 0 0] ------- [2:255 2:254 32 0] 
s 40.246001000 _3_ AGT  --- 1437693538 diffusion 0 [0 0 0 0] ------- [3:254 3:255 32 0] 
r 40.246002000 _3_ AGT  --- 1223941528 diffusion 0 [0 0 0 0] ------- [3:255 3:254 32 0] 
s 40.369001000 _4_ AGT  --- 300615868 diffusion 0 [0 0 0 0] ------- [4:254 4:255 32 0] 
r 40.369002000 _4_ AGT  --- 611591148 diffusion 0 [0 0 0 0] ------- [4:255 4:254 32 0] 
s 40.492001000 _5_ AGT  --- 905258854 diffusion 0 [0 0 0 0] ------- [5:254 5:255 32 0] 
r 40.492002000 _5_ AGT  --- 885480304 diffusion 0 [0 0 0 0] ------- [5:255 5:254 32 0] 
s 45.123001000 _2_ AGT  --- 1566500023 diffusion 0 [0 0 0 0] ------- [2:254 2:255 32 0] 
r 45.123002000 _2_ AGT  --- 580900474 diffusion 0 [0 0 0 0] ------- [2:255 2:254 32 0] 
s 45.246001000 _3_ AGT  --- 1437693539 diffusion 0 [0 0 0 0] ------- [3:254 3:255 32 0] 
r 45.246002000 _3_ AGT  --- 1223941529 diffusion 0 [0 0 0 0] ------- [3:255 3:254 32 0] 
s 45.369001000 _4_ AGT  --- 300615869 diffusion 0 [0 0 0 0] ------- [4:254 4:255 32 0] 
r 45.369002000 _4_ AGT  --- 611591149 diffusion 0 [0 0 0 0] ------- [4:255 4:254 32 0] 
s 45.492001000 _5_ AGT  --- 905258855 diffusion 0 [0 0 0 0] ------- [5:254 5:255 32 0] 
r 45.492002000 _5_ AGT  --- 885480305 diffusion 0 [0 0 0 0] ------- [5:255 5:254 32 0] 
s 50.123001000 _2_ AGT  --- 1566500024 diffusion 0 [0 0 0 0] ------- [2:254 2:255 32 0] 
r 50.123002000 _2_ AGT  --- 580900475 diffusion 0 [0 0 0 0] ------- [2:255 2:254 32 0] 
s 50.246001000 _3_ AGT  --- 1437693540 diffusion 0 [0 0 0 0] ------- [3:254 3:255 32 0] 
r 50.246002000 _3_ AGT  --- 1223941530 diffusion 0 [0 0 0 0] ------- [3:255 3:254 32 0] 
s 50.369001000 _4_ AGT  --- 300615870 diffusion 0 [0 0 0 0] ------- [4:254 4:255 32 0] 
r 50.369002000 _4_ AGT  --- 611591150 diffusion 0 [0 0 0 0] ------- [4:255 4:254 32 0] 
s 50.492001000 _5_ AGT  --- 905258856 diffusion 0 [0 0 0 0] ------- [5:254 5:255 32 0] 
r 50.492002000 _5_ AGT  --- 885480306 diffusion 0 [0 0 0 0] ------- [5:255 5:254 32 0] 
s 55.123001000 _2_ AGT  --- 1566500025 diffusion 0 [0 0 0 0] ------- [2:254 2:255 32 0] 
r 55.123002000 _2_ AGT  --- 580900476 diffusion 0 [0 0 0 0] ------- [2:255 2:254 32 0] 
s 55.246001000 _3_ AGT  --- 1437693541 diffusion 0 [0 0 0 0] ------- [3:254 3:255 32 0] 
r 55.246002000 _3_ AGT  --- 1223941531 diffusion 0 [0 0 0 0] ------- [3:255 3:254 32 0] 
s 55.369001000 _4_ AGT  --- 300615871 diffusion 0 [0 0 0 0] ------- [4:254 4:255 32 0] 
r 55.369002000 _4_ AGT  --- 611591151 diffusion 0 [0 0 0 0] ------- [4:255 4:254 32 0] 
s 55.492001000 _5_ AGT  --- 905258857 diffusion 0 [0 0 0 0] ------- [5:254 5:255 32 0] 
r 55.492002000 _5_ AGT  --- 885480307 diffusion 0 [0 0 0 0] ------- [5:255 5:254 32 0] 
s 60.000001000 _0_ AGT  --- 1190071896 diffusion 0 [0 0 0 0] ------- [0:254 0:255 32 0] 
s 60.000001000 _1_ AGT  --- 528599284 diffusion 0 [0 0 0 0] ------- [1:254 1:255 32 0] 
s 60.000001000 _2_ AGT  --- 1566500026 diffusion 0 [0 0 0 0] ------- [2:254 2:255 32 0] 
s 60.000001000 _3_ AGT  --- 1437693542 diffusion 0 [0 0 0 0] ------- [3:254 3:255 32 0] 
s 60.000001000 _4_ AGT  --- 300615872 diffusion 0 [0 0 0 0] ------- [4:254 4:255 32 0] 
s 60.000001000 _5_ AGT  --- 905258858 diffusion 0 [0 0 0 0] ------- [5:254 5:255 32 0] 
s 60.000001000 _6_ AGT  --- 1811076634 diffusion 0 [0 0 0 0] ------- [6:254 6:255 32 0] 
s 60.000001000 _7_ AGT  --- 1732828142 diffusion 0 [0 0 0 0] ------- [7:254 7:255 32 0] 
s 60.000001000 _8_ AGT  --- 379186001 diffusion 0 [0 0 0 0] ------- [8:254 8:255 32 0] 
s 60.000001000 _9_ AGT  --- 1003364350 diffusion 0 [0 0 0 0] ------- [9:254 9:255 32 0] 
s 60.123001000 _2_ AGT  --- 1566500027 diffusion 0 [0 0 0 0] ------- [2:254 2:255 32 0] 
r 60.123002000 _2_ AGT  --- 580900477 diffusion 0 [0 0 0 0] ------- [2:255 2:254 32 0] 
s 60.173003000 _2_ AGT  --- 1566500028 diffusion 0 [0 0 0 0] ------- [2:254 2:255 32 0] 
r 60.173868328 _9_ AGT  --- 495722054 diffusion 0 [0 0 0 0] ------- [9:255 9:254 32 0] 
r 60.173868452 _3_ AGT  --- 1223941532 diffusion 0 [0 0 0 0] ------- [3:255 3:254 32 0] 
r 60.173868557 _7_ AGT  --- 394266836 diffusion 0 [0 0 0 0] ------- [7:255 7:254 32 0] 
r 60.173868590 _4_ AGT  --- 611591152 diffusion 0 [0 0 0 0] ------- [4:255 4:254 32 0] 
r 60.173868710 _1_ AGT  --- 1225933911 diffusion 0 [0 0 0 0] ------- [1:255 1:254 32 0] 
s 60.173869328 _9_ AGT  --- 1003364351 diffusion 0 [0 0 0 0] ------- [9:254 9:255 32 0] 