M 0.0 nn:50 x:670 y:670 rp:dsdv
M 0.0 sc:../mobility/scene/scen-670x670-50-600-20-0 cp:../mobility/scene/cbr-50-20-4-512 seed:0.0
M 0.0 prop:Propagation/TwoRayGround ant:Antenna/OmniAntenna
s 22.465028699 _18_ AGT  --- 229 cbr 512 [0 0 0 0] ------- [18:1 20:0 32 0] [0] 0 2
s 23.789830405 _16_ AGT  --- 230 cbr 512 [0 0 0 0] ------- [16:0 17:0 32 0] [0] 0 1
r 23.807913879 _17_ AGT  --- 230 cbr 532 [13a 11 22 800] ------- [16:0 17:0 31 17] [0] 2 1
s 27.562167430 _16_ AGT  --- 401 cbr 512 [0 0 0 0] ------- [16:0 17:0 32 0] [1] 0 1
r 27.575104192 _17_ AGT  --- 401 cbr 532 [13a 11 22 800] ------- [16:0 17:0 31 17] [1] 2 1
s 27.832222972 _18_ AGT  --- 405 cbr 512 [0 0 0 0] ------- [18:1 20:0 32 0] [1] 0 2
s 29.031284241 _9_ AGT  --- 412 cbr 512 [0 0 0 0] ------- [9:2 11:0 32 0] [0] 0 2
r 29.058460927 _11_ AGT  --- 412 cbr 532 [13a b 11 800] ------- [9:2 11:0 30 11] [0] 3 2
s 30.208176370 _13_ AGT  --- 415 cbr 512 [0 0 0 0] ------- [13:2 14:1 32 0] [0] 0 3
s 30.586201677 _16_ AGT  --- 417 cbr 512 [0 0 0 0] ------- [16:0 17:0 32 0] [2] 0 1
r 30.598460023 _17_ AGT  --- 417 cbr 532 [13a 11 22 800] ------- [16:0 17:0 31 17] [2] 2 1
s 31.667426077 _9_ AGT  --- 418 cbr 512 [0 0 0 0] ------- [9:2 11:0 32 0] [1] 0 2
r 31.685765371 _11_ AGT  --- 418 cbr 532 [13a b 11 800] ------- [9:2 11:0 30 11] [1] 3 2
s 32.138173525 _18_ AGT  --- 419 cbr 512 [0 0 0 0] ------- [18:1 20:0 32 0] [2] 0 2
s 32.500874033 _13_ AGT  --- 420 cbr 512 [0 0 0 0] ------- [13:2 14:1 32 0] [1] 0 3
s 33.221376566 _16_ AGT  --- 421 cbr 512 [0 0 0 0] ------- [16:0 17:0 32 0] [3] 0 1
r 33.233134912 _17_ AGT  --- 421 cbr 532 [13a 11 22 800] ------- [16:0 17:0 31 17] [3] 2 1
s 34.356553204 _9_ AGT  --- 422 cbr 512 [0 0 0 0] ------- [9:2 11:0 32 0] [2] 0 2
r 34.374412498 _11_ AGT  --- 422 cbr 532 [13a b 11 800] ------- [9:2 11:0 30 11] [2] 3 2
s 35.392564973 _18_ AGT  --- 423 cbr 512 [0 0 0 0] ------- [18:1 20:0 32 0] [3] 0 2
s 36.931081271 _13_ AGT  --- 479 cbr 512 [0 0 0 0] ------- [13:2 14:1 32 0] [2] 0 3
s 37.914219345 _16_ AGT  --- 532 cbr 512 [0 0 0 0] ------- [16:0 17:0 32 0] [4] 0 1
r 37.929149330 _17_ AGT  --- 532 cbr 532 [13a 11 e 800] ------- [16:0 17:0 31 17] [4] 2 1
s 37.953153224 _8_ AGT  --- 534 cbr 512 [0 0 0 0] ------- [8:1 10:0 32 0] [0] 0 2
s 38.244775162 _9_ AGT  --- 573 cbr 512 [0 0 0 0] ------- [9:2 11:0 32 0] [3] 0 2
r 38.268875217 _11_ AGT  --- 573 cbr 532 [13a b 11 800] ------- [9:2 11:0 29 11] [3] 4 2
s 40.072473382 _18_ AGT  --- 624 cbr 512 [0 0 0 0] ------- [18:1 20:0 32 0] [4] 0 2
s 40.917940000 _12_ AGT  --- 628 cbr 512 [0 0 0 0] ------- [12:2 14:0 32 0] [0] 0 2
r 40.935524362 _14_ AGT  --- 628 cbr 532 [13a e 2b 800] ------- [12:2 14:0 31 14] [0] 2 2
s 41.033536799 _16_ AGT  --- 629 cbr 512 [0 0 0 0] ------- [16:0 17:0 32 0] [5] 0 1
r 41.045474705 _17_ AGT  --- 629 cbr 532 [13a 11 e 800] ------- [16:0 17:0 31 17] [5] 2 1
s 41.732248907 _8_ AGT  --- 631 cbr 512 [0 0 0 0] ------- [8:1 10:0 32 0] [1] 0 2
s 42.472887603 _13_ AGT  --- 632 cbr 512 [0 0 0 0] ------- [13:2 14:1 32 0] [3] 0 3
s 43.599896435 _16_ AGT  --- 633 cbr 512 [0 0 0 0] ------- [16:0 17:0 32 0] [6] 0 1
r 43.611614341 _17_ AGT  --- 633 cbr 532 [13a 11 e 800] ------- [16:0 17:0 31 17] [6] 2 1
s 44.055009627 _9_ AGT  --- 634 cbr 512 [0 0 0 0] ------- [9:2 11:0 32 0] [4] 0 2
r 44.079089683 _11_ AGT  --- 634 cbr 532 [13a b 11 800] ------- [9:2 11:0 29 11] [4] 4 2
s 45.250612282 _18_ AGT  --- 635 cbr 512 [0 0 0 0] ------- [18:1 20:0 32 0] [5] 0 2
D 45.250612282 _18_ RTR  IFQ 229 cbr 532 [0 0 0 0] ------- [18:1 20:0 32 0] [0] 0 2
s 45.736533884 _12_ AGT  --- 636 cbr 512 [0 0 0 0] ------- [12:2 14:0 32 0] [1] 0 2
r 45.748692610 _14_ AGT  --- 636 cbr 532 [13a e 2b 800] ------- [12:2 14:0 31 14] [1] 2 2
s 46.423112460 _8_ AGT  --- 637 cbr 512 [0 0 0 0] ------- [8:1 10:0 32 0] [2] 0 2
s 46.814166282 _16_ AGT  --- 638 cbr 512 [0 0 0 0] ------- [16:0 17:0 32 0] [7] 0 1
r 46.825704188 _17_ AGT  --- 638 cbr 532 [13a 11 e 800] ------- [16:0 17:0 31 17] [7] 2 1
s 47.003302984 _13_ AGT  --- 639 cbr 512 [0 0 0 0] ------- [13:2 14:1 32 0] [4] 0 3
D 47.800762035 _18_ IFQ  ARP 405 cbr 552 [0 0 12 800] ------- [18:1 20:0 32 48] [1] 0 2
D 47.800762035 _18_ IFQ  ARP 419 cbr 552 [0 0 12 800] ------- [18:1 20:0 32 48] [2] 0 2
D 47.800762035 _18_ RTR  CBK 423 cbr 552 [0 0 12 800] ------- [18:1 20:0 32 48] [3] 0 2
D 47.800762035 _18_ RTR  CBK 624 cbr 552 [0 0 12 800] ------- [18:1 20:0 32 48] [4] 0 2
r 47.836096915 _20_ AGT  --- 635 cbr 552 [13a 14 2a 800] ------- [18:1 20:0 30 20] [5] 3 2
s 49.071743620 _13_ AGT  --- 734 cbr 512 [0 0 0 0] ------- [13:2 14:1 32 0] [5] 0 3
D 49.071743620 _13_ RTR  IFQ 415 cbr 532 [0 0 0 0] ------- [13:2 14:1 32 0] [0] 0 3
s 49.085092490 _12_ AGT  --- 735 cbr 512 [0 0 0 0] ------- [12:2 14:0 32 0] [2] 0 2
r 49.096591216 _14_ AGT  --- 735 cbr 532 [13a e 2b 800] ------- [12:2 14:0 31 14] [2] 2 2
s 49.329848589 _9_ AGT  --- 742 cbr 512 [0 0 0 0] ------- [9:2 11:0 32 0] [5] 0 2
r 49.356921634 _11_ AGT  --- 742 cbr 532 [13a b 11 800] ------- [9:2 11:0 29 11] [5] 4 2
s 49.538846263 _16_ AGT  --- 744 cbr 512 [0 0 0 0] ------- [16:0 17:0 32 0] [8] 0 1
r 49.550544169 _17_ AGT  --- 744 cbr 532 [13a 11 e 800] ------- [16:0 17:0 31 17] [8] 2 1
s 49.601100901 _18_ AGT  --- 747 cbr 512 [0 0 0 0] ------- [18:1 20:0 32 0] [6] 0 2
r 49.625245220 _20_ AGT  --- 747 cbr 532 [13a 14 29 800] ------- [18:1 20:0 30 20] [6] 3 2
s 51.088397421 _8_ AGT  --- 813 cbr 512 [0 0 0 0] ------- [8:1 10:0 32 0] [3] 0 2
s 51.356825699 _9_ AGT  --- 822 cbr 512 [0 0 0 0] ------- [9:2 11:0 32 0] [6] 0 2
r 51.381366224 _11_ AGT  --- 822 cbr 532 [13a b 11 800] ------- [9:2 11:0 29 11] [6] 4 2
s 51.604646846 _18_ AGT  --- 824 cbr 512 [0 0 0 0] ------- [18:1 20:0 32 0] [7] 0 2
r 51.622426218 _20_ AGT  --- 824 cbr 532 [13a 14 29 800] ------- [18:1 20:0 30 20] [7] 3 2
s 53.993025479 _13_ AGT  --- 845 cbr 512 [0 0 0 0] ------- [13:2 14:1 32 0] [6] 0 3
D 53.993025479 _13_ RTR  IFQ 420 cbr 532 [0 0 0 0] ------- [13:2 14:1 32 0] [1] 0 3
s 54.592913050 _8_ AGT  --- 846 cbr 512 [0 0 0 0] ------- [8:1 10:0 32 0] [4] 0 2
s 54.699716071 _12_ AGT  --- 847 cbr 512 [0 0 0 0] ------- [12:2 14:0 32 0] [3] 0 2
r 54.711254797 _14_ AGT  --- 847 cbr 532 [13a e 2b 800] ------- [12:2 14:0 31 14] [3] 2 2
s 55.397919197 _16_ AGT  --- 848 cbr 512 [0 0 0 0] ------- [16:0 17:0 32 0] [9] 0 1
r 55.409757103 _17_ AGT  --- 848 cbr 532 [13a 11 e 800] ------- [16:0 17:0 31 17] [9] 2 1
s 56.416556836 _9_ AGT  --- 849 cbr 512 [0 0 0 0] ------- [9:2 11:0 32 0] [7] 0 2
r 56.440917361 _11_ AGT  --- 849 cbr 532 [13a b 11 800] ------- [9:2 11:0 29 11] [7] 4 2
s 56.798223622 _13_ AGT  --- 850 cbr 512 [0 0 0 0] ------- [13:2 14:1 32 0] [7] 0 3
D 56.798223622 _13_ RTR  IFQ 479 cbr 532 [0 0 0 0] ------- [13:2 14:1 32 0] [2] 0 3
s 57.308727740 _18_ AGT  --- 851 cbr 512 [0 0 0 0] ------- [18:1 20:0 32 0] [8] 0 2
r 57.326307113 _20_ AGT  --- 851 cbr 532 [13a 14 29 800] ------- [18:1 20:0 30 20] [8] 3 2
s 58.025326960 _16_ AGT  --- 852 cbr 512 [0 0 0 0] ------- [16:0 17:0 32 0] [10] 0 1
r 58.037164866 _17_ AGT  --- 852 cbr 532 [13a 11 e 800] ------- [16:0 17:0 31 17] [10] 2 1
s 58.481999126 _8_ AGT  --- 853 cbr 512 [0 0 0 0] ------- [8:1 10:0 32 0] [5] 0 2
D 58.481999126 _8_ RTR  IFQ 534 cbr 532 [0 0 0 0] ------- [8:1 10:0 32 0] [0] 0 2
s 59.011372471 _12_ AGT  --- 854 cbr 512 [0 0 0 0] ------- [12:2 14:0 32 0] [4] 0 2
r 59.023471197 _14_ AGT  --- 854 cbr 532 [13a e 2b 800] ------- [12:2 14:0 31 14] [4] 2 2
s 60.827008748 _18_ AGT  --- 907 cbr 512 [0 0 0 0] ------- [18:1 20:0 32 0] [9] 0 2
r 60.857014310 _20_ AGT  --- 907 cbr 532 [13a 14 2a 800] ------- [18:1 20:0 29 20] [9] 4 2
s 61.541641328 _9_ AGT  --- 946 cbr 512 [0 0 0 0] ------- [9:2 11:0 32 0] [8] 0 2
r 61.560080602 _11_ AGT  --- 946 cbr 532 [13a b 11 800] ------- [9:2 11:0 30 11] [8] 3 2
s 61.626237912 _13_ AGT  --- 948 cbr 512 [0 0 0 0] ------- [13:2 14:1 32 0] [8] 0 3
D 61.626237912 _13_ RTR  IFQ 632 cbr 532 [0 0 0 0] ------- [13:2 14:1 32 0] [3] 0 3
s 62.137473922 _8_ AGT  --- 991 cbr 512 [0 0 0 0] ------- [8:1 10:0 32 0] [6] 0 2
D 62.137473922 _8_ RTR  IFQ 631 cbr 532 [0 0 0 0] ------- [8:1 10:0 32 0] [1] 0 2
s 62.219110353 _16_ AGT  --- 992 cbr 512 [0 0 0 0] ------- [16:0 17:0 32 0] [11] 0 1
r 62.230628112 _17_ AGT  --- 992 cbr 532 [13a 11 a 800] ------- [16:0 17:0 31 17] [11] 2 1
s 63.251644988 _12_ AGT  --- 1028 cbr 512 [0 0 0 0] ------- [12:2 14:0 32 0] [5] 0 2
r 63.263943715 _14_ AGT  --- 1028 cbr 532 [13a e 2b 800] ------- [12:2 14:0 31 14] [5] 2 2
s 64.618818812 _18_ AGT  --- 1064 cbr 512 [0 0 0 0] ------- [18:1 20:0 32 0] [10] 0 2
r 64.643499421 _20_ AGT  --- 1064 cbr 532 [13a 14 2a 800] ------- [18:1 20:0 29 20] [10] 4 2
s 65.484274326 _16_ AGT  --- 1066 cbr 512 [0 0 0 0] ------- [16:0 17:0 32 0] [12] 0 1
r 65.496032085 _17_ AGT  --- 1066 cbr 532 [13a 11 a 800] ------- [16:0 17:0 31 17] [12] 2 1
s 66.539075208 _9_ AGT  --- 1067 cbr 512 [0 0 0 0] ------- [9:2 11:0 32 0] [9] 0 2
r 66.556654482 _11_ AGT  --- 1067 cbr 532 [13a b 11 800] ------- [9:2 11:0 30 11] [9] 3 2
s 66.712032075 _12_ AGT  --- 1068 cbr 512 [0 0 0 0] ------- [12:2 14:0 32 0] [6] 0 2
r 66.723950801 _14_ AGT  --- 1068 cbr 532 [13a e 2b 800] ------- [12:2 14:0 31 14] [6] 2 2
s 66.770973530 _13_ AGT  --- 1069 cbr 512 [0 0 0 0] ------- [13:2 14:1 32 0] [9] 0 3
D 66.770973530 _13_ RTR  IFQ 639 cbr 532 [0 0 0 0] ------- [13:2 14:1 32 0] [4] 0 3
s 67.368473638 _8_ AGT  --- 1070 cbr 512 [0 0 0 0] ------- [8:1 10:0 32 0] [7] 0 2
D 67.368473638 _8_ RTR  IFQ 637 cbr 532 [0 0 0 0] ------- [8:1 10:0 32 0] [2] 0 2
s 67.469601611 _18_ AGT  --- 1071 cbr 512 [0 0 0 0] ------- [18:1 20:0 32 0] [11] 0 2
r 67.493962220 _20_ AGT  --- 1071 cbr 532 [13a 14 2a 800] ------- [18:1 20:0 29 20] [11] 4 2
s 69.263107937 _16_ AGT  --- 1072 cbr 512 [0 0 0 0] ------- [16:0 17:0 32 0] [13] 0 1
r 69.274845697 _17_ AGT  --- 1072 cbr 532 [13a 11 a 800] ------- [16:0 17:0 31 17] [13] 2 1
s 70.338031382 _12_ AGT  --- 1073 cbr 512 [0 0 0 0] ------- [12:2 14:0 32 0] [7] 0 2
r 70.350010108 _14_ AGT  --- 1073 cbr 532 [13a e 2b 800] ------- [12:2 14:0 31 14] [7] 2 2
s 71.323018409 _9_ AGT  --- 1075 cbr 512 [0 0 0 0] ------- [9:2 11:0 32 0] [10] 0 2
r 71.341517683 _11_ AGT  --- 1075 cbr 532 [13a b 11 800] ------- [9:2 11:0 30 11] [10] 3 2
s 71.759109923 _13_ AGT  --- 1090 cbr 512 [0 0 0 0] ------- [13:2 14:1 32 0] [10] 0 3
D 71.759109923 _13_ RTR  IFQ 734 cbr 532 [0 0 0 0] ------- [13:2 14:1 32 0] [5] 0 3
s 73.109086052 _18_ AGT  --- 1155 cbr 512 [0 0 0 0] ------- [18:1 20:0 32 0] [12] 0 2
r 73.138730742 _20_ AGT  --- 1155 cbr 532 [13a 14 29 800] ------- [18:1 20:0 29 20] [12] 4 2
s 73.233536940 _8_ AGT  --- 1157 cbr 512 [0 0 0 0] ------- [8:1 10:0 32 0] [8] 0 2
D 73.233536940 _8_ RTR  IFQ 813 cbr 532 [0 0 0 0] ------- [8:1 10:0 32 0] [3] 0 2
s 74.117513540 _16_ AGT  --- 1205 cbr 512 [0 0 0 0] ------- [16:0 17:0 32 0] [14] 0 1
r 74.129451299 _17_ AGT  --- 1205 cbr 532 [13a 11 a 800] ------- [16:0 17:0 31 17] [14] 2 1
s 74.512582748 _12_ AGT  --- 1215 cbr 512 [0 0 0 0] ------- [12:2 14:0 32 0] [8] 0 2
r 74.524041474 _14_ AGT  --- 1215 cbr 532 [13a e 2b 800] ------- [12:2 14:0 31 14] [8] 2 2
s 75.240251002 _9_ AGT  --- 1239 cbr 512 [0 0 0 0] ------- [9:2 11:0 32 0] [11] 0 2
r 75.257910296 _11_ AGT  --- 1239 cbr 532 [13a b 11 800] ------- [9:2 11:0 30 11] [11] 3 2
s 75.477956243 _19_ AGT  --- 1244 cbr 512 [0 0 0 0] ------- [19:1 20:1 32 0] [0] 0 3
s 75.711855079 _8_ AGT  --- 1247 cbr 512 [0 0 0 0] ------- [8:1 10:0 32 0] [9] 0 2
D 75.711855079 _8_ RTR  IFQ 846 cbr 532 [0 0 0 0] ------- [8:1 10:0 32 0] [4] 0 2
s 77.001569218 _13_ AGT  --- 1270 cbr 512 [0 0 0 0] ------- [13:2 14:1 32 0] [11] 0 3
D 77.001569218 _13_ RTR  IFQ 845 cbr 532 [0 0 0 0] ------- [13:2 14:1 32 0] [6] 0 3
s 77.682290703 _18_ AGT  --- 1271 cbr 512 [0 0 0 0] ------- [18:1 20:0 32 0] [13] 0 2
r 77.706051087 _20_ AGT  --- 1271 cbr 532 [13a 14 29 800] ------- [18:1 20:0 29 20] [13] 4 2
s 78.571763795 _16_ AGT  --- 1272 cbr 512 [0 0 0 0] ------- [16:0 17:0 32 0] [15] 0 1
r 78.583621555 _17_ AGT  --- 1272 cbr 532 [13a 11 a 800] ------- [16:0 17:0 31 17] [15] 2 1
s 79.371595438 _2_ AGT  --- 1273 cbr 512 [0 0 0 0] ------- [2:1 3:1 32 0] [0] 0 3
s 79.401093942 _8_ AGT  --- 1274 cbr 512 [0 0 0 0] ------- [8:1 10:0 32 0] [10] 0 2
D 79.401093942 _8_ RTR  IFQ 853 cbr 532 [0 0 0 0] ------- [8:1 10:0 32 0] [5] 0 2
r 79.416116149 _3_ AGT  --- 1273 cbr 532 [13a 3 4 800] ------- [2:1 3:1 27 3] [0] 6 3
s 79.594906808 _12_ AGT  --- 1275 cbr 512 [0 0 0 0] ------- [12:2 14:0 32 0] [9] 0 2
r 79.606545534 _14_ AGT  --- 1275 cbr 532 [13a e 2b 800] ------- [12:2 14:0 31 14] [9] 2 2
s 79.720889173 _13_ AGT  --- 1276 cbr 512 [0 0 0 0] ------- [13:2 14:1 32 0] [12] 0 3
D 79.720889173 _13_ RTR  IFQ 850 cbr 532 [0 0 0 0] ------- [13:2 14:1 32 0] [7] 0 3
s 80.689071621 _9_ AGT  --- 1277 cbr 512 [0 0 0 0] ------- [9:2 11:0 32 0] [12] 0 2
r 80.706950914 _11_ AGT  --- 1277 cbr 532 [13a b 11 800] ------- [9:2 11:0 30 11] [12] 3 2
s 81.187163502 _19_ AGT  --- 1278 cbr 512 [0 0 0 0] ------- [19:1 20:1 32 0] [1] 0 3
s 81.620382692 _16_ AGT  --- 1279 cbr 512 [0 0 0 0] ------- [16:0 17:0 32 0] [16] 0 1
r 81.631800451 _17_ AGT  --- 1279 cbr 532 [13a 11 a 800] ------- [16:0 17:0 31 17] [16] 2 1
s 81.986488480 _18_ AGT  --- 1280 cbr 512 [0 0 0 0] ------- [18:1 20:0 32 0] [14] 0 2
r 82.011068865 _20_ AGT  --- 1280 cbr 532 [13a 14 29 800] ------- [18:1 20:0 29 20] [14] 4 2
s 82.180896999 _12_ AGT  --- 1281 cbr 512 [0 0 0 0] ------- [12:2 14:0 32 0] [10] 0 2
r 82.193115725 _14_ AGT  --- 1281 cbr 532 [13a e 2b 800] ------- [12:2 14:0 31 14] [10] 2 2
s 82.727849764 _9_ AGT  --- 1286 cbr 512 [0 0 0 0] ------- [9:2 11:0 32 0] [13] 0 2
r 82.746209057 _11_ AGT  --- 1286 cbr 532 [13a b 11 800] ------- [9:2 11:0 30 11] [13] 3 2
s 83.135214558 _8_ AGT  --- 1288 cbr 512 [0 0 0 0] ------- [8:1 10:0 32 0] [11] 0 2
D 83.135214558 _8_ RTR  IFQ 991 cbr 532 [0 0 0 0] ------- [8:1 10:0 32 0] [6] 0 2
D 83.400685035 _3_ IFQ  ARP 948 cbr 552 [13a 3 3 800] ------- [13:2 14:1 31 4] [8] 1 3
D 83.407664371 _3_ IFQ  ARP 1069 cbr 552 [13a 3 3 800] ------- [13:2 14:1 31 4] [9] 1 3
D 83.465281307 _29_ IFQ  ARP 1090 cbr 552 [13a 1d 1d 800] ------- [13:2 14:1 28 14] [10] 4 3
r 83.474410248 _14_ AGT  --- 1270 cbr 552 [13a e 1d 800] ------- [13:2 14:1 28 14] [11] 5 3
r 83.498466075 _14_ AGT  --- 1276 cbr 552 [13a e 1d 800] ------- [13:2 14:1 28 14] [12] 5 3
s 83.602217233 _18_ AGT  --- 1307 cbr 512 [0 0 0 0] ------- [18:0 19:0 32 0] [0] 0 3
s 83.644134711 _20_ AGT  --- 1308 cbr 512 [0 0 0 0] ------- [20:2 21:0 32 0] [0] 0 1
r 83.647297276 _19_ AGT  --- 1307 cbr 532 [13a 13 2d 800] ------- [18:0 19:0 27 19] [0] 6 3
r 83.659525847 _21_ AGT  --- 1308 cbr 532 [13a 15 2a 800] ------- [20:2 21:0 31 21] [0] 2 1
s 84.130662725 _16_ AGT  --- 1325 cbr 512 [0 0 0 0] ------- [16:0 17:0 32 0] [17] 0 1
r 84.142081071 _17_ AGT  --- 1325 cbr 532 [13a 11 22 800] ------- [16:0 17:0 31 17] [17] 2 1
s 84.293507175 _13_ AGT  --- 1331 cbr 512 [0 0 0 0] ------- [13:2 14:1 32 0] [13] 0 3
s 84.295192396 _19_ AGT  --- 1332 cbr 512 [0 0 0 0] ------- [19:1 20:1 32 0] [2] 0 3
r 84.323669460 _14_ AGT  --- 1331 cbr 532 [13a e 1d 800] ------- [13:2 14:1 28 14] [13] 5 3
s 85.006860556 _2_ AGT  --- 1362 cbr 512 [0 0 0 0] ------- [2:1 3:1 32 0] [1] 0 3
r 85.043443922 _3_ AGT  --- 1362 cbr 532 [13a 3 4 800] ------- [2:1 3:1 27 3] [1] 6 3
s 86.514636145 _12_ AGT  --- 1421 cbr 512 [0 0 0 0] ------- [12:2 14:0 32 0] [11] 0 2
r 86.526874872 _14_ AGT  --- 1421 cbr 532 [13a e 2b 800] ------- [12:2 14:0 31 14] [11] 2 2
s 86.650812383 _18_ AGT  --- 1423 cbr 512 [0 0 0 0] ------- [18:0 19:0 32 0] [1] 0 3
r 86.686455017 _19_ AGT  --- 1423 cbr 532 [13a 13 2d 800] ------- [18:0 19:0 27 19] [1] 6 3
s 86.968752254 _18_ AGT  --- 1432 cbr 512 [0 0 0 0] ------- [18:1 20:0 32 0] [15] 0 2
r 86.998037931 _20_ AGT  --- 1432 cbr 532 [13a 14 2a 800] ------- [18:1 20:0 29 20] [15] 4 2
s 87.755463345 _8_ AGT  --- 1443 cbr 512 [0 0 0 0] ------- [8:1 10:0 32 0] [12] 0 2
D 87.755463345 _8_ RTR  IFQ 1070 cbr 532 [0 0 0 0] ------- [8:1 10:0 32 0] [7] 0 2
s 87.978308721 _9_ AGT  --- 1447 cbr 512 [0 0 0 0] ------- [9:2 11:0 32 0] [14] 0 2
r 87.996548015 _11_ AGT  --- 1447 cbr 532 [13a b 11 800] ------- [9:2 11:0 30 11] [14] 3 2
s 88.448281211 _16_ AGT  --- 1456 cbr 512 [0 0 0 0] ------- [16:0 17:0 32 0] [18] 0 1
r 88.460359557 _17_ AGT  --- 1456 cbr 532 [13a 11 22 800] ------- [16:0 17:0 31 17] [18] 2 1
s 88.582043190 _19_ AGT  --- 1457 cbr 512 [0 0 0 0] ------- [19:1 20:1 32 0] [3] 0 3
s 88.866501836 _2_ AGT  --- 1458 cbr 512 [0 0 0 0] ------- [2:1 3:1 32 0] [2] 0 3
r 88.902405202 _3_ AGT  --- 1458 cbr 532 [13a 3 4 800] ------- [2:1 3:1 27 3] [2] 6 3
s 89.084887884 _13_ AGT  --- 1462 cbr 512 [0 0 0 0] ------- [13:2 14:1 32 0] [14] 0 3
r 89.114250169 _14_ AGT  --- 1462 cbr 532 [13a e 1d 800] ------- [13:2 14:1 28 14] [14] 5 3
s 89.497690530 _20_ AGT  --- 1465 cbr 512 [0 0 0 0] ------- [20:2 21:0 32 0] [1] 0 1
r 89.509708924 _21_ AGT  --- 1465 cbr 532 [13a 15 2a 800] ------- [20:2 21:0 31 21] [1] 2 1
s 89.666714108 _12_ AGT  --- 1466 cbr 512 [0 0 0 0] ------- [12:2 14:0 32 0] [12] 0 2
r 89.678552834 _14_ AGT  --- 1466 cbr 532 [13a e 2b 800] ------- [12:2 14:0 31 14] [12] 2 2
s 89.884338607 _18_ AGT  --- 1467 cbr 512 [0 0 0 0] ------- [18:1 20:0 32 0] [16] 0 2
r 89.908499265 _20_ AGT  --- 1467 cbr 532 [13a 14 2a 800] ------- [18:1 20:0 29 20] [16] 4 2
s 91.490635013 _18_ AGT  --- 1468 cbr 512 [0 0 0 0] ------- [18:0 19:0 32 0] [2] 0 3
r 91.526397647 _19_ AGT  --- 1468 cbr 532 [13a 13 2d 800] ------- [18:0 19:0 27 19] [2] 6 3
s 91.607774713 _2_ AGT  --- 1469 cbr 512 [0 0 0 0] ------- [2:1 3:1 32 0] [3] 0 3
r 91.643338079 _3_ AGT  --- 1469 cbr 532 [13a 3 4 800] ------- [2:1 3:1 27 3] [3] 6 3
s 91.862745867 _16_ AGT  --- 1470 cbr 512 [0 0 0 0] ------- [16:0 17:0 32 0] [19] 0 1
r 91.874784213 _17_ AGT  --- 1470 cbr 532 [13a 11 22 800] ------- [16:0 17:0 31 17] [19] 2 1
s 92.251124282 _18_ AGT  --- 1471 cbr 512 [0 0 0 0] ------- [18:1 20:0 32 0] [17] 0 2
r 92.274684941 _20_ AGT  --- 1471 cbr 532 [13a 14 2a 800] ------- [18:1 20:0 29 20] [17] 4 2
s 92.706701697 _9_ AGT  --- 1472 cbr 512 [0 0 0 0] ------- [9:2 11:0 32 0] [15] 0 2
r 92.724480991 _11_ AGT  --- 1472 cbr 532 [13a b 11 800] ------- [9:2 11:0 30 11] [15] 3 2
s 92.907636668 _13_ AGT  --- 1473 cbr 512 [0 0 0 0] ------- [13:2 14:1 32 0] [15] 0 3
r 92.937598953 _14_ AGT  --- 1473 cbr 532 [13a e 1d 800] ------- [13:2 14:1 28 14] [15] 5 3
s 93.241946465 _20_ AGT  --- 1474 cbr 512 [0 0 0 0] ------- [20:2 21:0 32 0] [2] 0 1
r 93.253884859 _21_ AGT  --- 1474 cbr 532 [13a 15 2a 800] ------- [20:2 21:0 31 21] [2] 2 1
s 93.406713141 _8_ AGT  --- 1475 cbr 512 [0 0 0 0] ------- [8:1 10:0 32 0] [13] 0 2
D 93.406713141 _8_ RTR  IFQ 1157 cbr 532 [0 0 0 0] ------- [8:1 10:0 32 0] [8] 0 2
s 93.929013047 _16_ AGT  --- 1476 cbr 512 [0 0 0 0] ------- [16:0 17:0 32 0] [20] 0 1
r 93.940851393 _17_ AGT  --- 1476 cbr 532 [13a 11 22 800] ------- [16:0 17:0 31 17] [20] 2 1
s 94.213474934 _19_ AGT  --- 1477 cbr 512 [0 0 0 0] ------- [19:1 20:1 32 0] [4] 0 3
s 94.776118842 _12_ AGT  --- 1486 cbr 512 [0 0 0 0] ------- [12:2 14:0 32 0] [13] 0 2
r 94.787737568 _14_ AGT  --- 1486 cbr 532 [13a e 2b 800] ------- [12:2 14:0 31 14] [13] 2 2
r 95.401674075 _10_ AGT  --- 1247 cbr 552 [13a a 16 800] ------- [8:1 10:0 28 10] [9] 5 2
r 95.440664478 _10_ AGT  --- 1274 cbr 552 [13a a 16 800] ------- [8:1 10:0 28 10] [10] 5 2
r 95.468877593 _10_ AGT  --- 1288 cbr 552 [13a a 16 800] ------- [8:1 10:0 28 10] [11] 5 2
s 95.478590189 _18_ AGT  --- 1504 cbr 512 [0 0 0 0] ------- [18:0 19:0 32 0] [3] 0 3
r 95.488830169 _10_ AGT  --- 1443 cbr 552 [13a a 16 800] ------- [8:1 10:0 28 10] [12] 5 2
r 95.525326148 _19_ AGT  --- 1504 cbr 532 [13a 13 2d 800] ------- [18:0 19:0 27 19] [3] 6 3
r 95.526824724 _10_ AGT  --- 1475 cbr 552 [13a a 16 800] ------- [8:1 10:0 28 10] [13] 5 2
s 95.820277249 _18_ AGT  --- 1515 cbr 512 [0 0 0 0] ------- [18:1 20:0 32 0] [18] 0 2
s 95.838814603 _2_ AGT  --- 1523 cbr 512 [0 0 0 0] ------- [2:1 3:1 32 0] [4] 0 3
r 95.843917907 _20_ AGT  --- 1515 cbr 532 [13a 14 2a 800] ------- [18:1 20:0 29 20] [18] 4 2
r 95.878191109 _3_ AGT  --- 1523 cbr 532 [13a 3 4 800] ------- [2:1 3:1 27 3] [4] 6 3
s 96.020607735 _9_ AGT  --- 1524 cbr 512 [0 0 0 0] ------- [9:2 11:0 32 0] [16] 0 2
r 96.038647009 _11_ AGT  --- 1524 cbr 532 [13a b 11 800] ------- [9:2 11:0 30 11] [16] 3 2
s 96.552146987 _19_ AGT  --- 1544 cbr 512 [0 0 0 0] ------- [19:1 20:1 32 0] [5] 0 3
D 96.552146987 _19_ RTR  IFQ 1244 cbr 532 [0 0 0 0] ------- [19:1 20:1 32 0] [0] 0 3
s 96.895326674 _8_ AGT  --- 1556 cbr 512 [0 0 0 0] ------- [8:1 10:0 32 0] [14] 0 2
r 96.925027635 _10_ AGT  --- 1556 cbr 532 [13a a 16 800] ------- [8:1 10:0 28 10] [14] 5 2
s 97.429733242 _13_ AGT  --- 1579 cbr 512 [0 0 0 0] ------- [13:2 14:1 32 0] [16] 0 3
s 97.450467996 _12_ AGT  --- 1580 cbr 512 [0 0 0 0] ------- [12:2 14:0 32 0] [14] 0 2
r 97.473064597 _14_ AGT  --- 1579 cbr 532 [13a e 16 800] ------- [13:2 14:1 28 14] [16] 5 3
r 97.488456495 _14_ AGT  --- 1580 cbr 532 [13a e 2b 800] ------- [12:2 14:0 31 14] [14] 2 2
s 97.798647850 _16_ AGT  --- 1587 cbr 512 [0 0 0 0] ------- [16:0 17:0 32 0] [21] 0 1
r 97.810445609 _17_ AGT  --- 1587 cbr 532 [13a 11 a 800] ------- [16:0 17:0 31 17] [21] 2 1
s 97.995299224 _20_ AGT  --- 1592 cbr 512 [0 0 0 0] ------- [20:2 21:0 32 0] [3] 0 1
r 98.007437618 _21_ AGT  --- 1592 cbr 532 [13a 15 2a 800] ------- [20:2 21:0 31 21] [3] 2 1
s 98.712258635 _18_ AGT  --- 1615 cbr 512 [0 0 0 0] ------- [18:1 20:0 32 0] [19] 0 2
r 98.730398163 _20_ AGT  --- 1615 cbr 532 [13a 14 2a 800] ------- [18:1 20:0 30 20] [19] 3 2
s 98.769349941 _2_ AGT  --- 1616 cbr 512 [0 0 0 0] ------- [2:1 3:1 32 0] [5] 0 3
r 98.805033751 _3_ AGT  --- 1616 cbr 532 [13a 3 4 800] ------- [2:1 3:1 27 3] [5] 6 3
s 99.893919012 _16_ AGT  --- 1633 cbr 512 [0 0 0 0] ------- [16:0 17:0 32 0] [22] 0 1
r 99.906116771 _17_ AGT  --- 1633 cbr 532 [13a 11 a 800] ------- [16:0 17:0 31 17] [22] 2 1
s 100.509981713 _12_ AGT  --- 1641 cbr 512 [0 0 0 0] ------- [12:2 14:0 32 0] [15] 0 2
r 100.521800439 _14_ AGT  --- 1641 cbr 532 [13a e 2b 800] ------- [12:2 14:0 31 14] [15] 2 2
s 100.748390007 _18_ AGT  --- 1644 cbr 512 [0 0 0 0] ------- [18:0 19:0 32 0] [4] 0 3
r 100.784332641 _19_ AGT  --- 1644 cbr 532 [13a 13 2d 800] ------- [18:0 19:0 27 19] [4] 6 3
s 100.833000694 _19_ AGT  --- 1645 cbr 512 [0 0 0 0] ------- [19:1 20:1 32 0] [6] 0 3
D 100.833000694 _19_ RTR  IFQ 1278 cbr 532 [0 0 0 0] ------- [19:1 20:1 32 0] [1] 0 3
s 101.076168468 _20_ AGT  --- 1646 cbr 512 [0 0 0 0] ------- [20:2 21:0 32 0] [4] 0 1
r 101.087786862 _21_ AGT  --- 1646 cbr 532 [13a 15 2a 800] ------- [20:2 21:0 31 21] [4] 2 1
s 101.110385871 _9_ AGT  --- 1647 cbr 512 [0 0 0 0] ------- [9:2 11:0 32 0] [17] 0 2
r 101.128625146 _11_ AGT  --- 1647 cbr 532 [13a b 11 800] ------- [9:2 11:0 30 11] [17] 3 2
s 101.181324535 _2_ AGT  --- 1648 cbr 512 [0 0 0 0] ------- [2:1 3:1 32 0] [6] 0 3
r 101.217108345 _3_ AGT  --- 1648 cbr 532 [13a 3 4 800] ------- [2:1 3:1 27 3] [6] 6 3
s 101.792391604 _18_ AGT  --- 1649 cbr 512 [0 0 0 0] ------- [18:1 20:0 32 0] [20] 0 2
r 101.810211132 _20_ AGT  --- 1649 cbr 532 [13a 14 2a 800] ------- [18:1 20:0 30 20] [20] 3 2
s 102.702444150 _8_ AGT  --- 1650 cbr 512 [0 0 0 0] ------- [8:1 10:0 32 0] [15] 0 2
r 102.732665111 _10_ AGT  --- 1650 cbr 532 [13a a 16 800] ------- [8:1 10:0 28 10] [15] 5 2
s 103.377285224 _13_ AGT  --- 1652 cbr 512 [0 0 0 0] ------- [13:2 14:1 32 0] [17] 0 3
r 103.407967220 _14_ AGT  --- 1652 cbr 532 [13a e 16 800] ------- [13:2 14:1 28 14] [17] 5 3
s 103.438383824 _16_ AGT  --- 1653 cbr 512 [0 0 0 0] ------- [16:0 17:0 32 0] [23] 0 1
r 103.450241583 _17_ AGT  --- 1653 cbr 532 [13a 11 a 800] ------- [16:0 17:0 31 17] [23] 2 1
s 103.684951782 _12_ AGT  --- 1654 cbr 512 [0 0 0 0] ------- [12:2 14:0 32 0] [16] 0 2
r 103.696610508 _14_ AGT  --- 1654 cbr 532 [13a e 2b 800] ------- [12:2 14:0 31 14] [16] 2 2
s 105.373317555 _2_ AGT  --- 1655 cbr 512 [0 0 0 0] ------- [2:1 3:1 32 0] [7] 0 3
r 105.409021365 _3_ AGT  --- 1655 cbr 532 [13a 3 4 800] ------- [2:1 3:1 27 3] [7] 6 3
s 105.705166869 _18_ AGT  --- 1656 cbr 512 [0 0 0 0] ------- [18:0 19:0 32 0] [5] 0 3
r 105.740489503 _19_ AGT  --- 1656 cbr 532 [13a 13 2d 800] ------- [18:0 19:0 27 19] [5] 6 3
s 106.083234244 _12_ AGT  --- 1657 cbr 512 [0 0 0 0] ------- [12:1 13:1 32 0] [0] 0 2
s 106.114266950 _16_ AGT  --- 1658 cbr 512 [0 0 0 0] ------- [16:0 17:0 32 0] [24] 0 1
r 106.123049504 _13_ AGT  --- 1657 cbr 532 [13a d 30 800] ------- [12:1 13:1 27 13] [0] 6 2
r 106.125784710 _17_ AGT  --- 1658 cbr 532 [13a 11 a 800] ------- [16:0 17:0 31 17] [24] 2 1
s 106.242282356 _9_ AGT  --- 1660 cbr 512 [0 0 0 0] ------- [9:2 11:0 32 0] [18] 0 2
r 106.260121630 _11_ AGT  --- 1660 cbr 532 [13a b 11 800] ------- [9:2 11:0 30 11] [18] 3 2
s 106.677463548 _19_ AGT  --- 1671 cbr 512 [0 0 0 0] ------- [19:1 20:1 32 0] [7] 0 3
D 106.677463548 _19_ RTR  IFQ 1332 cbr 532 [0 0 0 0] ------- [19:1 20:1 32 0] [2] 0 3
s 106.730971315 _20_ AGT  --- 1672 cbr 512 [0 0 0 0] ------- [20:2 21:0 32 0] [5] 0 1
r 106.742829709 _21_ AGT  --- 1672 cbr 532 [13a 15 2a 800] ------- [20:2 21:0 31 21] [5] 2 1
s 107.135542203 _18_ AGT  --- 1679 cbr 512 [0 0 0 0] ------- [18:1 20:0 32 0] [21] 0 2
r 107.152701731 _20_ AGT  --- 1679 cbr 532 [13a 14 2a 800] ------- [18:1 20:0 30 20] [21] 3 2
s 107.844800781 _8_ AGT  --- 1699 cbr 512 [0 0 0 0] ------- [8:1 10:0 32 0] [16] 0 2
r 107.875121741 _10_ AGT  --- 1699 cbr 532 [13a a 16 800] ------- [8:1 10:0 28 10] [16] 5 2
s 108.078039977 _13_ AGT  --- 1705 cbr 512 [0 0 0 0] ------- [13:2 14:1 32 0] [18] 0 3
r 108.107701532 _14_ AGT  --- 1705 cbr 532 [13a e 16 800] ------- [13:2 14:1 28 14] [18] 5 3
s 108.472493322 _18_ AGT  --- 1714 cbr 512 [0 0 0 0] ------- [18:0 19:0 32 0] [6] 0 3
r 108.508455955 _19_ AGT  --- 1714 cbr 532 [13a 13 2d 800] ------- [18:0 19:0 27 19] [6] 6 3
s 108.849461420 _16_ AGT  --- 1726 cbr 512 [0 0 0 0] ------- [16:0 17:0 32 0] [25] 0 1
r 108.861139180 _17_ AGT  --- 1726 cbr 532 [13a 11 a 800] ------- [16:0 17:0 31 17] [25] 2 1
s 109.017060624 _12_ AGT  --- 1730 cbr 512 [0 0 0 0] ------- [12:2 14:0 32 0] [17] 0 2
r 109.029259350 _14_ AGT  --- 1730 cbr 532 [13a e 2b 800] ------- [12:2 14:0 31 14] [17] 2 2
s 110.002748947 _2_ AGT  --- 1762 cbr 512 [0 0 0 0] ------- [2:1 3:1 32 0] [8] 0 3
r 110.038432757 _3_ AGT  --- 1762 cbr 532 [13a 3 4 800] ------- [2:1 3:1 27 3] [8] 6 3
s 110.052417605 _11_ AGT  --- 1769 cbr 512 [0 0 0 0] ------- [11:3 13:0 32 0] [0] 0 3
r 110.091013398 _13_ AGT  --- 1769 cbr 532 [13a d 3 800] ------- [11:3 13:0 27 13] [0] 6 3
s 110.301206284 _19_ AGT  --- 1770 cbr 512 [0 0 0 0] ------- [19:1 20:1 32 0] [8] 0 3
D 110.301206284 _19_ RTR  IFQ 1457 cbr 532 [0 0 0 0] ------- [19:1 20:1 32 0] [3] 0 3
s 110.638497463 _13_ AGT  --- 1775 cbr 512 [0 0 0 0] ------- [13:2 14:1 32 0] [19] 0 3
r 110.668099018 _14_ AGT  --- 1775 cbr 532 [13a e 16 800] ------- [13:2 14:1 28 14] [19] 5 3
s 110.836048911 _9_ AGT  --- 1778 cbr 512 [0 0 0 0] ------- [9:2 11:0 32 0] [19] 0 2
r 110.860209436 _11_ AGT  --- 1778 cbr 532 [13a b 11 800] ------- [9:2 11:0 29 11] [19] 4 2
s 110.919196255 _16_ AGT  --- 1780 cbr 512 [0 0 0 0] ------- [16:0 17:0 32 0] [26] 0 1
r 110.930774014 _17_ AGT  --- 1780 cbr 532 [13a 11 a 800] ------- [16:0 17:0 31 17] [26] 2 1
s 110.943168246 _20_ AGT  --- 1781 cbr 512 [0 0 0 0] ------- [20:2 21:0 32 0] [6] 0 1
r 110.954926640 _21_ AGT  --- 1781 cbr 532 [13a 15 2a 800] ------- [20:2 21:0 31 21] [6] 2 1
s 111.121529613 _18_ AGT  --- 1785 cbr 512 [0 0 0 0] ------- [18:0 19:0 32 0] [7] 0 3
r 111.157032247 _19_ AGT  --- 1785 cbr 532 [13a 13 2d 800] ------- [18:0 19:0 27 19] [7] 6 3
s 111.219811311 _12_ AGT  --- 1787 cbr 512 [0 0 0 0] ------- [12:1 13:1 32 0] [1] 0 2
r 111.254934809 _13_ AGT  --- 1787 cbr 532 [13a d 3 800] ------- [12:1 13:1 27 13] [1] 6 2
s 111.975743454 _18_ AGT  --- 1795 cbr 512 [0 0 0 0] ------- [18:1 20:0 32 0] [22] 0 2
r 111.993682982 _20_ AGT  --- 1795 cbr 532 [13a 14 2a 800] ------- [18:1 20:0 30 20] [22] 3 2
s 112.155069234 _11_ AGT  --- 1796 cbr 512 [0 0 0 0] ------- [11:3 13:0 32 0] [1] 0 3
r 112.191072692 _13_ AGT  --- 1796 cbr 532 [13a d 3 800] ------- [11:3 13:0 27 13] [1] 6 3
s 112.737846390 _13_ AGT  --- 1802 cbr 512 [0 0 0 0] ------- [13:2 14:1 32 0] [20] 0 3
r 112.768227945 _14_ AGT  --- 1802 cbr 532 [13a e 16 800] ------- [13:2 14:1 28 14] [20] 5 3
s 112.855260293 _8_ AGT  --- 1803 cbr 512 [0 0 0 0] ------- [8:1 10:0 32 0] [17] 0 2
r 112.885961254 _10_ AGT  --- 1803 cbr 532 [13a a 16 800] ------- [8:1 10:0 28 10] [17] 5 2
s 113.814097885 _12_ AGT  --- 1804 cbr 512 [0 0 0 0] ------- [12:1 13:1 32 0] [2] 0 2
r 113.850561383 _13_ AGT  --- 1804 cbr 532 [13a d 3 800] ------- [12:1 13:1 27 13] [2] 6 2
s 114.373754015 _16_ AGT  --- 1805 cbr 512 [0 0 0 0] ------- [16:0 17:0 32 0] [27] 0 1
r 114.385411774 _17_ AGT  --- 1805 cbr 532 [13a 11 a 800] ------- [16:0 17:0 31 17] [27] 2 1
s 114.523330007 _12_ AGT  --- 1807 cbr 512 [0 0 0 0] ------- [12:2 14:0 32 0] [18] 0 2
r 114.535248733 _14_ AGT  --- 1807 cbr 532 [13a e 2b 800] ------- [12:2 14:0 31 14] [18] 2 2
s 114.685501683 _18_ AGT  --- 1808 cbr 512 [0 0 0 0] ------- [18:1 20:0 32 0] [23] 0 2
r 114.704141211 _20_ AGT  --- 1808 cbr 532 [13a 14 2a 800] ------- [18:1 20:0 30 20] [23] 3 2
s 114.791765443 _2_ AGT  --- 1809 cbr 512 [0 0 0 0] ------- [2:1 3:1 32 0] [9] 0 3
s 114.827975665 _9_ AGT  --- 1810 cbr 512 [0 0 0 0] ------- [9:2 11:0 32 0] [20] 0 2
r 114.828009253 _3_ AGT  --- 1809 cbr 532 [13a 3 4 800] ------- [2:1 3:1 27 3] [9] 6 3
r 114.852096190 _11_ AGT  --- 1810 cbr 532 [13a b 11 800] ------- [9:2 11:0 29 11] [20] 4 2
s 114.870793251 _20_ AGT  --- 1811 cbr 512 [0 0 0 0] ------- [20:2 21:0 32 0] [7] 0 1
r 114.882691645 _21_ AGT  --- 1811 cbr 532 [13a 15 2a 800] ------- [20:2 21:0 31 21] [7] 2 1
s 115.017961989 _19_ AGT  --- 1812 cbr 512 [0 0 0 0] ------- [19:1 20:1 32 0] [9] 0 3
D 115.017961989 _19_ RTR  IFQ 1477 cbr 532 [0 0 0 0] ------- [19:1 20:1 32 0] [4] 0 3
s 115.176799836 _18_ AGT  --- 1813 cbr 512 [0 0 0 0] ------- [18:0 19:0 32 0] [8] 0 3
r 115.212922470 _19_ AGT  --- 1813 cbr 532 [13a 13 2d 800] ------- [18:0 19:0 27 19] [8] 6 3