+ 0.5 0 2 tcp 40 ------- 0 0.1 1.2 0 0
- 0.5 0 2 tcp 40 ------- 0 0.1 1.2 0 0
+ 0.5 1 2 tcp 40 ------- 1 1.1 3.1 0 1
- 0.5 1 2 tcp 40 ------- 1 1.1 3.1 0 1
r 0.51032 0 2 tcp 40 ------- 0 0.1 1.2 0 0
+ 0.51032 2 4 tcp 40 ------- 0 0.1 1.2 0 0
- 0.51032 2 4 tcp 40 ------- 0 0.1 1.2 0 0
r 0.51032 1 2 tcp 40 ------- 1 1.1 3.1 0 1
+ 0.51032 2 3 tcp 40 ------- 1 1.1 3.1 0 1
- 0.51032 2 3 tcp 40 ------- 1 1.1 3.1 0 1
r 0.52064 2 4 tcp 40 ------- 0 0.1 1.2 0 0
+ 0.52064 4 3 tcp 40 ------- 0 0.1 1.2 0 0
- 0.52064 4 3 tcp 40 ------- 0 0.1 1.2 0 0
r 0.52064 2 3 tcp 40 ------- 1 1.1 3.1 0 1
+ 0.52064 3 1 ack 40 ------- 1 3.1 1.1 0 2
- 0.52064 3 1 ack 40 ------- 1 3.1 1.1 0 2
r 0.53096 4 3 tcp 40 ------- 0 0.1 1.2 0 0
+ 0.53096 3 1 tcp 40 ------- 0 0.1 1.2 0 0
- 0.53096 3 1 tcp 40 ------- 0 0.1 1.2 0 0
r 0.53096 3 1 ack 40 ------- 1 3.1 1.1 0 2
+ 0.53096 1 2 tcp 1000 ------- 1 1.1 3.1 1 3
- 0.53096 1 2 tcp 1000 ------- 1 1.1 3.1 1 3
+ 0.53096 1 2 tcp 1000 ------- 1 1.1 3.1 2 4
- 0.53896 1 2 tcp 1000 ------- 1 1.1 3.1 2 4
r 0.54128 3 1 tcp 40 ------- 0 0.1 1.2 0 0
+ 0.54128 1 2 ack 40 ------- 0 1.2 0.1 0 5
- 0.54696 1 2 ack 40 ------- 0 1.2 0.1 0 5
r 0.54896 1 2 tcp 1000 ------- 1 1.1 3.1 1 3
+ 0.54896 2 3 tcp 1000 ------- 1 1.1 3.1 1 3
- 0.54896 2 3 tcp 1000 ------- 1 1.1 3.1 1 3
r 0.55696 1 2 tcp 1000 ------- 1 1.1 3.1 2 4
+ 0.55696 2 3 tcp 1000 ------- 1 1.1 3.1 2 4
- 0.55696 2 3 tcp 1000 ------- 1 1.1 3.1 2 4
r 0.55728 1 2 ack 40 ------- 0 1.2 0.1 0 5
+ 0.55728 2 0 ack 40 ------- 0 1.2 0.1 0 5
- 0.55728 2 0 ack 40 ------- 0 1.2 0.1 0 5
r 0.56696 2 3 tcp 1000 ------- 1 1.1 3.1 1 3
+ 0.56696 3 1 ack 40 ------- 1 3.1 1.1 1 6
- 0.56696 3 1 ack 40 ------- 1 3.1 1.1 1 6
r 0.5676 2 0 ack 40 ------- 0 1.2 0.1 0 5
+ 0.5676 0 2 tcp 1000 ------- 0 0.1 1.2 1 7
- 0.5676 0 2 tcp 1000 ------- 0 0.1 1.2 1 7
+ 0.5676 0 2 tcp 1000 ------- 0 0.1 1.2 2 8
r 0.57496 2 3 tcp 1000 ------- 1 1.1 3.1 2 4
+ 0.57496 3 1 ack 40 ------- 1 3.1 1.1 2 9
- 0.57496 3 1 ack 40 ------- 1 3.1 1.1 2 9
- 0.5756 0 2 tcp 1000 ------- 0 0.1 1.2 2 8
r 0.57728 3 1 ack 40 ------- 1 3.1 1.1 1 6
+ 0.57728 1 2 tcp 1000 ------- 1 1.1 3.1 3 10
- 0.57728 1 2 tcp 1000 ------- 1 1.1 3.1 3 10
+ 0.57728 1 2 tcp 1000 ------- 1 1.1 3.1 4 11
r 0.58528 3 1 ack 40 ------- 1 3.1 1.1 2 9
+ 0.58528 1 2 tcp 1000 ------- 1 1.1 3.1 5 12
+ 0.58528 1 2 tcp 1000 ------- 1 1.1 3.1 6 13
- 0.58528 1 2 tcp 1000 ------- 1 1.1 3.1 4 11
r 0.5856 0 2 tcp 1000 ------- 0 0.1 1.2 1 7
+ 0.5856 2 4 tcp 1000 ------- 0 0.1 1.2 1 7
- 0.5856 2 4 tcp 1000 ------- 0 0.1 1.2 1 7
- 0.59328 1 2 tcp 1000 ------- 1 1.1 3.1 5 12
r 0.5936 0 2 tcp 1000 ------- 0 0.1 1.2 2 8
+ 0.5936 2 4 tcp 1000 ------- 0 0.1 1.2 2 8
- 0.5936 2 4 tcp 1000 ------- 0 0.1 1.2 2 8
r 0.59528 1 2 tcp 1000 ------- 1 1.1 3.1 3 10
+ 0.59528 2 3 tcp 1000 ------- 1 1.1 3.1 3 10
- 0.59528 2 3 tcp 1000 ------- 1 1.1 3.1 3 10
- 0.60128 1 2 tcp 1000 ------- 1 1.1 3.1 6 13
r 0.60328 1 2 tcp 1000 ------- 1 1.1 3.1 4 11
+ 0.60328 2 3 tcp 1000 ------- 1 1.1 3.1 4 11
- 0.60328 2 3 tcp 1000 ------- 1 1.1 3.1 4 11
r 0.6036 2 4 tcp 1000 ------- 0 0.1 1.2 1 7
+ 0.6036 4 3 tcp 1000 ------- 0 0.1 1.2 1 7
- 0.6036 4 3 tcp 1000 ------- 0 0.1 1.2 1 7
r 0.61128 1 2 tcp 1000 ------- 1 1.1 3.1 5 12
+ 0.61128 2 3 tcp 1000 ------- 1 1.1 3.1 5 12
- 0.61128 2 3 tcp 1000 ------- 1 1.1 3.1 5 12
r 0.6116 2 4 tcp 1000 ------- 0 0.1 1.2 2 8
+ 0.6116 4 3 tcp 1000 ------- 0 0.1 1.2 2 8
- 0.6116 4 3 tcp 1000 ------- 0 0.1 1.2 2 8
r 0.61328 2 3 tcp 1000 ------- 1 1.1 3.1 3 10
+ 0.61328 3 1 ack 40 ------- 1 3.1 1.1 3 14
- 0.61328 3 1 ack 40 ------- 1 3.1 1.1 3 14
r 0.61928 1 2 tcp 1000 ------- 1 1.1 3.1 6 13
+ 0.61928 2 3 tcp 1000 ------- 1 1.1 3.1 6 13
- 0.61928 2 3 tcp 1000 ------- 1 1.1 3.1 6 13
r 0.62128 2 3 tcp 1000 ------- 1 1.1 3.1 4 11
+ 0.62128 3 1 ack 40 ------- 1 3.1 1.1 4 15
- 0.62128 3 1 ack 40 ------- 1 3.1 1.1 4 15
r 0.6216 4 3 tcp 1000 ------- 0 0.1 1.2 1 7
+ 0.6216 3 1 tcp 1000 ------- 0 0.1 1.2 1 7
- 0.6216 3 1 tcp 1000 ------- 0 0.1 1.2 1 7
r 0.6236 3 1 ack 40 ------- 1 3.1 1.1 3 14
+ 0.6236 1 2 tcp 1000 ------- 1 1.1 3.1 7 16
- 0.6236 1 2 tcp 1000 ------- 1 1.1 3.1 7 16
+ 0.6236 1 2 tcp 1000 ------- 1 1.1 3.1 8 17
r 0.62928 2 3 tcp 1000 ------- 1 1.1 3.1 5 12
+ 0.62928 3 1 ack 40 ------- 1 3.1 1.1 5 18
r 0.6296 4 3 tcp 1000 ------- 0 0.1 1.2 2 8
+ 0.6296 3 1 tcp 1000 ------- 0 0.1 1.2 2 8
- 0.6296 3 1 ack 40 ------- 1 3.1 1.1 5 18
- 0.62992 3 1 tcp 1000 ------- 0 0.1 1.2 2 8
r 0.6316 3 1 ack 40 ------- 1 3.1 1.1 4 15
+ 0.6316 1 2 tcp 1000 ------- 1 1.1 3.1 9 19
+ 0.6316 1 2 tcp 1000 ------- 1 1.1 3.1 10 20
- 0.6316 1 2 tcp 1000 ------- 1 1.1 3.1 8 17
r 0.63728 2 3 tcp 1000 ------- 1 1.1 3.1 6 13
+ 0.63728 3 1 ack 40 ------- 1 3.1 1.1 6 21
- 0.63792 3 1 ack 40 ------- 1 3.1 1.1 6 21
r 0.6396 3 1 tcp 1000 ------- 0 0.1 1.2 1 7
+ 0.6396 1 2 ack 40 ------- 0 1.2 0.1 1 22
- 0.6396 1 2 tcp 1000 ------- 1 1.1 3.1 9 19
r 0.63992 3 1 ack 40 ------- 1 3.1 1.1 5 18
+ 0.63992 1 2 tcp 1000 ------- 1 1.1 3.1 11 23
+ 0.63992 1 2 tcp 1000 ------- 1 1.1 3.1 12 24
r 0.6416 1 2 tcp 1000 ------- 1 1.1 3.1 7 16
+ 0.6416 2 3 tcp 1000 ------- 1 1.1 3.1 7 16
- 0.6416 2 3 tcp 1000 ------- 1 1.1 3.1 7 16
- 0.6476 1 2 tcp 1000 ------- 1 1.1 3.1 10 20
r 0.64792 3 1 tcp 1000 ------- 0 0.1 1.2 2 8
+ 0.64792 1 2 ack 40 ------- 0 1.2 0.1 2 25
r 0.64824 3 1 ack 40 ------- 1 3.1 1.1 6 21
+ 0.64824 1 2 tcp 1000 ------- 1 1.1 3.1 13 26
+ 0.64824 1 2 tcp 1000 ------- 1 1.1 3.1 14 27
r 0.6496 1 2 tcp 1000 ------- 1 1.1 3.1 8 17
+ 0.6496 2 3 tcp 1000 ------- 1 1.1 3.1 8 17
- 0.6496 2 3 tcp 1000 ------- 1 1.1 3.1 8 17
- 0.6556 1 2 ack 40 ------- 0 1.2 0.1 1 22
- 0.65592 1 2 tcp 1000 ------- 1 1.1 3.1 11 23
r 0.6576 1 2 tcp 1000 ------- 1 1.1 3.1 9 19
+ 0.6576 2 3 tcp 1000 ------- 1 1.1 3.1 9 19
- 0.6576 2 3 tcp 1000 ------- 1 1.1 3.1 9 19
r 0.6596 2 3 tcp 1000 ------- 1 1.1 3.1 7 16
+ 0.6596 3 1 ack 40 ------- 1 3.1 1.1 7 28
- 0.6596 3 1 ack 40 ------- 1 3.1 1.1 7 28
- 0.66392 1 2 tcp 1000 ------- 1 1.1 3.1 12 24
r 0.6656 1 2 tcp 1000 ------- 1 1.1 3.1 10 20
+ 0.6656 2 3 tcp 1000 ------- 1 1.1 3.1 10 20
- 0.6656 2 3 tcp 1000 ------- 1 1.1 3.1 10 20
r 0.66592 1 2 ack 40 ------- 0 1.2 0.1 1 22
+ 0.66592 2 0 ack 40 ------- 0 1.2 0.1 1 22
- 0.66592 2 0 ack 40 ------- 0 1.2 0.1 1 22
r 0.6676 2 3 tcp 1000 ------- 1 1.1 3.1 8 17
+ 0.6676 3 1 ack 40 ------- 1 3.1 1.1 8 29
- 0.6676 3 1 ack 40 ------- 1 3.1 1.1 8 29
r 0.66992 3 1 ack 40 ------- 1 3.1 1.1 7 28
+ 0.66992 1 2 tcp 1000 ------- 1 1.1 3.1 15 30
+ 0.66992 1 2 tcp 1000 ------- 1 1.1 3.1 16 31
- 0.67192 1 2 ack 40 ------- 0 1.2 0.1 2 25
- 0.67224 1 2 tcp 1000 ------- 1 1.1 3.1 13 26
r 0.67392 1 2 tcp 1000 ------- 1 1.1 3.1 11 23
+ 0.67392 2 3 tcp 1000 ------- 1 1.1 3.1 11 23
- 0.67392 2 3 tcp 1000 ------- 1 1.1 3.1 11 23
r 0.6756 2 3 tcp 1000 ------- 1 1.1 3.1 9 19
+ 0.6756 3 1 ack 40 ------- 1 3.1 1.1 9 32
- 0.6756 3 1 ack 40 ------- 1 3.1 1.1 9 32
r 0.67624 2 0 ack 40 ------- 0 1.2 0.1 1 22
+ 0.67624 0 2 tcp 1000 ------- 0 0.1 1.2 3 33
- 0.67624 0 2 tcp 1000 ------- 0 0.1 1.2 3 33
+ 0.67624 0 2 tcp 1000 ------- 0 0.1 1.2 4 34
r 0.67792 3 1 ack 40 ------- 1 3.1 1.1 8 29
+ 0.67792 1 2 tcp 1000 ------- 1 1.1 3.1 17 35
+ 0.67792 1 2 tcp 1000 ------- 1 1.1 3.1 18 36
- 0.68024 1 2 tcp 1000 ------- 1 1.1 3.1 14 27
r 0.68192 1 2 tcp 1000 ------- 1 1.1 3.1 12 24
+ 0.68192 2 3 tcp 1000 ------- 1 1.1 3.1 12 24
- 0.68192 2 3 tcp 1000 ------- 1 1.1 3.1 12 24
r 0.68224 1 2 ack 40 ------- 0 1.2 0.1 2 25
+ 0.68224 2 0 ack 40 ------- 0 1.2 0.1 2 25
- 0.68224 2 0 ack 40 ------- 0 1.2 0.1 2 25
r 0.6836 2 3 tcp 1000 ------- 1 1.1 3.1 10 20
+ 0.6836 3 1 ack 40 ------- 1 3.1 1.1 10 37
- 0.6836 3 1 ack 40 ------- 1 3.1 1.1 10 37
- 0.68424 0 2 tcp 1000 ------- 0 0.1 1.2 4 34
r 0.68592 3 1 ack 40 ------- 1 3.1 1.1 9 32
+ 0.68592 1 2 tcp 1000 ------- 1 1.1 3.1 19 38
+ 0.68592 1 2 tcp 1000 ------- 1 1.1 3.1 20 39
- 0.68824 1 2 tcp 1000 ------- 1 1.1 3.1 15 30
r 0.69024 1 2 tcp 1000 ------- 1 1.1 3.1 13 26
+ 0.69024 2 3 tcp 1000 ------- 1 1.1 3.1 13 26
- 0.69024 2 3 tcp 1000 ------- 1 1.1 3.1 13 26
r 0.69192 2 3 tcp 1000 ------- 1 1.1 3.1 11 23
+ 0.69192 3 1 ack 40 ------- 1 3.1 1.1 11 40
- 0.69192 3 1 ack 40 ------- 1 3.1 1.1 11 40
r 0.69256 2 0 ack 40 ------- 0 1.2 0.1 2 25
+ 0.69256 0 2 tcp 1000 ------- 0 0.1 1.2 5 41
- 0.69256 0 2 tcp 1000 ------- 0 0.1 1.2 5 41
+ 0.69256 0 2 tcp 1000 ------- 0 0.1 1.2 6 42
r 0.69392 3 1 ack 40 ------- 1 3.1 1.1 10 37
+ 0.69392 1 2 tcp 1000 ------- 1 1.1 3.1 21 43
+ 0.69392 1 2 tcp 1000 ------- 1 1.1 3.1 22 44
r 0.69424 0 2 tcp 1000 ------- 0 0.1 1.2 3 33
+ 0.69424 2 4 tcp 1000 ------- 0 0.1 1.2 3 33
- 0.69424 2 4 tcp 1000 ------- 0 0.1 1.2 3 33
- 0.69624 1 2 tcp 1000 ------- 1 1.1 3.1 16 31
r 0.69824 1 2 tcp 1000 ------- 1 1.1 3.1 14 27
+ 0.69824 2 3 tcp 1000 ------- 1 1.1 3.1 14 27
- 0.69824 2 3 tcp 1000 ------- 1 1.1 3.1 14 27
r 0.69992 2 3 tcp 1000 ------- 1 1.1 3.1 12 24
+ 0.69992 3 1 ack 40 ------- 1 3.1 1.1 12 45
- 0.69992 3 1 ack 40 ------- 1 3.1 1.1 12 45
- 0.70056 0 2 tcp 1000 ------- 0 0.1 1.2 6 42
r 0.70224 0 2 tcp 1000 ------- 0 0.1 1.2 4 34
+ 0.70224 2 4 tcp 1000 ------- 0 0.1 1.2 4 34
r 0.70224 3 1 ack 40 ------- 1 3.1 1.1 11 40
+ 0.70224 1 2 tcp 1000 ------- 1 1.1 3.1 23 46
+ 0.70224 1 2 tcp 1000 ------- 1 1.1 3.1 24 47
- 0.70224 2 4 tcp 1000 ------- 0 0.1 1.2 4 34
- 0.70424 1 2 tcp 1000 ------- 1 1.1 3.1 17 35
r 0.70624 1 2 tcp 1000 ------- 1 1.1 3.1 15 30
+ 0.70624 2 3 tcp 1000 ------- 1 1.1 3.1 15 30
- 0.70624 2 3 tcp 1000 ------- 1 1.1 3.1 15 30
r 0.70824 2 3 tcp 1000 ------- 1 1.1 3.1 13 26
+ 0.70824 3 1 ack 40 ------- 1 3.1 1.1 13 48
- 0.70824 3 1 ack 40 ------- 1 3.1 1.1 13 48
r 0.71024 3 1 ack 40 ------- 1 3.1 1.1 12 45
+ 0.71024 1 2 tcp 1000 ------- 1 1.1 3.1 25 49
+ 0.71024 1 2 tcp 1000 ------- 1 1.1 3.1 26 50
r 0.71056 0 2 tcp 1000 ------- 0 0.1 1.2 5 41
+ 0.71056 2 4 tcp 1000 ------- 0 0.1 1.2 5 41
- 0.71056 2 4 tcp 1000 ------- 0 0.1 1.2 5 41
r 0.71224 2 4 tcp 1000 ------- 0 0.1 1.2 3 33
+ 0.71224 4 3 tcp 1000 ------- 0 0.1 1.2 3 33
- 0.71224 4 3 tcp 1000 ------- 0 0.1 1.2 3 33
- 0.71224 1 2 tcp 1000 ------- 1 1.1 3.1 18 36
r 0.71424 1 2 tcp 1000 ------- 1 1.1 3.1 16 31
+ 0.71424 2 3 tcp 1000 ------- 1 1.1 3.1 16 31
- 0.71424 2 3 tcp 1000 ------- 1 1.1 3.1 16 31
r 0.71624 2 3 tcp 1000 ------- 1 1.1 3.1 14 27
+ 0.71624 3 1 ack 40 ------- 1 3.1 1.1 14 51
- 0.71624 3 1 ack 40 ------- 1 3.1 1.1 14 51
r 0.71856 0 2 tcp 1000 ------- 0 0.1 1.2 6 42
+ 0.71856 2 4 tcp 1000 ------- 0 0.1 1.2 6 42
r 0.71856 3 1 ack 40 ------- 1 3.1 1.1 13 48
+ 0.71856 1 2 tcp 1000 ------- 1 1.1 3.1 27 52
+ 0.71856 1 2 tcp 1000 ------- 1 1.1 3.1 28 53
- 0.71856 2 4 tcp 1000 ------- 0 0.1 1.2 6 42
r 0.72024 2 4 tcp 1000 ------- 0 0.1 1.2 4 34
+ 0.72024 4 3 tcp 1000 ------- 0 0.1 1.2 4 34
- 0.72024 4 3 tcp 1000 ------- 0 0.1 1.2 4 34
- 0.72024 1 2 tcp 1000 ------- 1 1.1 3.1 19 38
r 0.72224 1 2 tcp 1000 ------- 1 1.1 3.1 17 35
+ 0.72224 2 3 tcp 1000 ------- 1 1.1 3.1 17 35
- 0.72224 2 3 tcp 1000 ------- 1 1.1 3.1 17 35
r 0.72424 2 3 tcp 1000 ------- 1 1.1 3.1 15 30
+ 0.72424 3 1 ack 40 ------- 1 3.1 1.1 15 54
- 0.72424 3 1 ack 40 ------- 1 3.1 1.1 15 54
r 0.72656 3 1 ack 40 ------- 1 3.1 1.1 14 51
+ 0.72656 1 2 tcp 1000 ------- 1 1.1 3.1 29 55
+ 0.72656 1 2 tcp 1000 ------- 1 1.1 3.1 30 56
- 0.72824 1 2 tcp 1000 ------- 1 1.1 3.1 20 39
r 0.72856 2 4 tcp 1000 ------- 0 0.1 1.2 5 41
+ 0.72856 4 3 tcp 1000 ------- 0 0.1 1.2 5 41
- 0.72856 4 3 tcp 1000 ------- 0 0.1 1.2 5 41
r 0.73024 4 3 tcp 1000 ------- 0 0.1 1.2 3 33
+ 0.73024 3 1 tcp 1000 ------- 0 0.1 1.2 3 33
- 0.73024 3 1 tcp 1000 ------- 0 0.1 1.2 3 33
r 0.73024 1 2 tcp 1000 ------- 1 1.1 3.1 18 36
+ 0.73024 2 3 tcp 1000 ------- 1 1.1 3.1 18 36
- 0.73024 2 3 tcp 1000 ------- 1 1.1 3.1 18 36
r 0.73224 2 3 tcp 1000 ------- 1 1.1 3.1 16 31
+ 0.73224 3 1 ack 40 ------- 1 3.1 1.1 16 57
r 0.73456 3 1 ack 40 ------- 1 3.1 1.1 15 54
+ 0.73456 1 2 tcp 1000 ------- 1 1.1 3.1 31 58
+ 0.73456 1 2 tcp 1000 ------- 1 1.1 3.1 32 59
- 0.73624 1 2 tcp 1000 ------- 1 1.1 3.1 21 43
r 0.73656 2 4 tcp 1000 ------- 0 0.1 1.2 6 42
+ 0.73656 4 3 tcp 1000 ------- 0 0.1 1.2 6 42
- 0.73656 4 3 tcp 1000 ------- 0 0.1 1.2 6 42
r 0.73824 4 3 tcp 1000 ------- 0 0.1 1.2 4 34
+ 0.73824 3 1 tcp 1000 ------- 0 0.1 1.2 4 34
r 0.73824 1 2 tcp 1000 ------- 1 1.1 3.1 19 38
+ 0.73824 2 3 tcp 1000 ------- 1 1.1 3.1 19 38
- 0.73824 3 1 ack 40 ------- 1 3.1 1.1 16 57
- 0.73824 2 3 tcp 1000 ------- 1 1.1 3.1 19 38
- 0.73856 3 1 tcp 1000 ------- 0 0.1 1.2 4 34
r 0.74024 2 3 tcp 1000 ------- 1 1.1 3.1 17 35
+ 0.74024 3 1 ack 40 ------- 1 3.1 1.1 17 60
- 0.74424 1 2 tcp 1000 ------- 1 1.1 3.1 22 44
r 0.74624 1 2 tcp 1000 ------- 1 1.1 3.1 20 39
+ 0.74624 2 3 tcp 1000 ------- 1 1.1 3.1 20 39
- 0.74624 2 3 tcp 1000 ------- 1 1.1 3.1 20 39
r 0.74656 4 3 tcp 1000 ------- 0 0.1 1.2 5 41
+ 0.74656 3 1 tcp 1000 ------- 0 0.1 1.2 5 41
- 0.74656 3 1 ack 40 ------- 1 3.1 1.1 17 60
- 0.74688 3 1 tcp 1000 ------- 0 0.1 1.2 5 41
r 0.74824 3 1 tcp 1000 ------- 0 0.1 1.2 3 33
+ 0.74824 1 2 ack 40 ------- 0 1.2 0.1 3 61
r 0.74824 2 3 tcp 1000 ------- 1 1.1 3.1 18 36
+ 0.74824 3 1 ack 40 ------- 1 3.1 1.1 18 62
r 0.74856 3 1 ack 40 ------- 1 3.1 1.1 16 57
+ 0.74856 1 2 tcp 1000 ------- 1 1.1 3.1 33 63
+ 0.74856 1 2 tcp 1000 ------- 1 1.1 3.1 34 64
- 0.75224 1 2 tcp 1000 ------- 1 1.1 3.1 23 46
r 0.75424 1 2 tcp 1000 ------- 1 1.1 3.1 21 43
+ 0.75424 2 3 tcp 1000 ------- 1 1.1 3.1 21 43
- 0.75424 2 3 tcp 1000 ------- 1 1.1 3.1 21 43
r 0.75456 4 3 tcp 1000 ------- 0 0.1 1.2 6 42
+ 0.75456 3 1 tcp 1000 ------- 0 0.1 1.2 6 42
- 0.75488 3 1 ack 40 ------- 1 3.1 1.1 18 62
- 0.7552 3 1 tcp 1000 ------- 0 0.1 1.2 6 42
r 0.75624 2 3 tcp 1000 ------- 1 1.1 3.1 19 38
+ 0.75624 3 1 ack 40 ------- 1 3.1 1.1 19 65
r 0.75656 3 1 tcp 1000 ------- 0 0.1 1.2 4 34
+ 0.75656 1 2 ack 40 ------- 0 1.2 0.1 4 66
r 0.75688 3 1 ack 40 ------- 1 3.1 1.1 17 60
+ 0.75688 1 2 tcp 1000 ------- 1 1.1 3.1 35 67
+ 0.75688 1 2 tcp 1000 ------- 1 1.1 3.1 36 68
- 0.76024 1 2 tcp 1000 ------- 1 1.1 3.1 24 47
r 0.76224 1 2 tcp 1000 ------- 1 1.1 3.1 22 44
+ 0.76224 2 3 tcp 1000 ------- 1 1.1 3.1 22 44
- 0.76224 2 3 tcp 1000 ------- 1 1.1 3.1 22 44
- 0.7632 3 1 ack 40 ------- 1 3.1 1.1 19 65
r 0.76424 2 3 tcp 1000 ------- 1 1.1 3.1 20 39
+ 0.76424 3 1 ack 40 ------- 1 3.1 1.1 20 69
- 0.76424 3 1 ack 40 ------- 1 3.1 1.1 20 69
r 0.76488 3 1 tcp 1000 ------- 0 0.1 1.2 5 41
+ 0.76488 1 2 ack 40 ------- 0 1.2 0.1 5 70
r 0.7652 3 1 ack 40 ------- 1 3.1 1.1 18 62
+ 0.7652 1 2 tcp 1000 ------- 1 1.1 3.1 37 71
+ 0.7652 1 2 tcp 1000 ------- 1 1.1 3.1 38 72
- 0.76824 1 2 tcp 1000 ------- 1 1.1 3.1 25 49
r 0.77024 1 2 tcp 1000 ------- 1 1.1 3.1 23 46
+ 0.77024 2 3 tcp 1000 ------- 1 1.1 3.1 23 46
- 0.77024 2 3 tcp 1000 ------- 1 1.1 3.1 23 46
r 0.77224 2 3 tcp 1000 ------- 1 1.1 3.1 21 43
+ 0.77224 3 1 ack 40 ------- 1 3.1 1.1 21 73
- 0.77224 3 1 ack 40 ------- 1 3.1 1.1 21 73
r 0.7732 3 1 tcp 1000 ------- 0 0.1 1.2 6 42
+ 0.7732 1 2 ack 40 ------- 0 1.2 0.1 6 74
r 0.77352 3 1 ack 40 ------- 1 3.1 1.1 19 65
+ 0.77352 1 2 tcp 1000 ------- 1 1.1 3.1 39 75
r 0.77456 3 1 ack 40 ------- 1 3.1 1.1 20 69
+ 0.77456 1 2 tcp 1000 ------- 1 1.1 3.1 40 76
- 0.77624 1 2 tcp 1000 ------- 1 1.1 3.1 26 50
r 0.77824 1 2 tcp 1000 ------- 1 1.1 3.1 24 47
+ 0.77824 2 3 tcp 1000 ------- 1 1.1 3.1 24 47
- 0.77824 2 3 tcp 1000 ------- 1 1.1 3.1 24 47
r 0.78024 2 3 tcp 1000 ------- 1 1.1 3.1 22 44
+ 0.78024 3 1 ack 40 ------- 1 3.1 1.1 22 77
- 0.78024 3 1 ack 40 ------- 1 3.1 1.1 22 77
r 0.78256 3 1 ack 40 ------- 1 3.1 1.1 21 73
+ 0.78256 1 2 tcp 1000 ------- 1 1.1 3.1 41 78
- 0.78424 1 2 tcp 1000 ------- 1 1.1 3.1 27 52
r 0.78624 1 2 tcp 1000 ------- 1 1.1 3.1 25 49
+ 0.78624 2 3 tcp 1000 ------- 1 1.1 3.1 25 49
- 0.78624 2 3 tcp 1000 ------- 1 1.1 3.1 25 49
r 0.78824 2 3 tcp 1000 ------- 1 1.1 3.1 23 46
+ 0.78824 3 1 ack 40 ------- 1 3.1 1.1 23 79
- 0.78824 3 1 ack 40 ------- 1 3.1 1.1 23 79
r 0.79056 3 1 ack 40 ------- 1 3.1 1.1 22 77
+ 0.79056 1 2 tcp 1000 ------- 1 1.1 3.1 42 80
- 0.79224 1 2 tcp 1000 ------- 1 1.1 3.1 28 53
r 0.79424 1 2 tcp 1000 ------- 1 1.1 3.1 26 50
+ 0.79424 2 3 tcp 1000 ------- 1 1.1 3.1 26 50
- 0.79424 2 3 tcp 1000 ------- 1 1.1 3.1 26 50
r 0.79624 2 3 tcp 1000 ------- 1 1.1 3.1 24 47
+ 0.79624 3 1 ack 40 ------- 1 3.1 1.1 24 81
- 0.79624 3 1 ack 40 ------- 1 3.1 1.1 24 81
r 0.79856 3 1 ack 40 ------- 1 3.1 1.1 23 79
+ 0.79856 1 2 tcp 1000 ------- 1 1.1 3.1 43 82
- 0.80024 1 2 tcp 1000 ------- 1 1.1 3.1 29 55
r 0.80224 1 2 tcp 1000 ------- 1 1.1 3.1 27 52
+ 0.80224 2 3 tcp 1000 ------- 1 1.1 3.1 27 52
- 0.80224 2 3 tcp 1000 ------- 1 1.1 3.1 27 52
r 0.80424 2 3 tcp 1000 ------- 1 1.1 3.1 25 49
+ 0.80424 3 1 ack 40 ------- 1 3.1 1.1 25 83
- 0.80424 3 1 ack 40 ------- 1 3.1 1.1 25 83
r 0.80656 3 1 ack 40 ------- 1 3.1 1.1 24 81
+ 0.80656 1 2 tcp 1000 ------- 1 1.1 3.1 44 84
- 0.80824 1 2 tcp 1000 ------- 1 1.1 3.1 30 56
r 0.81024 1 2 tcp 1000 ------- 1 1.1 3.1 28 53
+ 0.81024 2 3 tcp 1000 ------- 1 1.1 3.1 28 53
- 0.81024 2 3 tcp 1000 ------- 1 1.1 3.1 28 53
r 0.81224 2 3 tcp 1000 ------- 1 1.1 3.1 26 50
+ 0.81224 3 1 ack 40 ------- 1 3.1 1.1 26 85
- 0.81224 3 1 ack 40 ------- 1 3.1 1.1 26 85
r 0.81456 3 1 ack 40 ------- 1 3.1 1.1 25 83
+ 0.81456 1 2 tcp 1000 ------- 1 1.1 3.1 45 86
- 0.81624 1 2 tcp 1000 ------- 1 1.1 3.1 31 58
r 0.81824 1 2 tcp 1000 ------- 1 1.1 3.1 29 55
+ 0.81824 2 3 tcp 1000 ------- 1 1.1 3.1 29 55
- 0.81824 2 3 tcp 1000 ------- 1 1.1 3.1 29 55
r 0.82024 2 3 tcp 1000 ------- 1 1.1 3.1 27 52
+ 0.82024 3 1 ack 40 ------- 1 3.1 1.1 27 87
- 0.82024 3 1 ack 40 ------- 1 3.1 1.1 27 87
r 0.82256 3 1 ack 40 ------- 1 3.1 1.1 26 85
+ 0.82256 1 2 tcp 1000 ------- 1 1.1 3.1 46 88
- 0.82424 1 2 tcp 1000 ------- 1 1.1 3.1 32 59
r 0.82624 1 2 tcp 1000 ------- 1 1.1 3.1 30 56
+ 0.82624 2 3 tcp 1000 ------- 1 1.1 3.1 30 56
- 0.82624 2 3 tcp 1000 ------- 1 1.1 3.1 30 56
r 0.82824 2 3 tcp 1000 ------- 1 1.1 3.1 28 53
+ 0.82824 3 1 ack 40 ------- 1 3.1 1.1 28 89
- 0.82824 3 1 ack 40 ------- 1 3.1 1.1 28 89
r 0.83056 3 1 ack 40 ------- 1 3.1 1.1 27 87
+ 0.83056 1 2 tcp 1000 ------- 1 1.1 3.1 47 90
- 0.83224 1 2 ack 40 ------- 0 1.2 0.1 3 61
- 0.83256 1 2 tcp 1000 ------- 1 1.1 3.1 33 63
r 0.83424 1 2 tcp 1000 ------- 1 1.1 3.1 31 58
+ 0.83424 2 3 tcp 1000 ------- 1 1.1 3.1 31 58
- 0.83424 2 3 tcp 1000 ------- 1 1.1 3.1 31 58
r 0.83624 2 3 tcp 1000 ------- 1 1.1 3.1 29 55
+ 0.83624 3 1 ack 40 ------- 1 3.1 1.1 29 91
- 0.83624 3 1 ack 40 ------- 1 3.1 1.1 29 91
r 0.83856 3 1 ack 40 ------- 1 3.1 1.1 28 89
+ 0.83856 1 2 tcp 1000 ------- 1 1.1 3.1 48 92
- 0.84056 1 2 tcp 1000 ------- 1 1.1 3.1 34 64
r 0.84224 1 2 tcp 1000 ------- 1 1.1 3.1 32 59
+ 0.84224 2 3 tcp 1000 ------- 1 1.1 3.1 32 59
- 0.84224 2 3 tcp 1000 ------- 1 1.1 3.1 32 59
r 0.84256 1 2 ack 40 ------- 0 1.2 0.1 3 61
+ 0.84256 2 0 ack 40 ------- 0 1.2 0.1 3 61
- 0.84256 2 0 ack 40 ------- 0 1.2 0.1 3 61
r 0.84424 2 3 tcp 1000 ------- 1 1.1 3.1 30 56
+ 0.84424 3 1 ack 40 ------- 1 3.1 1.1 30 93
- 0.84424 3 1 ack 40 ------- 1 3.1 1.1 30 93
r 0.84656 3 1 ack 40 ------- 1 3.1 1.1 29 91
+ 0.84656 1 2 tcp 1000 ------- 1 1.1 3.1 49 94
- 0.84856 1 2 ack 40 ------- 0 1.2 0.1 4 66
- 0.84888 1 2 tcp 1000 ------- 1 1.1 3.1 35 67
r 0.85056 1 2 tcp 1000 ------- 1 1.1 3.1 33 63
+ 0.85056 2 3 tcp 1000 ------- 1 1.1 3.1 33 63
- 0.85056 2 3 tcp 1000 ------- 1 1.1 3.1 33 63
r 0.85224 2 3 tcp 1000 ------- 1 1.1 3.1 31 58
+ 0.85224 3 1 ack 40 ------- 1 3.1 1.1 31 95
- 0.85224 3 1 ack 40 ------- 1 3.1 1.1 31 95
r 0.85288 2 0 ack 40 ------- 0 1.2 0.1 3 61
+ 0.85288 0 2 tcp 1000 ------- 0 0.1 1.2 7 96
- 0.85288 0 2 tcp 1000 ------- 0 0.1 1.2 7 96
+ 0.85288 0 2 tcp 1000 ------- 0 0.1 1.2 8 97
r 0.85456 3 1 ack 40 ------- 1 3.1 1.1 30 93
+ 0.85456 1 2 tcp 1000 ------- 1 1.1 3.1 50 98
- 0.85688 1 2 tcp 1000 ------- 1 1.1 3.1 36 68
r 0.85856 1 2 tcp 1000 ------- 1 1.1 3.1 34 64
+ 0.85856 2 3 tcp 1000 ------- 1 1.1 3.1 34 64
- 0.85856 2 3 tcp 1000 ------- 1 1.1 3.1 34 64
r 0.85888 1 2 ack 40 ------- 0 1.2 0.1 4 66
+ 0.85888 2 0 ack 40 ------- 0 1.2 0.1 4 66
- 0.85888 2 0 ack 40 ------- 0 1.2 0.1 4 66
r 0.86024 2 3 tcp 1000 ------- 1 1.1 3.1 32 59
+ 0.86024 3 1 ack 40 ------- 1 3.1 1.1 32 99
- 0.86024 3 1 ack 40 ------- 1 3.1 1.1 32 99
- 0.86088 0 2 tcp 1000 ------- 0 0.1 1.2 8 97
r 0.86256 3 1 ack 40 ------- 1 3.1 1.1 31 95
+ 0.86256 1 2 tcp 1000 ------- 1 1.1 3.1 51 100
- 0.86488 1 2 ack 40 ------- 0 1.2 0.1 5 70
- 0.8652 1 2 tcp 1000 ------- 1 1.1 3.1 37 71
r 0.86688 1 2 tcp 1000 ------- 1 1.1 3.1 35 67
+ 0.86688 2 3 tcp 1000 ------- 1 1.1 3.1 35 67
- 0.86688 2 3 tcp 1000 ------- 1 1.1 3.1 35 67
r 0.86856 2 3 tcp 1000 ------- 1 1.1 3.1 33 63
+ 0.86856 3 1 ack 40 ------- 1 3.1 1.1 33 101
- 0.86856 3 1 ack 40 ------- 1 3.1 1.1 33 101
r 0.8692 2 0 ack 40 ------- 0 1.2 0.1 4 66
+ 0.8692 0 2 tcp 1000 ------- 0 0.1 1.2 9 102
- 0.8692 0 2 tcp 1000 ------- 0 0.1 1.2 9 102
+ 0.8692 0 2 tcp 1000 ------- 0 0.1 1.2 10 103
r 0.87056 3 1 ack 40 ------- 1 3.1 1.1 32 99
+ 0.87056 1 2 tcp 1000 ------- 1 1.1 3.1 52 104
r 0.87088 0 2 tcp 1000 ------- 0 0.1 1.2 7 96
+ 0.87088 2 4 tcp 1000 ------- 0 0.1 1.2 7 96
- 0.87088 2 4 tcp 1000 ------- 0 0.1 1.2 7 96
- 0.8732 1 2 tcp 1000 ------- 1 1.1 3.1 38 72
r 0.87488 1 2 tcp 1000 ------- 1 1.1 3.1 36 68
+ 0.87488 2 3 tcp 1000 ------- 1 1.1 3.1 36 68
- 0.87488 2 3 tcp 1000 ------- 1 1.1 3.1 36 68
r 0.8752 1 2 ack 40 ------- 0 1.2 0.1 5 70
+ 0.8752 2 0 ack 40 ------- 0 1.2 0.1 5 70
- 0.8752 2 0 ack 40 ------- 0 1.2 0.1 5 70
r 0.87656 2 3 tcp 1000 ------- 1 1.1 3.1 34 64
+ 0.87656 3 1 ack 40 ------- 1 3.1 1.1 34 105
- 0.87656 3 1 ack 40 ------- 1 3.1 1.1 34 105
- 0.8772 0 2 tcp 1000 ------- 0 0.1 1.2 10 103
r 0.87888 0 2 tcp 1000 ------- 0 0.1 1.2 8 97
+ 0.87888 2 4 tcp 1000 ------- 0 0.1 1.2 8 97
r 0.87888 3 1 ack 40 ------- 1 3.1 1.1 33 101
+ 0.87888 1 2 tcp 1000 ------- 1 1.1 3.1 53 106
- 0.87888 2 4 tcp 1000 ------- 0 0.1 1.2 8 97
- 0.8812 1 2 ack 40 ------- 0 1.2 0.1 6 74
- 0.88152 1 2 tcp 1000 ------- 1 1.1 3.1 39 75
r 0.8832 1 2 tcp 1000 ------- 1 1.1 3.1 37 71
+ 0.8832 2 3 tcp 1000 ------- 1 1.1 3.1 37 71
- 0.8832 2 3 tcp 1000 ------- 1 1.1 3.1 37 71
r 0.88488 2 3 tcp 1000 ------- 1 1.1 3.1 35 67
+ 0.88488 3 1 ack 40 ------- 1 3.1 1.1 35 107
- 0.88488 3 1 ack 40 ------- 1 3.1 1.1 35 107
r 0.88552 2 0 ack 40 ------- 0 1.2 0.1 5 70
+ 0.88552 0 2 tcp 1000 ------- 0 0.1 1.2 11 108
- 0.88552 0 2 tcp 1000 ------- 0 0.1 1.2 11 108
+ 0.88552 0 2 tcp 1000 ------- 0 0.1 1.2 12 109
r 0.88688 3 1 ack 40 ------- 1 3.1 1.1 34 105
+ 0.88688 1 2 tcp 1000 ------- 1 1.1 3.1 54 110
r 0.8872 0 2 tcp 1000 ------- 0 0.1 1.2 9 102
+ 0.8872 2 4 tcp 1000 ------- 0 0.1 1.2 9 102
- 0.8872 2 4 tcp 1000 ------- 0 0.1 1.2 9 102
r 0.88888 2 4 tcp 1000 ------- 0 0.1 1.2 7 96
+ 0.88888 4 3 tcp 1000 ------- 0 0.1 1.2 7 96
- 0.88888 4 3 tcp 1000 ------- 0 0.1 1.2 7 96
- 0.88952 1 2 tcp 1000 ------- 1 1.1 3.1 40 76
r 0.8912 1 2 tcp 1000 ------- 1 1.1 3.1 38 72
+ 0.8912 2 3 tcp 1000 ------- 1 1.1 3.1 38 72
- 0.8912 2 3 tcp 1000 ------- 1 1.1 3.1 38 72
r 0.89152 1 2 ack 40 ------- 0 1.2 0.1 6 74
+ 0.89152 2 0 ack 40 ------- 0 1.2 0.1 6 74
- 0.89152 2 0 ack 40 ------- 0 1.2 0.1 6 74
r 0.89288 2 3 tcp 1000 ------- 1 1.1 3.1 36 68
+ 0.89288 3 1 ack 40 ------- 1 3.1 1.1 36 111
- 0.89288 3 1 ack 40 ------- 1 3.1 1.1 36 111
- 0.89352 0 2 tcp 1000 ------- 0 0.1 1.2 12 109
r 0.8952 0 2 tcp 1000 ------- 0 0.1 1.2 10 103
+ 0.8952 2 4 tcp 1000 ------- 0 0.1 1.2 10 103
r 0.8952 3 1 ack 40 ------- 1 3.1 1.1 35 107
+ 0.8952 1 2 tcp 1000 ------- 1 1.1 3.1 55 112
- 0.8952 2 4 tcp 1000 ------- 0 0.1 1.2 10 103
r 0.89688 2 4 tcp 1000 ------- 0 0.1 1.2 8 97
+ 0.89688 4 3 tcp 1000 ------- 0 0.1 1.2 8 97
- 0.89688 4 3 tcp 1000 ------- 0 0.1 1.2 8 97
- 0.89752 1 2 tcp 1000 ------- 1 1.1 3.1 41 78
r 0.89952 1 2 tcp 1000 ------- 1 1.1 3.1 39 75
+ 0.89952 2 3 tcp 1000 ------- 1 1.1 3.1 39 75
- 0.89952 2 3 tcp 1000 ------- 1 1.1 3.1 39 75
r 0.9012 2 3 tcp 1000 ------- 1 1.1 3.1 37 71
+ 0.9012 3 1 ack 40 ------- 1 3.1 1.1 37 113
- 0.9012 3 1 ack 40 ------- 1 3.1 1.1 37 113
r 0.90184 2 0 ack 40 ------- 0 1.2 0.1 6 74
+ 0.90184 0 2 tcp 1000 ------- 0 0.1 1.2 13 114
- 0.90184 0 2 tcp 1000 ------- 0 0.1 1.2 13 114
+ 0.90184 0 2 tcp 1000 ------- 0 0.1 1.2 14 115
r 0.9032 3 1 ack 40 ------- 1 3.1 1.1 36 111
+ 0.9032 1 2 tcp 1000 ------- 1 1.1 3.1 56 116
r 0.90352 0 2 tcp 1000 ------- 0 0.1 1.2 11 108
+ 0.90352 2 4 tcp 1000 ------- 0 0.1 1.2 11 108
- 0.90352 2 4 tcp 1000 ------- 0 0.1 1.2 11 108
r 0.9052 2 4 tcp 1000 ------- 0 0.1 1.2 9 102
+ 0.9052 4 3 tcp 1000 ------- 0 0.1 1.2 9 102
- 0.9052 4 3 tcp 1000 ------- 0 0.1 1.2 9 102
- 0.90552 1 2 tcp 1000 ------- 1 1.1 3.1 42 80
r 0.90688 4 3 tcp 1000 ------- 0 0.1 1.2 7 96
+ 0.90688 3 1 tcp 1000 ------- 0 0.1 1.2 7 96
- 0.90688 3 1 tcp 1000 ------- 0 0.1 1.2 7 96
r 0.90752 1 2 tcp 1000 ------- 1 1.1 3.1 40 76
+ 0.90752 2 3 tcp 1000 ------- 1 1.1 3.1 40 76
- 0.90752 2 3 tcp 1000 ------- 1 1.1 3.1 40 76
r 0.9092 2 3 tcp 1000 ------- 1 1.1 3.1 38 72
+ 0.9092 3 1 ack 40 ------- 1 3.1 1.1 38 117
- 0.90984 0 2 tcp 1000 ------- 0 0.1 1.2 14 115
r 0.91152 0 2 tcp 1000 ------- 0 0.1 1.2 12 109
+ 0.91152 2 4 tcp 1000 ------- 0 0.1 1.2 12 109
r 0.91152 3 1 ack 40 ------- 1 3.1 1.1 37 113
+ 0.91152 1 2 tcp 1000 ------- 1 1.1 3.1 57 118
- 0.91152 2 4 tcp 1000 ------- 0 0.1 1.2 12 109
r 0.9132 2 4 tcp 1000 ------- 0 0.1 1.2 10 103
+ 0.9132 4 3 tcp 1000 ------- 0 0.1 1.2 10 103
- 0.9132 4 3 tcp 1000 ------- 0 0.1 1.2 10 103
- 0.91352 1 2 tcp 1000 ------- 1 1.1 3.1 43 82
r 0.91488 4 3 tcp 1000 ------- 0 0.1 1.2 8 97
+ 0.91488 3 1 tcp 1000 ------- 0 0.1 1.2 8 97
- 0.91488 3 1 ack 40 ------- 1 3.1 1.1 38 117
- 0.9152 3 1 tcp 1000 ------- 0 0.1 1.2 8 97
r 0.91552 1 2 tcp 1000 ------- 1 1.1 3.1 41 78
+ 0.91552 2 3 tcp 1000 ------- 1 1.1 3.1 41 78
- 0.91552 2 3 tcp 1000 ------- 1 1.1 3.1 41 78
r 0.91752 2 3 tcp 1000 ------- 1 1.1 3.1 39 75
+ 0.91752 3 1 ack 40 ------- 1 3.1 1.1 39 119
r 0.91984 0 2 tcp 1000 ------- 0 0.1 1.2 13 114
+ 0.91984 2 4 tcp 1000 ------- 0 0.1 1.2 13 114
- 0.91984 2 4 tcp 1000 ------- 0 0.1 1.2 13 114
r 0.92152 2 4 tcp 1000 ------- 0 0.1 1.2 11 108
+ 0.92152 4 3 tcp 1000 ------- 0 0.1 1.2 11 108
- 0.92152 4 3 tcp 1000 ------- 0 0.1 1.2 11 108
- 0.92152 1 2 tcp 1000 ------- 1 1.1 3.1 44 84
r 0.9232 4 3 tcp 1000 ------- 0 0.1 1.2 9 102
+ 0.9232 3 1 tcp 1000 ------- 0 0.1 1.2 9 102
- 0.9232 3 1 ack 40 ------- 1 3.1 1.1 39 119
r 0.92352 1 2 tcp 1000 ------- 1 1.1 3.1 42 80
+ 0.92352 2 3 tcp 1000 ------- 1 1.1 3.1 42 80
- 0.92352 2 3 tcp 1000 ------- 1 1.1 3.1 42 80
- 0.92352 3 1 tcp 1000 ------- 0 0.1 1.2 9 102
r 0.92488 3 1 tcp 1000 ------- 0 0.1 1.2 7 96
+ 0.92488 1 2 ack 40 ------- 0 1.2 0.1 7 120
r 0.9252 3 1 ack 40 ------- 1 3.1 1.1 38 117
+ 0.9252 1 2 tcp 1000 ------- 1 1.1 3.1 58 121
r 0.92552 2 3 tcp 1000 ------- 1 1.1 3.1 40 76
+ 0.92552 3 1 ack 40 ------- 1 3.1 1.1 40 122
r 0.92784 0 2 tcp 1000 ------- 0 0.1 1.2 14 115
+ 0.92784 2 4 tcp 1000 ------- 0 0.1 1.2 14 115
- 0.92784 2 4 tcp 1000 ------- 0 0.1 1.2 14 115
r 0.92952 2 4 tcp 1000 ------- 0 0.1 1.2 12 109
+ 0.92952 4 3 tcp 1000 ------- 0 0.1 1.2 12 109
- 0.92952 4 3 tcp 1000 ------- 0 0.1 1.2 12 109
- 0.92952 1 2 tcp 1000 ------- 1 1.1 3.1 45 86
r 0.9312 4 3 tcp 1000 ------- 0 0.1 1.2 10 103
+ 0.9312 3 1 tcp 1000 ------- 0 0.1 1.2 10 103
r 0.93152 1 2 tcp 1000 ------- 1 1.1 3.1 43 82
+ 0.93152 2 3 tcp 1000 ------- 1 1.1 3.1 43 82
- 0.93152 2 3 tcp 1000 ------- 1 1.1 3.1 43 82
- 0.93152 3 1 ack 40 ------- 1 3.1 1.1 40 122
- 0.93184 3 1 tcp 1000 ------- 0 0.1 1.2 10 103
r 0.9332 3 1 tcp 1000 ------- 0 0.1 1.2 8 97
+ 0.9332 1 2 ack 40 ------- 0 1.2 0.1 8 123
r 0.93352 2 3 tcp 1000 ------- 1 1.1 3.1 41 78
+ 0.93352 3 1 ack 40 ------- 1 3.1 1.1 41 124
r 0.93352 3 1 ack 40 ------- 1 3.1 1.1 39 119
+ 0.93352 1 2 tcp 1000 ------- 1 1.1 3.1 59 125
- 0.93752 1 2 tcp 1000 ------- 1 1.1 3.1 46 88
r 0.93784 2 4 tcp 1000 ------- 0 0.1 1.2 13 114
+ 0.93784 4 3 tcp 1000 ------- 0 0.1 1.2 13 114
- 0.93784 4 3 tcp 1000 ------- 0 0.1 1.2 13 114
r 0.93952 4 3 tcp 1000 ------- 0 0.1 1.2 11 108
+ 0.93952 3 1 tcp 1000 ------- 0 0.1 1.2 11 108
r 0.93952 1 2 tcp 1000 ------- 1 1.1 3.1 44 84
+ 0.93952 2 3 tcp 1000 ------- 1 1.1 3.1 44 84
- 0.93952 2 3 tcp 1000 ------- 1 1.1 3.1 44 84
- 0.93984 3 1 ack 40 ------- 1 3.1 1.1 41 124
- 0.94016 3 1 tcp 1000 ------- 0 0.1 1.2 11 108
r 0.94152 2 3 tcp 1000 ------- 1 1.1 3.1 42 80
+ 0.94152 3 1 ack 40 ------- 1 3.1 1.1 42 126
r 0.94152 3 1 tcp 1000 ------- 0 0.1 1.2 9 102
+ 0.94152 1 2 ack 40 ------- 0 1.2 0.1 9 127
r 0.94184 3 1 ack 40 ------- 1 3.1 1.1 40 122
+ 0.94184 1 2 tcp 1000 ------- 1 1.1 3.1 60 128
- 0.94552 1 2 tcp 1000 ------- 1 1.1 3.1 47 90
r 0.94584 2 4 tcp 1000 ------- 0 0.1 1.2 14 115
+ 0.94584 4 3 tcp 1000 ------- 0 0.1 1.2 14 115
- 0.94584 4 3 tcp 1000 ------- 0 0.1 1.2 14 115
r 0.94752 4 3 tcp 1000 ------- 0 0.1 1.2 12 109
+ 0.94752 3 1 tcp 1000 ------- 0 0.1 1.2 12 109
r 0.94752 1 2 tcp 1000 ------- 1 1.1 3.1 45 86
+ 0.94752 2 3 tcp 1000 ------- 1 1.1 3.1 45 86
- 0.94752 2 3 tcp 1000 ------- 1 1.1 3.1 45 86
- 0.94816 3 1 ack 40 ------- 1 3.1 1.1 42 126
- 0.94848 3 1 tcp 1000 ------- 0 0.1 1.2 12 109
r 0.94952 2 3 tcp 1000 ------- 1 1.1 3.1 43 82
+ 0.94952 3 1 ack 40 ------- 1 3.1 1.1 43 129
r 0.94984 3 1 tcp 1000 ------- 0 0.1 1.2 10 103
+ 0.94984 1 2 ack 40 ------- 0 1.2 0.1 10 130
r 0.95016 3 1 ack 40 ------- 1 3.1 1.1 41 124
+ 0.95016 1 2 tcp 1000 ------- 1 1.1 3.1 61 131
- 0.95352 1 2 tcp 1000 ------- 1 1.1 3.1 48 92
r 0.95552 1 2 tcp 1000 ------- 1 1.1 3.1 46 88
+ 0.95552 2 3 tcp 1000 ------- 1 1.1 3.1 46 88
- 0.95552 2 3 tcp 1000 ------- 1 1.1 3.1 46 88
r 0.95584 4 3 tcp 1000 ------- 0 0.1 1.2 13 114
+ 0.95584 3 1 tcp 1000 ------- 0 0.1 1.2 13 114
- 0.95648 3 1 ack 40 ------- 1 3.1 1.1 43 129
- 0.9568 3 1 tcp 1000 ------- 0 0.1 1.2 13 114
r 0.95752 2 3 tcp 1000 ------- 1 1.1 3.1 44 84
+ 0.95752 3 1 ack 40 ------- 1 3.1 1.1 44 132
r 0.95816 3 1 tcp 1000 ------- 0 0.1 1.2 11 108
+ 0.95816 1 2 ack 40 ------- 0 1.2 0.1 11 133
r 0.95848 3 1 ack 40 ------- 1 3.1 1.1 42 126
+ 0.95848 1 2 tcp 1000 ------- 1 1.1 3.1 62 134
- 0.96152 1 2 tcp 1000 ------- 1 1.1 3.1 49 94
r 0.96352 1 2 tcp 1000 ------- 1 1.1 3.1 47 90