+ 0 4 1 tcp 1000 ------- 0 4.0 5.0 0 0
- 0 4 1 tcp 1000 ------- 0 4.0 5.0 0 0
r 0.0028 4 1 tcp 1000 ------- 0 4.0 5.0 0 0
h 0.0028 1 3 tcp 1000 ------- 0 4.0 5.0 0 0
+ 0.0048 1 3 tcp 1000 ------- 0 4.0 5.0 0 0
- 0.0048 1 3 tcp 1000 ------- 0 4.0 5.0 0 0
r 0.007615 3 2 tcp 1000 ------- 0 4.0 5.0 0 0
+ 0.007615 2 5 tcp 1000 ------- 0 4.0 5.0 0 0
- 0.007615 2 5 tcp 1000 ------- 0 4.0 5.0 0 0
r 0.010415 2 5 tcp 1000 ------- 0 4.0 5.0 0 0
+ 0.010415 5 2 ack 40 ------- 0 5.0 4.0 0 1
- 0.010415 5 2 ack 40 ------- 0 5.0 4.0 0 1
r 0.012447 5 2 ack 40 ------- 0 5.0 4.0 0 1
h 0.012447 2 3 ack 40 ------- 0 5.0 4.0 0 1
+ 0.014447 2 3 ack 40 ------- 0 5.0 4.0 0 1
- 0.014447 2 3 ack 40 ------- 0 5.0 4.0 0 1
r 0.016502 3 1 ack 40 ------- 0 5.0 4.0 0 1
+ 0.016502 1 4 ack 40 ------- 0 5.0 4.0 0 1
- 0.016502 1 4 ack 40 ------- 0 5.0 4.0 0 1
r 0.018534 1 4 ack 40 ------- 0 5.0 4.0 0 1
+ 0.018534 4 1 tcp 1000 ------- 0 4.0 5.0 1 2
- 0.018534 4 1 tcp 1000 ------- 0 4.0 5.0 1 2
+ 0.018534 4 1 tcp 1000 ------- 0 4.0 5.0 2 3
- 0.019334 4 1 tcp 1000 ------- 0 4.0 5.0 2 3
r 0.021334 4 1 tcp 1000 ------- 0 4.0 5.0 1 2
h 0.021334 1 3 tcp 1000 ------- 0 4.0 5.0 1 2
r 0.022134 4 1 tcp 1000 ------- 0 4.0 5.0 2 3
h 0.022134 1 3 tcp 1000 ------- 0 4.0 5.0 2 3
+ 0.023334 1 3 tcp 1000 ------- 0 4.0 5.0 1 2
- 0.023334 1 3 tcp 1000 ------- 0 4.0 5.0 1 2
+ 0.024134 1 3 tcp 1000 ------- 0 4.0 5.0 2 3
- 0.024155 1 3 tcp 1000 ------- 0 4.0 5.0 2 3
r 0.02615 3 2 tcp 1000 ------- 0 4.0 5.0 1 2
+ 0.02615 2 5 tcp 1000 ------- 0 4.0 5.0 1 2
- 0.02615 2 5 tcp 1000 ------- 0 4.0 5.0 1 2
r 0.02697 3 2 tcp 1000 ------- 0 4.0 5.0 2 3
+ 0.02697 2 5 tcp 1000 ------- 0 4.0 5.0 2 3
- 0.02697 2 5 tcp 1000 ------- 0 4.0 5.0 2 3
r 0.02895 2 5 tcp 1000 ------- 0 4.0 5.0 1 2
+ 0.02895 5 2 ack 40 ------- 0 5.0 4.0 1 4
- 0.02895 5 2 ack 40 ------- 0 5.0 4.0 1 4
r 0.02977 2 5 tcp 1000 ------- 0 4.0 5.0 2 3
+ 0.02977 5 2 ack 40 ------- 0 5.0 4.0 2 5
- 0.02977 5 2 ack 40 ------- 0 5.0 4.0 2 5
r 0.030982 5 2 ack 40 ------- 0 5.0 4.0 1 4
h 0.030982 2 3 ack 40 ------- 0 5.0 4.0 1 4
r 0.031802 5 2 ack 40 ------- 0 5.0 4.0 2 5
h 0.031802 2 3 ack 40 ------- 0 5.0 4.0 2 5
+ 0.032982 2 3 ack 40 ------- 0 5.0 4.0 1 4
- 0.032982 2 3 ack 40 ------- 0 5.0 4.0 1 4
+ 0.033802 2 3 ack 40 ------- 0 5.0 4.0 2 5
- 0.033802 2 3 ack 40 ------- 0 5.0 4.0 2 5
r 0.035037 3 1 ack 40 ------- 0 5.0 4.0 1 4
+ 0.035037 1 4 ack 40 ------- 0 5.0 4.0 1 4
- 0.035037 1 4 ack 40 ------- 0 5.0 4.0 1 4
r 0.035858 3 1 ack 40 ------- 0 5.0 4.0 2 5
+ 0.035858 1 4 ack 40 ------- 0 5.0 4.0 2 5
- 0.035858 1 4 ack 40 ------- 0 5.0 4.0 2 5
r 0.037069 1 4 ack 40 ------- 0 5.0 4.0 1 4
+ 0.037069 4 1 tcp 1000 ------- 0 4.0 5.0 3 6
- 0.037069 4 1 tcp 1000 ------- 0 4.0 5.0 3 6
+ 0.037069 4 1 tcp 1000 ------- 0 4.0 5.0 4 7
- 0.037869 4 1 tcp 1000 ------- 0 4.0 5.0 4 7
r 0.03789 1 4 ack 40 ------- 0 5.0 4.0 2 5
+ 0.03789 4 1 tcp 1000 ------- 0 4.0 5.0 5 8
+ 0.03789 4 1 tcp 1000 ------- 0 4.0 5.0 6 9
- 0.038669 4 1 tcp 1000 ------- 0 4.0 5.0 5 8
- 0.039469 4 1 tcp 1000 ------- 0 4.0 5.0 6 9
r 0.039869 4 1 tcp 1000 ------- 0 4.0 5.0 3 6
h 0.039869 1 3 tcp 1000 ------- 0 4.0 5.0 3 6
r 0.040669 4 1 tcp 1000 ------- 0 4.0 5.0 4 7
h 0.040669 1 3 tcp 1000 ------- 0 4.0 5.0 4 7
r 0.041469 4 1 tcp 1000 ------- 0 4.0 5.0 5 8
h 0.041469 1 3 tcp 1000 ------- 0 4.0 5.0 5 8
+ 0.041869 1 3 tcp 1000 ------- 0 4.0 5.0 3 6
- 0.041869 1 3 tcp 1000 ------- 0 4.0 5.0 3 6
r 0.042269 4 1 tcp 1000 ------- 0 4.0 5.0 6 9
h 0.042269 1 3 tcp 1000 ------- 0 4.0 5.0 6 9
+ 0.042669 1 3 tcp 1000 ------- 0 4.0 5.0 4 7
- 0.04269 1 3 tcp 1000 ------- 0 4.0 5.0 4 7
+ 0.043469 1 3 tcp 1000 ------- 0 4.0 5.0 5 8
- 0.04351 1 3 tcp 1000 ------- 0 4.0 5.0 5 8
+ 0.044269 1 3 tcp 1000 ------- 0 4.0 5.0 6 9
- 0.044331 1 3 tcp 1000 ------- 0 4.0 5.0 6 9
r 0.044684 3 2 tcp 1000 ------- 0 4.0 5.0 3 6
+ 0.044684 2 5 tcp 1000 ------- 0 4.0 5.0 3 6
- 0.044684 2 5 tcp 1000 ------- 0 4.0 5.0 3 6
r 0.045505 3 2 tcp 1000 ------- 0 4.0 5.0 4 7
+ 0.045505 2 5 tcp 1000 ------- 0 4.0 5.0 4 7
- 0.045505 2 5 tcp 1000 ------- 0 4.0 5.0 4 7
r 0.046326 3 2 tcp 1000 ------- 0 4.0 5.0 5 8
+ 0.046326 2 5 tcp 1000 ------- 0 4.0 5.0 5 8
- 0.046326 2 5 tcp 1000 ------- 0 4.0 5.0 5 8
r 0.047146 3 2 tcp 1000 ------- 0 4.0 5.0 6 9
+ 0.047146 2 5 tcp 1000 ------- 0 4.0 5.0 6 9
- 0.047146 2 5 tcp 1000 ------- 0 4.0 5.0 6 9
r 0.047484 2 5 tcp 1000 ------- 0 4.0 5.0 3 6
+ 0.047484 5 2 ack 40 ------- 0 5.0 4.0 3 10
- 0.047484 5 2 ack 40 ------- 0 5.0 4.0 3 10
r 0.048305 2 5 tcp 1000 ------- 0 4.0 5.0 4 7
+ 0.048305 5 2 ack 40 ------- 0 5.0 4.0 4 11
- 0.048305 5 2 ack 40 ------- 0 5.0 4.0 4 11
r 0.049126 2 5 tcp 1000 ------- 0 4.0 5.0 5 8
+ 0.049126 5 2 ack 40 ------- 0 5.0 4.0 5 12
- 0.049126 5 2 ack 40 ------- 0 5.0 4.0 5 12
r 0.049516 5 2 ack 40 ------- 0 5.0 4.0 3 10
h 0.049516 2 3 ack 40 ------- 0 5.0 4.0 3 10
r 0.049946 2 5 tcp 1000 ------- 0 4.0 5.0 6 9
+ 0.049946 5 2 ack 40 ------- 0 5.0 4.0 6 13
- 0.049946 5 2 ack 40 ------- 0 5.0 4.0 6 13
r 0.050337 5 2 ack 40 ------- 0 5.0 4.0 4 11
h 0.050337 2 3 ack 40 ------- 0 5.0 4.0 4 11
r 0.051158 5 2 ack 40 ------- 0 5.0 4.0 5 12
h 0.051158 2 3 ack 40 ------- 0 5.0 4.0 5 12
+ 0.051516 2 3 ack 40 ------- 0 5.0 4.0 3 10
- 0.051516 2 3 ack 40 ------- 0 5.0 4.0 3 10
r 0.051978 5 2 ack 40 ------- 0 5.0 4.0 6 13
h 0.051978 2 3 ack 40 ------- 0 5.0 4.0 6 13
+ 0.052337 2 3 ack 40 ------- 0 5.0 4.0 4 11
- 0.052337 2 3 ack 40 ------- 0 5.0 4.0 4 11
+ 0.053158 2 3 ack 40 ------- 0 5.0 4.0 5 12
- 0.053158 2 3 ack 40 ------- 0 5.0 4.0 5 12
r 0.053571 3 1 ack 40 ------- 0 5.0 4.0 3 10
+ 0.053571 1 4 ack 40 ------- 0 5.0 4.0 3 10
- 0.053571 1 4 ack 40 ------- 0 5.0 4.0 3 10
+ 0.053978 2 3 ack 40 ------- 0 5.0 4.0 6 13
- 0.053978 2 3 ack 40 ------- 0 5.0 4.0 6 13
r 0.054392 3 1 ack 40 ------- 0 5.0 4.0 4 11
+ 0.054392 1 4 ack 40 ------- 0 5.0 4.0 4 11
- 0.054392 1 4 ack 40 ------- 0 5.0 4.0 4 11
r 0.055213 3 1 ack 40 ------- 0 5.0 4.0 5 12
+ 0.055213 1 4 ack 40 ------- 0 5.0 4.0 5 12
- 0.055213 1 4 ack 40 ------- 0 5.0 4.0 5 12
r 0.055603 1 4 ack 40 ------- 0 5.0 4.0 3 10
+ 0.055603 4 1 tcp 1000 ------- 0 4.0 5.0 7 14
- 0.055603 4 1 tcp 1000 ------- 0 4.0 5.0 7 14
+ 0.055603 4 1 tcp 1000 ------- 0 4.0 5.0 8 15
r 0.056034 3 1 ack 40 ------- 0 5.0 4.0 6 13
+ 0.056034 1 4 ack 40 ------- 0 5.0 4.0 6 13
- 0.056034 1 4 ack 40 ------- 0 5.0 4.0 6 13
- 0.056403 4 1 tcp 1000 ------- 0 4.0 5.0 8 15
r 0.056424 1 4 ack 40 ------- 0 5.0 4.0 4 11
+ 0.056424 4 1 tcp 1000 ------- 0 4.0 5.0 9 16
+ 0.056424 4 1 tcp 1000 ------- 0 4.0 5.0 10 17
- 0.057203 4 1 tcp 1000 ------- 0 4.0 5.0 9 16
r 0.057245 1 4 ack 40 ------- 0 5.0 4.0 5 12
+ 0.057245 4 1 tcp 1000 ------- 0 4.0 5.0 11 18
+ 0.057245 4 1 tcp 1000 ------- 0 4.0 5.0 12 19
- 0.058003 4 1 tcp 1000 ------- 0 4.0 5.0 10 17
r 0.058066 1 4 ack 40 ------- 0 5.0 4.0 6 13
+ 0.058066 4 1 tcp 1000 ------- 0 4.0 5.0 13 20
+ 0.058066 4 1 tcp 1000 ------- 0 4.0 5.0 14 21
r 0.058403 4 1 tcp 1000 ------- 0 4.0 5.0 7 14
h 0.058403 1 3 tcp 1000 ------- 0 4.0 5.0 7 14
- 0.058803 4 1 tcp 1000 ------- 0 4.0 5.0 11 18
r 0.059203 4 1 tcp 1000 ------- 0 4.0 5.0 8 15
h 0.059203 1 3 tcp 1000 ------- 0 4.0 5.0 8 15
- 0.059603 4 1 tcp 1000 ------- 0 4.0 5.0 12 19
r 0.060003 4 1 tcp 1000 ------- 0 4.0 5.0 9 16
h 0.060003 1 3 tcp 1000 ------- 0 4.0 5.0 9 16
+ 0.060403 1 3 tcp 1000 ------- 0 4.0 5.0 7 14
- 0.060403 1 3 tcp 1000 ------- 0 4.0 5.0 7 14
- 0.060403 4 1 tcp 1000 ------- 0 4.0 5.0 13 20
r 0.060803 4 1 tcp 1000 ------- 0 4.0 5.0 10 17
h 0.060803 1 3 tcp 1000 ------- 0 4.0 5.0 10 17
+ 0.061203 1 3 tcp 1000 ------- 0 4.0 5.0 8 15
- 0.061203 4 1 tcp 1000 ------- 0 4.0 5.0 14 21
- 0.061224 1 3 tcp 1000 ------- 0 4.0 5.0 8 15
r 0.061603 4 1 tcp 1000 ------- 0 4.0 5.0 11 18
h 0.061603 1 3 tcp 1000 ------- 0 4.0 5.0 11 18
+ 0.062003 1 3 tcp 1000 ------- 0 4.0 5.0 9 16
- 0.062045 1 3 tcp 1000 ------- 0 4.0 5.0 9 16
r 0.062403 4 1 tcp 1000 ------- 0 4.0 5.0 12 19
h 0.062403 1 3 tcp 1000 ------- 0 4.0 5.0 12 19
+ 0.062803 1 3 tcp 1000 ------- 0 4.0 5.0 10 17
- 0.062866 1 3 tcp 1000 ------- 0 4.0 5.0 10 17
r 0.063203 4 1 tcp 1000 ------- 0 4.0 5.0 13 20
h 0.063203 1 3 tcp 1000 ------- 0 4.0 5.0 13 20
r 0.063218 3 2 tcp 1000 ------- 0 4.0 5.0 7 14
+ 0.063218 2 5 tcp 1000 ------- 0 4.0 5.0 7 14
- 0.063218 2 5 tcp 1000 ------- 0 4.0 5.0 7 14
+ 0.063603 1 3 tcp 1000 ------- 0 4.0 5.0 11 18
- 0.063686 1 3 tcp 1000 ------- 0 4.0 5.0 11 18
r 0.064003 4 1 tcp 1000 ------- 0 4.0 5.0 14 21
h 0.064003 1 3 tcp 1000 ------- 0 4.0 5.0 14 21
r 0.064039 3 2 tcp 1000 ------- 0 4.0 5.0 8 15
+ 0.064039 2 5 tcp 1000 ------- 0 4.0 5.0 8 15
- 0.064039 2 5 tcp 1000 ------- 0 4.0 5.0 8 15
+ 0.064403 1 3 tcp 1000 ------- 0 4.0 5.0 12 19
- 0.064507 1 3 tcp 1000 ------- 0 4.0 5.0 12 19
r 0.06486 3 2 tcp 1000 ------- 0 4.0 5.0 9 16
+ 0.06486 2 5 tcp 1000 ------- 0 4.0 5.0 9 16
- 0.06486 2 5 tcp 1000 ------- 0 4.0 5.0 9 16
+ 0.065203 1 3 tcp 1000 ------- 0 4.0 5.0 13 20
- 0.065328 1 3 tcp 1000 ------- 0 4.0 5.0 13 20
r 0.065681 3 2 tcp 1000 ------- 0 4.0 5.0 10 17
+ 0.065681 2 5 tcp 1000 ------- 0 4.0 5.0 10 17
- 0.065681 2 5 tcp 1000 ------- 0 4.0 5.0 10 17
+ 0.066003 1 3 tcp 1000 ------- 0 4.0 5.0 14 21
r 0.066018 2 5 tcp 1000 ------- 0 4.0 5.0 7 14
+ 0.066018 5 2 ack 40 ------- 0 5.0 4.0 7 22
- 0.066018 5 2 ack 40 ------- 0 5.0 4.0 7 22
- 0.066149 1 3 tcp 1000 ------- 0 4.0 5.0 14 21
r 0.066502 3 2 tcp 1000 ------- 0 4.0 5.0 11 18
+ 0.066502 2 5 tcp 1000 ------- 0 4.0 5.0 11 18
- 0.066502 2 5 tcp 1000 ------- 0 4.0 5.0 11 18
r 0.066839 2 5 tcp 1000 ------- 0 4.0 5.0 8 15
+ 0.066839 5 2 ack 40 ------- 0 5.0 4.0 8 23
- 0.066839 5 2 ack 40 ------- 0 5.0 4.0 8 23
r 0.067322 3 2 tcp 1000 ------- 0 4.0 5.0 12 19
+ 0.067322 2 5 tcp 1000 ------- 0 4.0 5.0 12 19
- 0.067322 2 5 tcp 1000 ------- 0 4.0 5.0 12 19
r 0.06766 2 5 tcp 1000 ------- 0 4.0 5.0 9 16
+ 0.06766 5 2 ack 40 ------- 0 5.0 4.0 9 24
- 0.06766 5 2 ack 40 ------- 0 5.0 4.0 9 24
r 0.06805 5 2 ack 40 ------- 0 5.0 4.0 7 22
h 0.06805 2 3 ack 40 ------- 0 5.0 4.0 7 22
r 0.068143 3 2 tcp 1000 ------- 0 4.0 5.0 13 20
+ 0.068143 2 5 tcp 1000 ------- 0 4.0 5.0 13 20
- 0.068143 2 5 tcp 1000 ------- 0 4.0 5.0 13 20
r 0.068481 2 5 tcp 1000 ------- 0 4.0 5.0 10 17
+ 0.068481 5 2 ack 40 ------- 0 5.0 4.0 10 25
- 0.068481 5 2 ack 40 ------- 0 5.0 4.0 10 25
r 0.068871 5 2 ack 40 ------- 0 5.0 4.0 8 23
h 0.068871 2 3 ack 40 ------- 0 5.0 4.0 8 23
r 0.068964 3 2 tcp 1000 ------- 0 4.0 5.0 14 21
+ 0.068964 2 5 tcp 1000 ------- 0 4.0 5.0 14 21
- 0.068964 2 5 tcp 1000 ------- 0 4.0 5.0 14 21
r 0.069302 2 5 tcp 1000 ------- 0 4.0 5.0 11 18
+ 0.069302 5 2 ack 40 ------- 0 5.0 4.0 11 26
- 0.069302 5 2 ack 40 ------- 0 5.0 4.0 11 26
r 0.069692 5 2 ack 40 ------- 0 5.0 4.0 9 24
h 0.069692 2 3 ack 40 ------- 0 5.0 4.0 9 24
+ 0.07005 2 3 ack 40 ------- 0 5.0 4.0 7 22
- 0.07005 2 3 ack 40 ------- 0 5.0 4.0 7 22
r 0.070122 2 5 tcp 1000 ------- 0 4.0 5.0 12 19
+ 0.070122 5 2 ack 40 ------- 0 5.0 4.0 12 27
- 0.070122 5 2 ack 40 ------- 0 5.0 4.0 12 27
r 0.070513 5 2 ack 40 ------- 0 5.0 4.0 10 25
h 0.070513 2 3 ack 40 ------- 0 5.0 4.0 10 25
+ 0.070871 2 3 ack 40 ------- 0 5.0 4.0 8 23
- 0.070871 2 3 ack 40 ------- 0 5.0 4.0 8 23
r 0.070943 2 5 tcp 1000 ------- 0 4.0 5.0 13 20
+ 0.070943 5 2 ack 40 ------- 0 5.0 4.0 13 28
- 0.070943 5 2 ack 40 ------- 0 5.0 4.0 13 28
r 0.071334 5 2 ack 40 ------- 0 5.0 4.0 11 26
h 0.071334 2 3 ack 40 ------- 0 5.0 4.0 11 26
+ 0.071692 2 3 ack 40 ------- 0 5.0 4.0 9 24
- 0.071692 2 3 ack 40 ------- 0 5.0 4.0 9 24
r 0.071764 2 5 tcp 1000 ------- 0 4.0 5.0 14 21
+ 0.071764 5 2 ack 40 ------- 0 5.0 4.0 14 29
- 0.071764 5 2 ack 40 ------- 0 5.0 4.0 14 29
r 0.072106 3 1 ack 40 ------- 0 5.0 4.0 7 22
+ 0.072106 1 4 ack 40 ------- 0 5.0 4.0 7 22
- 0.072106 1 4 ack 40 ------- 0 5.0 4.0 7 22
r 0.072154 5 2 ack 40 ------- 0 5.0 4.0 12 27
h 0.072154 2 3 ack 40 ------- 0 5.0 4.0 12 27
+ 0.072513 2 3 ack 40 ------- 0 5.0 4.0 10 25
- 0.072513 2 3 ack 40 ------- 0 5.0 4.0 10 25
r 0.072926 3 1 ack 40 ------- 0 5.0 4.0 8 23
+ 0.072926 1 4 ack 40 ------- 0 5.0 4.0 8 23
- 0.072926 1 4 ack 40 ------- 0 5.0 4.0 8 23
r 0.072975 5 2 ack 40 ------- 0 5.0 4.0 13 28
h 0.072975 2 3 ack 40 ------- 0 5.0 4.0 13 28
+ 0.073334 2 3 ack 40 ------- 0 5.0 4.0 11 26
- 0.073334 2 3 ack 40 ------- 0 5.0 4.0 11 26
r 0.073747 3 1 ack 40 ------- 0 5.0 4.0 9 24
+ 0.073747 1 4 ack 40 ------- 0 5.0 4.0 9 24
- 0.073747 1 4 ack 40 ------- 0 5.0 4.0 9 24
r 0.073796 5 2 ack 40 ------- 0 5.0 4.0 14 29
h 0.073796 2 3 ack 40 ------- 0 5.0 4.0 14 29
r 0.074138 1 4 ack 40 ------- 0 5.0 4.0 7 22
+ 0.074138 4 1 tcp 1000 ------- 0 4.0 5.0 15 30
- 0.074138 4 1 tcp 1000 ------- 0 4.0 5.0 15 30
+ 0.074138 4 1 tcp 1000 ------- 0 4.0 5.0 16 31
+ 0.074154 2 3 ack 40 ------- 0 5.0 4.0 12 27
- 0.074154 2 3 ack 40 ------- 0 5.0 4.0 12 27
r 0.074568 3 1 ack 40 ------- 0 5.0 4.0 10 25
+ 0.074568 1 4 ack 40 ------- 0 5.0 4.0 10 25
- 0.074568 1 4 ack 40 ------- 0 5.0 4.0 10 25
- 0.074938 4 1 tcp 1000 ------- 0 4.0 5.0 16 31
r 0.074958 1 4 ack 40 ------- 0 5.0 4.0 8 23
+ 0.074958 4 1 tcp 1000 ------- 0 4.0 5.0 17 32
+ 0.074958 4 1 tcp 1000 ------- 0 4.0 5.0 18 33
+ 0.074975 2 3 ack 40 ------- 0 5.0 4.0 13 28
- 0.074975 2 3 ack 40 ------- 0 5.0 4.0 13 28
r 0.075389 3 1 ack 40 ------- 0 5.0 4.0 11 26
+ 0.075389 1 4 ack 40 ------- 0 5.0 4.0 11 26
- 0.075389 1 4 ack 40 ------- 0 5.0 4.0 11 26
- 0.075738 4 1 tcp 1000 ------- 0 4.0 5.0 17 32
r 0.075779 1 4 ack 40 ------- 0 5.0 4.0 9 24
+ 0.075779 4 1 tcp 1000 ------- 0 4.0 5.0 19 34
+ 0.075779 4 1 tcp 1000 ------- 0 4.0 5.0 20 35
+ 0.075796 2 3 ack 40 ------- 0 5.0 4.0 14 29
- 0.075796 2 3 ack 40 ------- 0 5.0 4.0 14 29
r 0.07621 3 1 ack 40 ------- 0 5.0 4.0 12 27
+ 0.07621 1 4 ack 40 ------- 0 5.0 4.0 12 27
- 0.07621 1 4 ack 40 ------- 0 5.0 4.0 12 27
- 0.076538 4 1 tcp 1000 ------- 0 4.0 5.0 18 33
r 0.0766 1 4 ack 40 ------- 0 5.0 4.0 10 25
+ 0.0766 4 1 tcp 1000 ------- 0 4.0 5.0 21 36
+ 0.0766 4 1 tcp 1000 ------- 0 4.0 5.0 22 37
r 0.076938 4 1 tcp 1000 ------- 0 4.0 5.0 15 30
h 0.076938 1 3 tcp 1000 ------- 0 4.0 5.0 15 30
r 0.07703 3 1 ack 40 ------- 0 5.0 4.0 13 28
+ 0.07703 1 4 ack 40 ------- 0 5.0 4.0 13 28
- 0.07703 1 4 ack 40 ------- 0 5.0 4.0 13 28
- 0.077338 4 1 tcp 1000 ------- 0 4.0 5.0 19 34
r 0.077421 1 4 ack 40 ------- 0 5.0 4.0 11 26
+ 0.077421 4 1 tcp 1000 ------- 0 4.0 5.0 23 38
+ 0.077421 4 1 tcp 1000 ------- 0 4.0 5.0 24 39
r 0.077738 4 1 tcp 1000 ------- 0 4.0 5.0 16 31
h 0.077738 1 3 tcp 1000 ------- 0 4.0 5.0 16 31
r 0.077851 3 1 ack 40 ------- 0 5.0 4.0 14 29
+ 0.077851 1 4 ack 40 ------- 0 5.0 4.0 14 29
- 0.077851 1 4 ack 40 ------- 0 5.0 4.0 14 29
- 0.078138 4 1 tcp 1000 ------- 0 4.0 5.0 20 35
r 0.078242 1 4 ack 40 ------- 0 5.0 4.0 12 27
+ 0.078242 4 1 tcp 1000 ------- 0 4.0 5.0 25 40
+ 0.078242 4 1 tcp 1000 ------- 0 4.0 5.0 26 41
r 0.078538 4 1 tcp 1000 ------- 0 4.0 5.0 17 32
h 0.078538 1 3 tcp 1000 ------- 0 4.0 5.0 17 32
- 0.078938 4 1 tcp 1000 ------- 0 4.0 5.0 21 36
+ 0.078938 1 3 tcp 1000 ------- 0 4.0 5.0 15 30
- 0.078938 1 3 tcp 1000 ------- 0 4.0 5.0 15 30
r 0.079062 1 4 ack 40 ------- 0 5.0 4.0 13 28
+ 0.079062 4 1 tcp 1000 ------- 0 4.0 5.0 27 42
+ 0.079062 4 1 tcp 1000 ------- 0 4.0 5.0 28 43
r 0.079338 4 1 tcp 1000 ------- 0 4.0 5.0 18 33
h 0.079338 1 3 tcp 1000 ------- 0 4.0 5.0 18 33
- 0.079738 4 1 tcp 1000 ------- 0 4.0 5.0 22 37
+ 0.079738 1 3 tcp 1000 ------- 0 4.0 5.0 16 31
- 0.079758 1 3 tcp 1000 ------- 0 4.0 5.0 16 31
r 0.079883 1 4 ack 40 ------- 0 5.0 4.0 14 29
+ 0.079883 4 1 tcp 1000 ------- 0 4.0 5.0 29 44
+ 0.079883 4 1 tcp 1000 ------- 0 4.0 5.0 30 45
r 0.080138 4 1 tcp 1000 ------- 0 4.0 5.0 19 34
h 0.080138 1 3 tcp 1000 ------- 0 4.0 5.0 19 34
- 0.080538 4 1 tcp 1000 ------- 0 4.0 5.0 23 38
+ 0.080538 1 3 tcp 1000 ------- 0 4.0 5.0 17 32
- 0.080579 1 3 tcp 1000 ------- 0 4.0 5.0 17 32
r 0.080938 4 1 tcp 1000 ------- 0 4.0 5.0 20 35
h 0.080938 1 3 tcp 1000 ------- 0 4.0 5.0 20 35
- 0.081338 4 1 tcp 1000 ------- 0 4.0 5.0 24 39
+ 0.081338 1 3 tcp 1000 ------- 0 4.0 5.0 18 33
- 0.0814 1 3 tcp 1000 ------- 0 4.0 5.0 18 33
r 0.081738 4 1 tcp 1000 ------- 0 4.0 5.0 21 36
h 0.081738 1 3 tcp 1000 ------- 0 4.0 5.0 21 36
r 0.081753 3 2 tcp 1000 ------- 0 4.0 5.0 15 30
+ 0.081753 2 5 tcp 1000 ------- 0 4.0 5.0 15 30
- 0.081753 2 5 tcp 1000 ------- 0 4.0 5.0 15 30
- 0.082138 4 1 tcp 1000 ------- 0 4.0 5.0 25 40
+ 0.082138 1 3 tcp 1000 ------- 0 4.0 5.0 19 34
- 0.082221 1 3 tcp 1000 ------- 0 4.0 5.0 19 34
r 0.082538 4 1 tcp 1000 ------- 0 4.0 5.0 22 37
h 0.082538 1 3 tcp 1000 ------- 0 4.0 5.0 22 37
r 0.082574 3 2 tcp 1000 ------- 0 4.0 5.0 16 31
+ 0.082574 2 5 tcp 1000 ------- 0 4.0 5.0 16 31
- 0.082574 2 5 tcp 1000 ------- 0 4.0 5.0 16 31
- 0.082938 4 1 tcp 1000 ------- 0 4.0 5.0 26 41
+ 0.082938 1 3 tcp 1000 ------- 0 4.0 5.0 20 35
- 0.083042 1 3 tcp 1000 ------- 0 4.0 5.0 20 35
r 0.083338 4 1 tcp 1000 ------- 0 4.0 5.0 23 38
h 0.083338 1 3 tcp 1000 ------- 0 4.0 5.0 23 38
r 0.083394 3 2 tcp 1000 ------- 0 4.0 5.0 17 32
+ 0.083394 2 5 tcp 1000 ------- 0 4.0 5.0 17 32
- 0.083394 2 5 tcp 1000 ------- 0 4.0 5.0 17 32
- 0.083738 4 1 tcp 1000 ------- 0 4.0 5.0 27 42
+ 0.083738 1 3 tcp 1000 ------- 0 4.0 5.0 21 36
- 0.083862 1 3 tcp 1000 ------- 0 4.0 5.0 21 36
r 0.084138 4 1 tcp 1000 ------- 0 4.0 5.0 24 39
h 0.084138 1 3 tcp 1000 ------- 0 4.0 5.0 24 39
r 0.084215 3 2 tcp 1000 ------- 0 4.0 5.0 18 33
+ 0.084215 2 5 tcp 1000 ------- 0 4.0 5.0 18 33
- 0.084215 2 5 tcp 1000 ------- 0 4.0 5.0 18 33
- 0.084538 4 1 tcp 1000 ------- 0 4.0 5.0 28 43
+ 0.084538 1 3 tcp 1000 ------- 0 4.0 5.0 22 37
r 0.084553 2 5 tcp 1000 ------- 0 4.0 5.0 15 30
+ 0.084553 5 2 ack 40 ------- 0 5.0 4.0 15 46
- 0.084553 5 2 ack 40 ------- 0 5.0 4.0 15 46
- 0.084683 1 3 tcp 1000 ------- 0 4.0 5.0 22 37
r 0.084938 4 1 tcp 1000 ------- 0 4.0 5.0 25 40
h 0.084938 1 3 tcp 1000 ------- 0 4.0 5.0 25 40
r 0.085036 3 2 tcp 1000 ------- 0 4.0 5.0 19 34
+ 0.085036 2 5 tcp 1000 ------- 0 4.0 5.0 19 34
- 0.085036 2 5 tcp 1000 ------- 0 4.0 5.0 19 34
- 0.085338 4 1 tcp 1000 ------- 0 4.0 5.0 29 44
+ 0.085338 1 3 tcp 1000 ------- 0 4.0 5.0 23 38
r 0.085374 2 5 tcp 1000 ------- 0 4.0 5.0 16 31
+ 0.085374 5 2 ack 40 ------- 0 5.0 4.0 16 47
- 0.085374 5 2 ack 40 ------- 0 5.0 4.0 16 47
- 0.085504 1 3 tcp 1000 ------- 0 4.0 5.0 23 38
r 0.085738 4 1 tcp 1000 ------- 0 4.0 5.0 26 41
h 0.085738 1 3 tcp 1000 ------- 0 4.0 5.0 26 41
r 0.085857 3 2 tcp 1000 ------- 0 4.0 5.0 20 35
+ 0.085857 2 5 tcp 1000 ------- 0 4.0 5.0 20 35
- 0.085857 2 5 tcp 1000 ------- 0 4.0 5.0 20 35
- 0.086138 4 1 tcp 1000 ------- 0 4.0 5.0 30 45
+ 0.086138 1 3 tcp 1000 ------- 0 4.0 5.0 24 39
r 0.086194 2 5 tcp 1000 ------- 0 4.0 5.0 17 32
+ 0.086194 5 2 ack 40 ------- 0 5.0 4.0 17 48
- 0.086194 5 2 ack 40 ------- 0 5.0 4.0 17 48
- 0.086325 1 3 tcp 1000 ------- 0 4.0 5.0 24 39
r 0.086538 4 1 tcp 1000 ------- 0 4.0 5.0 27 42
h 0.086538 1 3 tcp 1000 ------- 0 4.0 5.0 27 42
r 0.086585 5 2 ack 40 ------- 0 5.0 4.0 15 46
h 0.086585 2 3 ack 40 ------- 0 5.0 4.0 15 46
r 0.086678 3 2 tcp 1000 ------- 0 4.0 5.0 21 36
+ 0.086678 2 5 tcp 1000 ------- 0 4.0 5.0 21 36
- 0.086678 2 5 tcp 1000 ------- 0 4.0 5.0 21 36
+ 0.086938 1 3 tcp 1000 ------- 0 4.0 5.0 25 40
r 0.087015 2 5 tcp 1000 ------- 0 4.0 5.0 18 33
+ 0.087015 5 2 ack 40 ------- 0 5.0 4.0 18 49
- 0.087015 5 2 ack 40 ------- 0 5.0 4.0 18 49
- 0.087146 1 3 tcp 1000 ------- 0 4.0 5.0 25 40
r 0.087338 4 1 tcp 1000 ------- 0 4.0 5.0 28 43
h 0.087338 1 3 tcp 1000 ------- 0 4.0 5.0 28 43
r 0.087406 5 2 ack 40 ------- 0 5.0 4.0 16 47
h 0.087406 2 3 ack 40 ------- 0 5.0 4.0 16 47
r 0.087498 3 2 tcp 1000 ------- 0 4.0 5.0 22 37
+ 0.087498 2 5 tcp 1000 ------- 0 4.0 5.0 22 37
- 0.087498 2 5 tcp 1000 ------- 0 4.0 5.0 22 37
+ 0.087738 1 3 tcp 1000 ------- 0 4.0 5.0 26 41
r 0.087836 2 5 tcp 1000 ------- 0 4.0 5.0 19 34
+ 0.087836 5 2 ack 40 ------- 0 5.0 4.0 19 50
- 0.087836 5 2 ack 40 ------- 0 5.0 4.0 19 50
- 0.087966 1 3 tcp 1000 ------- 0 4.0 5.0 26 41
r 0.088138 4 1 tcp 1000 ------- 0 4.0 5.0 29 44
h 0.088138 1 3 tcp 1000 ------- 0 4.0 5.0 29 44
r 0.088226 5 2 ack 40 ------- 0 5.0 4.0 17 48
h 0.088226 2 3 ack 40 ------- 0 5.0 4.0 17 48
r 0.088319 3 2 tcp 1000 ------- 0 4.0 5.0 23 38
+ 0.088319 2 5 tcp 1000 ------- 0 4.0 5.0 23 38
- 0.088319 2 5 tcp 1000 ------- 0 4.0 5.0 23 38
+ 0.088538 1 3 tcp 1000 ------- 0 4.0 5.0 27 42
+ 0.088585 2 3 ack 40 ------- 0 5.0 4.0 15 46
- 0.088585 2 3 ack 40 ------- 0 5.0 4.0 15 46
r 0.088657 2 5 tcp 1000 ------- 0 4.0 5.0 20 35
+ 0.088657 5 2 ack 40 ------- 0 5.0 4.0 20 51
- 0.088657 5 2 ack 40 ------- 0 5.0 4.0 20 51
- 0.088787 1 3 tcp 1000 ------- 0 4.0 5.0 27 42
r 0.088938 4 1 tcp 1000 ------- 0 4.0 5.0 30 45
h 0.088938 1 3 tcp 1000 ------- 0 4.0 5.0 30 45
r 0.089047 5 2 ack 40 ------- 0 5.0 4.0 18 49
h 0.089047 2 3 ack 40 ------- 0 5.0 4.0 18 49
r 0.08914 3 2 tcp 1000 ------- 0 4.0 5.0 24 39
+ 0.08914 2 5 tcp 1000 ------- 0 4.0 5.0 24 39
- 0.08914 2 5 tcp 1000 ------- 0 4.0 5.0 24 39
+ 0.089338 1 3 tcp 1000 ------- 0 4.0 5.0 28 43
+ 0.089406 2 3 ack 40 ------- 0 5.0 4.0 16 47
r 0.089478 2 5 tcp 1000 ------- 0 4.0 5.0 21 36
+ 0.089478 5 2 ack 40 ------- 0 5.0 4.0 21 52
- 0.089478 5 2 ack 40 ------- 0 5.0 4.0 21 52
- 0.089629 1 3 tcp 1000 ------- 0 4.0 5.0 28 43
r 0.089868 5 2 ack 40 ------- 0 5.0 4.0 19 50
h 0.089868 2 3 ack 40 ------- 0 5.0 4.0 19 50
r 0.089961 3 2 tcp 1000 ------- 0 4.0 5.0 25 40
+ 0.089961 2 5 tcp 1000 ------- 0 4.0 5.0 25 40
- 0.089961 2 5 tcp 1000 ------- 0 4.0 5.0 25 40
+ 0.090138 1 3 tcp 1000 ------- 0 4.0 5.0 29 44
+ 0.090226 2 3 ack 40 ------- 0 5.0 4.0 17 48
r 0.090298 2 5 tcp 1000 ------- 0 4.0 5.0 22 37
+ 0.090298 5 2 ack 40 ------- 0 5.0 4.0 22 53
- 0.090298 5 2 ack 40 ------- 0 5.0 4.0 22 53
- 0.090522 1 3 tcp 1000 ------- 0 4.0 5.0 29 44
r 0.090689 5 2 ack 40 ------- 0 5.0 4.0 20 51
h 0.090689 2 3 ack 40 ------- 0 5.0 4.0 20 51
r 0.090782 3 2 tcp 1000 ------- 0 4.0 5.0 26 41
+ 0.090782 2 5 tcp 1000 ------- 0 4.0 5.0 26 41
- 0.090782 2 5 tcp 1000 ------- 0 4.0 5.0 26 41
+ 0.090938 1 3 tcp 1000 ------- 0 4.0 5.0 30 45
+ 0.091047 2 3 ack 40 ------- 0 5.0 4.0 18 49
r 0.091119 2 5 tcp 1000 ------- 0 4.0 5.0 23 38
+ 0.091119 5 2 ack 40 ------- 0 5.0 4.0 23 54
- 0.091119 5 2 ack 40 ------- 0 5.0 4.0 23 54
- 0.091363 1 3 tcp 1000 ------- 0 4.0 5.0 30 45
r 0.09151 5 2 ack 40 ------- 0 5.0 4.0 21 52
h 0.09151 2 3 ack 40 ------- 0 5.0 4.0 21 52
r 0.091623 3 2 tcp 1000 ------- 0 4.0 5.0 27 42
+ 0.091623 2 5 tcp 1000 ------- 0 4.0 5.0 27 42
- 0.091623 2 5 tcp 1000 ------- 0 4.0 5.0 27 42
+ 0.091868 2 3 ack 40 ------- 0 5.0 4.0 19 50
r 0.09194 2 5 tcp 1000 ------- 0 4.0 5.0 24 39
+ 0.09194 5 2 ack 40 ------- 0 5.0 4.0 24 55
- 0.09194 5 2 ack 40 ------- 0 5.0 4.0 24 55
- 0.092321 2 3 ack 40 ------- 0 5.0 4.0 16 47
r 0.09233 5 2 ack 40 ------- 0 5.0 4.0 22 53
h 0.09233 2 3 ack 40 ------- 0 5.0 4.0 22 53
- 0.092382 2 3 ack 40 ------- 0 5.0 4.0 17 48
- 0.092442 2 3 ack 40 ------- 0 5.0 4.0 18 49
- 0.092503 2 3 ack 40 ------- 0 5.0 4.0 19 50
r 0.092516 3 2 tcp 1000 ------- 0 4.0 5.0 28 43
+ 0.092516 2 5 tcp 1000 ------- 0 4.0 5.0 28 43
- 0.092516 2 5 tcp 1000 ------- 0 4.0 5.0 28 43
+ 0.092689 2 3 ack 40 ------- 0 5.0 4.0 20 51
- 0.092689 2 3 ack 40 ------- 0 5.0 4.0 20 51
r 0.092761 2 5 tcp 1000 ------- 0 4.0 5.0 25 40
+ 0.092761 5 2 ack 40 ------- 0 5.0 4.0 25 56
- 0.092761 5 2 ack 40 ------- 0 5.0 4.0 25 56
r 0.093151 5 2 ack 40 ------- 0 5.0 4.0 23 54
h 0.093151 2 3 ack 40 ------- 0 5.0 4.0 23 54
r 0.093358 3 2 tcp 1000 ------- 0 4.0 5.0 29 44
+ 0.093358 2 5 tcp 1000 ------- 0 4.0 5.0 29 44
- 0.093358 2 5 tcp 1000 ------- 0 4.0 5.0 29 44
+ 0.09351 2 3 ack 40 ------- 0 5.0 4.0 21 52
- 0.09351 2 3 ack 40 ------- 0 5.0 4.0 21 52
r 0.093582 2 5 tcp 1000 ------- 0 4.0 5.0 26 41
+ 0.093582 5 2 ack 40 ------- 0 5.0 4.0 26 57
- 0.093582 5 2 ack 40 ------- 0 5.0 4.0 26 57
r 0.093972 5 2 ack 40 ------- 0 5.0 4.0 24 55
h 0.093972 2 3 ack 40 ------- 0 5.0 4.0 24 55
r 0.09425 3 2 tcp 1000 ------- 0 4.0 5.0 30 45
+ 0.09425 2 5 tcp 1000 ------- 0 4.0 5.0 30 45
- 0.09425 2 5 tcp 1000 ------- 0 4.0 5.0 30 45
r 0.094315 3 1 ack 40 ------- 0 5.0 4.0 15 46
+ 0.094315 1 4 ack 40 ------- 0 5.0 4.0 15 46
- 0.094315 1 4 ack 40 ------- 0 5.0 4.0 15 46
+ 0.09433 2 3 ack 40 ------- 0 5.0 4.0 22 53
- 0.09433 2 3 ack 40 ------- 0 5.0 4.0 22 53
r 0.094376 3 1 ack 40 ------- 0 5.0 4.0 16 47
+ 0.094376 1 4 ack 40 ------- 0 5.0 4.0 16 47
- 0.094376 1 4 ack 40 ------- 0 5.0 4.0 16 47
r 0.094423 2 5 tcp 1000 ------- 0 4.0 5.0 27 42
+ 0.094423 5 2 ack 40 ------- 0 5.0 4.0 27 58
- 0.094423 5 2 ack 40 ------- 0 5.0 4.0 27 58
r 0.094437 3 1 ack 40 ------- 0 5.0 4.0 17 48
+ 0.094437 1 4 ack 40 ------- 0 5.0 4.0 17 48
- 0.094437 1 4 ack 40 ------- 0 5.0 4.0 17 48
r 0.094498 3 1 ack 40 ------- 0 5.0 4.0 18 49
+ 0.094498 1 4 ack 40 ------- 0 5.0 4.0 18 49
- 0.094498 1 4 ack 40 ------- 0 5.0 4.0 18 49
r 0.094558 3 1 ack 40 ------- 0 5.0 4.0 19 50
+ 0.094558 1 4 ack 40 ------- 0 5.0 4.0 19 50
- 0.094558 1 4 ack 40 ------- 0 5.0 4.0 19 50
r 0.094744 3 1 ack 40 ------- 0 5.0 4.0 20 51
+ 0.094744 1 4 ack 40 ------- 0 5.0 4.0 20 51
- 0.094744 1 4 ack 40 ------- 0 5.0 4.0 20 51
r 0.094793 5 2 ack 40 ------- 0 5.0 4.0 25 56
h 0.094793 2 3 ack 40 ------- 0 5.0 4.0 25 56
+ 0.095151 2 3 ack 40 ------- 0 5.0 4.0 23 54
- 0.095151 2 3 ack 40 ------- 0 5.0 4.0 23 54
r 0.095316 2 5 tcp 1000 ------- 0 4.0 5.0 28 43
+ 0.095316 5 2 ack 40 ------- 0 5.0 4.0 28 59
- 0.095316 5 2 ack 40 ------- 0 5.0 4.0 28 59
r 0.095565 3 1 ack 40 ------- 0 5.0 4.0 21 52
+ 0.095565 1 4 ack 40 ------- 0 5.0 4.0 21 52
- 0.095565 1 4 ack 40 ------- 0 5.0 4.0 21 52
r 0.095614 5 2 ack 40 ------- 0 5.0 4.0 26 57
h 0.095614 2 3 ack 40 ------- 0 5.0 4.0 26 57
+ 0.095972 2 3 ack 40 ------- 0 5.0 4.0 24 55
- 0.095972 2 3 ack 40 ------- 0 5.0 4.0 24 55
r 0.096158 2 5 tcp 1000 ------- 0 4.0 5.0 29 44
+ 0.096158 5 2 ack 40 ------- 0 5.0 4.0 29 60
- 0.096158 5 2 ack 40 ------- 0 5.0 4.0 29 60
r 0.096347 1 4 ack 40 ------- 0 5.0 4.0 15 46
+ 0.096347 4 1 tcp 1000 ------- 0 4.0 5.0 31 61
- 0.096347 4 1 tcp 1000 ------- 0 4.0 5.0 31 61
+ 0.096347 4 1 tcp 1000 ------- 0 4.0 5.0 32 62
r 0.096386 3 1 ack 40 ------- 0 5.0 4.0 22 53
+ 0.096386 1 4 ack 40 ------- 0 5.0 4.0 22 53
- 0.096386 1 4 ack 40 ------- 0 5.0 4.0 22 53
r 0.096408 1 4 ack 40 ------- 0 5.0 4.0 16 47
+ 0.096408 4 1 tcp 1000 ------- 0 4.0 5.0 33 63
+ 0.096408 4 1 tcp 1000 ------- 0 4.0 5.0 34 64
r 0.096455 5 2 ack 40 ------- 0 5.0 4.0 27 58
h 0.096455 2 3 ack 40 ------- 0 5.0 4.0 27 58
r 0.096469 1 4 ack 40 ------- 0 5.0 4.0 17 48
+ 0.096469 4 1 tcp 1000 ------- 0 4.0 5.0 35 65
+ 0.096469 4 1 tcp 1000 ------- 0 4.0 5.0 36 66
r 0.09653 1 4 ack 40 ------- 0 5.0 4.0 18 49
+ 0.09653 4 1 tcp 1000 ------- 0 4.0 5.0 37 67
+ 0.09653 4 1 tcp 1000 ------- 0 4.0 5.0 38 68
r 0.09659 1 4 ack 40 ------- 0 5.0 4.0 19 50
+ 0.09659 4 1 tcp 1000 ------- 0 4.0 5.0 39 69
+ 0.09659 4 1 tcp 1000 ------- 0 4.0 5.0 40 70
r 0.096776 1 4 ack 40 ------- 0 5.0 4.0 20 51
+ 0.096776 4 1 tcp 1000 ------- 0 4.0 5.0 41 71
+ 0.096776 4 1 tcp 1000 ------- 0 4.0 5.0 42 72
+ 0.096793 2 3 ack 40 ------- 0 5.0 4.0 25 56
- 0.096793 2 3 ack 40 ------- 0 5.0 4.0 25 56
r 0.09705 2 5 tcp 1000 ------- 0 4.0 5.0 30 45
+ 0.09705 5 2 ack 40 ------- 0 5.0 4.0 30 73
- 0.09705 5 2 ack 40 ------- 0 5.0 4.0 30 73
- 0.097147 4 1 tcp 1000 ------- 0 4.0 5.0 32 62
r 0.097206 3 1 ack 40 ------- 0 5.0 4.0 23 54
+ 0.097206 1 4 ack 40 ------- 0 5.0 4.0 23 54
- 0.097206 1 4 ack 40 ------- 0 5.0 4.0 23 54
r 0.097348 5 2 ack 40 ------- 0 5.0 4.0 28 59
h 0.097348 2 3 ack 40 ------- 0 5.0 4.0 28 59
r 0.097597 1 4 ack 40 ------- 0 5.0 4.0 21 52
+ 0.097597 4 1 tcp 1000 ------- 0 4.0 5.0 43 74
+ 0.097597 4 1 tcp 1000 ------- 0 4.0 5.0 44 75
+ 0.097614 2 3 ack 40 ------- 0 5.0 4.0 26 57
- 0.097614 2 3 ack 40 ------- 0 5.0 4.0 26 57
- 0.097947 4 1 tcp 1000 ------- 0 4.0 5.0 33 63
r 0.098027 3 1 ack 40 ------- 0 5.0 4.0 24 55
+ 0.098027 1 4 ack 40 ------- 0 5.0 4.0 24 55
- 0.098027 1 4 ack 40 ------- 0 5.0 4.0 24 55
r 0.09819 5 2 ack 40 ------- 0 5.0 4.0 29 60
h 0.09819 2 3 ack 40 ------- 0 5.0 4.0 29 60
r 0.098418 1 4 ack 40 ------- 0 5.0 4.0 22 53
+ 0.098418 4 1 tcp 1000 ------- 0 4.0 5.0 45 76
+ 0.098418 4 1 tcp 1000 ------- 0 4.0 5.0 46 77
+ 0.098455 2 3 ack 40 ------- 0 5.0 4.0 27 58
- 0.098455 2 3 ack 40 ------- 0 5.0 4.0 27 58
- 0.098747 4 1 tcp 1000 ------- 0 4.0 5.0 34 64
r 0.098848 3 1 ack 40 ------- 0 5.0 4.0 25 56
+ 0.098848 1 4 ack 40 ------- 0 5.0 4.0 25 56
- 0.098848 1 4 ack 40 ------- 0 5.0 4.0 25 56
r 0.099082 5 2 ack 40 ------- 0 5.0 4.0 30 73
h 0.099082 2 3 ack 40 ------- 0 5.0 4.0 30 73
r 0.099147 4 1 tcp 1000 ------- 0 4.0 5.0 31 61
h 0.099147 1 3 tcp 1000 ------- 0 4.0 5.0 31 61
r 0.099238 1 4 ack 40 ------- 0 5.0 4.0 23 54
+ 0.099238 4 1 tcp 1000 ------- 0 4.0 5.0 47 78
+ 0.099238 4 1 tcp 1000 ------- 0 4.0 5.0 48 79
+ 0.099348 2 3 ack 40 ------- 0 5.0 4.0 28 59
- 0.099348 2 3 ack 40 ------- 0 5.0 4.0 28 59
- 0.099547 4 1 tcp 1000 ------- 0 4.0 5.0 35 65
r 0.099669 3 1 ack 40 ------- 0 5.0 4.0 26 57
+ 0.099669 1 4 ack 40 ------- 0 5.0 4.0 26 57
- 0.099669 1 4 ack 40 ------- 0 5.0 4.0 26 57
r 0.099947 4 1 tcp 1000 ------- 0 4.0 5.0 32 62
h 0.099947 1 3 tcp 1000 ------- 0 4.0 5.0 32 62
r 0.100059 1 4 ack 40 ------- 0 5.0 4.0 24 55
+ 0.100059 4 1 tcp 1000 ------- 0 4.0 5.0 49 80
+ 0.100059 4 1 tcp 1000 ------- 0 4.0 5.0 50 81
+ 0.10019 2 3 ack 40 ------- 0 5.0 4.0 29 60
- 0.10019 2 3 ack 40 ------- 0 5.0 4.0 29 60
- 0.100347 4 1 tcp 1000 ------- 0 4.0 5.0 36 66
r 0.10051 3 1 ack 40 ------- 0 5.0 4.0 27 58
+ 0.10051 1 4 ack 40 ------- 0 5.0 4.0 27 58
- 0.10051 1 4 ack 40 ------- 0 5.0 4.0 27 58
r 0.100747 4 1 tcp 1000 ------- 0 4.0 5.0 33 63
h 0.100747 1 3 tcp 1000 ------- 0 4.0 5.0 33 63
r 0.10088 1 4 ack 40 ------- 0 5.0 4.0 25 56
+ 0.10088 4 1 tcp 1000 ------- 0 4.0 5.0 51 82
+ 0.10088 4 1 tcp 1000 ------- 0 4.0 5.0 52 83
+ 0.101082 2 3 ack 40 ------- 0 5.0 4.0 30 73
- 0.101082 2 3 ack 40 ------- 0 5.0 4.0 30 73
- 0.101147 4 1 tcp 1000 ------- 0 4.0 5.0 37 67
+ 0.101147 1 3 tcp 1000 ------- 0 4.0 5.0 31 61
- 0.101147 1 3 tcp 1000 ------- 0 4.0 5.0 31 61
r 0.101403 3 1 ack 40 ------- 0 5.0 4.0 28 59
+ 0.101403 1 4 ack 40 ------- 0 5.0 4.0 28 59