h 0 0 4 cbr 210 ------- 0 0.0 1.0 0 0
h 0 2 4 cbr 210 ------- 0 2.0 3.0 0 1
+ 0.001 0 4 cbr 210 ------- 0 0.0 1.0 0 0
- 0.001 0 4 cbr 210 ------- 0 0.0 1.0 0 0
+ 0.001 2 4 cbr 210 ------- 0 2.0 3.0 0 1
- 0.001 2 4 cbr 210 ------- 0 2.0 3.0 0 1
c 0.001004 2 4 cbr 224 ------- 0 0.0 1.0 0 0
c 0.001004 0 4 cbr 224 ------- 0 2.0 3.0 0 1
r 0.0022 4 3 cbr 210 ------- 0 2.0 3.0 0 1
r 0.002393 4 1 cbr 210 ------- 0 0.0 1.0 0 0
h 0.2 0 4 cbr 210 ------- 0 0.0 1.0 1 2
h 0.2 2 4 cbr 210 ------- 0 2.0 3.0 1 3
+ 0.201 0 4 cbr 210 ------- 0 0.0 1.0 1 2
- 0.201 0 4 cbr 210 ------- 0 0.0 1.0 1 2
+ 0.201 2 4 cbr 210 ------- 0 2.0 3.0 1 3
- 0.201 2 4 cbr 210 ------- 0 2.0 3.0 1 3
c 0.201004 2 4 cbr 224 ------- 0 0.0 1.0 1 2
c 0.201004 0 4 cbr 224 ------- 0 2.0 3.0 1 3
r 0.2022 4 3 cbr 210 ------- 0 2.0 3.0 1 3
r 0.202393 4 1 cbr 210 ------- 0 0.0 1.0 1 2
h 0.4 0 4 cbr 210 ------- 0 0.0 1.0 2 4
h 0.4 2 4 cbr 210 ------- 0 2.0 3.0 2 5
+ 0.401 0 4 cbr 210 ------- 0 0.0 1.0 2 4
- 0.401 0 4 cbr 210 ------- 0 0.0 1.0 2 4
+ 0.401 2 4 cbr 210 ------- 0 2.0 3.0 2 5
- 0.401 2 4 cbr 210 ------- 0 2.0 3.0 2 5
c 0.401004 2 4 cbr 224 ------- 0 0.0 1.0 2 4
c 0.401004 0 4 cbr 224 ------- 0 2.0 3.0 2 5
r 0.4022 4 1 cbr 210 ------- 0 0.0 1.0 2 4
r 0.402393 4 3 cbr 210 ------- 0 2.0 3.0 2 5
h 0.6 0 4 cbr 210 ------- 0 0.0 1.0 3 6
h 0.6 2 4 cbr 210 ------- 0 2.0 3.0 3 7
+ 0.601 0 4 cbr 210 ------- 0 0.0 1.0 3 6
- 0.601 0 4 cbr 210 ------- 0 0.0 1.0 3 6
+ 0.601 2 4 cbr 210 ------- 0 2.0 3.0 3 7
- 0.601 2 4 cbr 210 ------- 0 2.0 3.0 3 7
c 0.601004 2 4 cbr 224 ------- 0 0.0 1.0 3 6
c 0.601004 0 4 cbr 224 ------- 0 2.0 3.0 3 7
c 0.601072 0 4 cbr 224 ------- 0 2.0 3.0 3 7
c 0.601072 2 4 cbr 224 ------- 0 0.0 1.0 3 6
r 0.602268 4 3 cbr 210 ------- 0 2.0 3.0 3 7
r 0.602461 4 1 cbr 210 ------- 0 0.0 1.0 3 6
h 0.8 0 4 cbr 210 ------- 0 0.0 1.0 4 8
h 0.8 2 4 cbr 210 ------- 0 2.0 3.0 4 9
+ 0.801 0 4 cbr 210 ------- 0 0.0 1.0 4 8
- 0.801 0 4 cbr 210 ------- 0 0.0 1.0 4 8
+ 0.801 2 4 cbr 210 ------- 0 2.0 3.0 4 9
- 0.801 2 4 cbr 210 ------- 0 2.0 3.0 4 9
c 0.801004 2 4 cbr 224 ------- 0 0.0 1.0 4 8
c 0.801004 0 4 cbr 224 ------- 0 2.0 3.0 4 9
r 0.8022 4 3 cbr 210 ------- 0 2.0 3.0 4 9
r 0.802393 4 1 cbr 210 ------- 0 0.0 1.0 4 8
h 1 0 4 cbr 210 ------- 0 0.0 1.0 5 10
h 1 2 4 cbr 210 ------- 0 2.0 3.0 5 11
+ 1.001 0 4 cbr 210 ------- 0 0.0 1.0 5 10
- 1.001 0 4 cbr 210 ------- 0 0.0 1.0 5 10
+ 1.001 2 4 cbr 210 ------- 0 2.0 3.0 5 11
- 1.001 2 4 cbr 210 ------- 0 2.0 3.0 5 11
c 1.001004 2 4 cbr 224 ------- 0 0.0 1.0 5 10
c 1.001004 0 4 cbr 224 ------- 0 2.0 3.0 5 11
c 1.001021 0 4 cbr 224 ------- 0 2.0 3.0 5 11
c 1.001021 2 4 cbr 224 ------- 0 0.0 1.0 5 10
r 1.002217 4 3 cbr 210 ------- 0 2.0 3.0 5 11
r 1.00241 4 1 cbr 210 ------- 0 0.0 1.0 5 10
h 1.2 0 4 cbr 210 ------- 0 0.0 1.0 6 12
h 1.2 2 4 cbr 210 ------- 0 2.0 3.0 6 13
+ 1.201 0 4 cbr 210 ------- 0 0.0 1.0 6 12
- 1.201 0 4 cbr 210 ------- 0 0.0 1.0 6 12
+ 1.201 2 4 cbr 210 ------- 0 2.0 3.0 6 13
- 1.201 2 4 cbr 210 ------- 0 2.0 3.0 6 13
c 1.201004 2 4 cbr 224 ------- 0 0.0 1.0 6 12
c 1.201004 0 4 cbr 224 ------- 0 2.0 3.0 6 13
c 1.201072 0 4 cbr 224 ------- 0 2.0 3.0 6 13
c 1.201072 2 4 cbr 224 ------- 0 0.0 1.0 6 12
r 1.202268 4 1 cbr 210 ------- 0 0.0 1.0 6 12
r 1.202461 4 3 cbr 210 ------- 0 2.0 3.0 6 13
h 1.4 0 4 cbr 210 ------- 0 0.0 1.0 7 14
h 1.4 2 4 cbr 210 ------- 0 2.0 3.0 7 15
+ 1.401 0 4 cbr 210 ------- 0 0.0 1.0 7 14
- 1.401 0 4 cbr 210 ------- 0 0.0 1.0 7 14
+ 1.401 2 4 cbr 210 ------- 0 2.0 3.0 7 15
- 1.401 2 4 cbr 210 ------- 0 2.0 3.0 7 15
c 1.401004 2 4 cbr 224 ------- 0 0.0 1.0 7 14
c 1.401004 0 4 cbr 224 ------- 0 2.0 3.0 7 15
r 1.4022 4 3 cbr 210 ------- 0 2.0 3.0 7 15
r 1.402393 4 1 cbr 210 ------- 0 0.0 1.0 7 14
h 1.6 0 4 cbr 210 ------- 0 0.0 1.0 8 16
h 1.6 2 4 cbr 210 ------- 0 2.0 3.0 8 17
+ 1.601 0 4 cbr 210 ------- 0 0.0 1.0 8 16
- 1.601 0 4 cbr 210 ------- 0 0.0 1.0 8 16
+ 1.601 2 4 cbr 210 ------- 0 2.0 3.0 8 17
- 1.601 2 4 cbr 210 ------- 0 2.0 3.0 8 17
c 1.601004 2 4 cbr 224 ------- 0 0.0 1.0 8 16
c 1.601004 0 4 cbr 224 ------- 0 2.0 3.0 8 17
r 1.6022 4 1 cbr 210 ------- 0 0.0 1.0 8 16
r 1.602393 4 3 cbr 210 ------- 0 2.0 3.0 8 17
h 1.8 0 4 cbr 210 ------- 0 0.0 1.0 9 18
h 1.8 2 4 cbr 210 ------- 0 2.0 3.0 9 19
+ 1.801 0 4 cbr 210 ------- 0 0.0 1.0 9 18
- 1.801 0 4 cbr 210 ------- 0 0.0 1.0 9 18
+ 1.801 2 4 cbr 210 ------- 0 2.0 3.0 9 19
- 1.801 2 4 cbr 210 ------- 0 2.0 3.0 9 19
c 1.801004 2 4 cbr 224 ------- 0 0.0 1.0 9 18
c 1.801004 0 4 cbr 224 ------- 0 2.0 3.0 9 19
c 1.801072 0 4 cbr 224 ------- 0 2.0 3.0 9 19
c 1.801072 2 4 cbr 224 ------- 0 0.0 1.0 9 18
c 1.80114 2 4 cbr 224 ------- 0 0.0 1.0 9 18
c 1.80114 0 4 cbr 224 ------- 0 2.0 3.0 9 19
r 1.802438 4 3 cbr 210 ------- 0 2.0 3.0 9 19
r 1.802631 4 1 cbr 210 ------- 0 0.0 1.0 9 18
h 2 0 4 cbr 210 ------- 0 0.0 1.0 10 20
h 2 2 4 cbr 210 ------- 0 2.0 3.0 10 21
+ 2.001 0 4 cbr 210 ------- 0 0.0 1.0 10 20
- 2.001 0 4 cbr 210 ------- 0 0.0 1.0 10 20
+ 2.001 2 4 cbr 210 ------- 0 2.0 3.0 10 21
- 2.001 2 4 cbr 210 ------- 0 2.0 3.0 10 21
c 2.001004 2 4 cbr 224 ------- 0 0.0 1.0 10 20
c 2.001004 0 4 cbr 224 ------- 0 2.0 3.0 10 21
c 2.001072 0 4 cbr 224 ------- 0 2.0 3.0 10 21
c 2.001072 2 4 cbr 224 ------- 0 0.0 1.0 10 20
r 2.002319 4 3 cbr 210 ------- 0 2.0 3.0 10 21
r 2.002512 4 1 cbr 210 ------- 0 0.0 1.0 10 20
h 2.2 0 4 cbr 210 ------- 0 0.0 1.0 11 22
h 2.2 2 4 cbr 210 ------- 0 2.0 3.0 11 23
+ 2.201 0 4 cbr 210 ------- 0 0.0 1.0 11 22
- 2.201 0 4 cbr 210 ------- 0 0.0 1.0 11 22
+ 2.201 2 4 cbr 210 ------- 0 2.0 3.0 11 23
- 2.201 2 4 cbr 210 ------- 0 2.0 3.0 11 23
c 2.201004 2 4 cbr 224 ------- 0 0.0 1.0 11 22
c 2.201004 0 4 cbr 224 ------- 0 2.0 3.0 11 23
c 2.201072 0 4 cbr 224 ------- 0 2.0 3.0 11 23
c 2.201072 2 4 cbr 224 ------- 0 0.0 1.0 11 22
r 2.202268 4 1 cbr 210 ------- 0 0.0 1.0 11 22
r 2.202461 4 3 cbr 210 ------- 0 2.0 3.0 11 23
h 2.4 0 4 cbr 210 ------- 0 0.0 1.0 12 24
h 2.4 2 4 cbr 210 ------- 0 2.0 3.0 12 25
+ 2.401 0 4 cbr 210 ------- 0 0.0 1.0 12 24
- 2.401 0 4 cbr 210 ------- 0 0.0 1.0 12 24
+ 2.401 2 4 cbr 210 ------- 0 2.0 3.0 12 25
- 2.401 2 4 cbr 210 ------- 0 2.0 3.0 12 25
c 2.401004 2 4 cbr 224 ------- 0 0.0 1.0 12 24
c 2.401004 0 4 cbr 224 ------- 0 2.0 3.0 12 25
r 2.4022 4 3 cbr 210 ------- 0 2.0 3.0 12 25
r 2.402393 4 1 cbr 210 ------- 0 0.0 1.0 12 24
h 2.6 0 4 cbr 210 ------- 0 0.0 1.0 13 26
h 2.6 2 4 cbr 210 ------- 0 2.0 3.0 13 27
+ 2.601 0 4 cbr 210 ------- 0 0.0 1.0 13 26
- 2.601 0 4 cbr 210 ------- 0 0.0 1.0 13 26
+ 2.601 2 4 cbr 210 ------- 0 2.0 3.0 13 27
- 2.601 2 4 cbr 210 ------- 0 2.0 3.0 13 27
c 2.601004 2 4 cbr 224 ------- 0 0.0 1.0 13 26
c 2.601004 0 4 cbr 224 ------- 0 2.0 3.0 13 27
c 2.601072 0 4 cbr 224 ------- 0 2.0 3.0 13 27
c 2.601072 2 4 cbr 224 ------- 0 0.0 1.0 13 26
r 2.60237 4 1 cbr 210 ------- 0 0.0 1.0 13 26
r 2.602563 4 3 cbr 210 ------- 0 2.0 3.0 13 27
h 2.8 0 4 cbr 210 ------- 0 0.0 1.0 14 28
h 2.8 2 4 cbr 210 ------- 0 2.0 3.0 14 29
+ 2.801 0 4 cbr 210 ------- 0 0.0 1.0 14 28
- 2.801 0 4 cbr 210 ------- 0 0.0 1.0 14 28
+ 2.801 2 4 cbr 210 ------- 0 2.0 3.0 14 29
- 2.801 2 4 cbr 210 ------- 0 2.0 3.0 14 29
c 2.801004 2 4 cbr 224 ------- 0 0.0 1.0 14 28
c 2.801004 0 4 cbr 224 ------- 0 2.0 3.0 14 29
c 2.801072 0 4 cbr 224 ------- 0 2.0 3.0 14 29
c 2.801072 2 4 cbr 224 ------- 0 0.0 1.0 14 28
c 2.801089 2 4 cbr 224 ------- 0 0.0 1.0 14 28
c 2.801089 0 4 cbr 224 ------- 0 2.0 3.0 14 29
r 2.80249 4 1 cbr 210 ------- 0 0.0 1.0 14 28
r 2.802682 4 3 cbr 210 ------- 0 2.0 3.0 14 29
