+ 0.1 4 0 cbr 210 ------- 0 4.0 5.0 0 0
- 0.1 4 0 cbr 210 ------- 0 4.0 5.0 0 0
r 0.102168 4 0 cbr 210 ------- 0 4.0 5.0 0 0
h 0.102168 0 3 cbr 210 ------- 0 4.0 5.0 0 0
+ 0.10375 4 0 cbr 210 ------- 0 4.0 5.0 1 1
- 0.10375 4 0 cbr 210 ------- 0 4.0 5.0 1 1
+ 0.104168 0 3 cbr 210 ------- 0 4.0 5.0 0 0
- 0.104168 0 3 cbr 210 ------- 0 4.0 5.0 0 0
d 0.104172 2 3 cbr 210 ------- 0 4.0 5.0 0 0
r 0.105918 4 0 cbr 210 ------- 0 4.0 5.0 1 1
h 0.105918 0 3 cbr 210 ------- 0 4.0 5.0 1 1
r 0.106172 3 1 cbr 210 ------- 0 4.0 5.0 0 0
+ 0.106172 1 5 cbr 210 ------- 0 4.0 5.0 0 0
- 0.106172 1 5 cbr 210 ------- 0 4.0 5.0 0 0
+ 0.1075 4 0 cbr 210 ------- 0 4.0 5.0 2 2
- 0.1075 4 0 cbr 210 ------- 0 4.0 5.0 2 2
r 0.107754 1 5 cbr 210 ------- 0 4.0 5.0 0 0
+ 0.107918 0 3 cbr 210 ------- 0 4.0 5.0 1 1
- 0.107918 0 3 cbr 210 ------- 0 4.0 5.0 1 1
d 0.107922 2 3 cbr 210 ------- 0 4.0 5.0 1 1
r 0.109668 4 0 cbr 210 ------- 0 4.0 5.0 2 2
h 0.109668 0 3 cbr 210 ------- 0 4.0 5.0 2 2
r 0.109922 3 1 cbr 210 ------- 0 4.0 5.0 1 1
+ 0.109922 1 5 cbr 210 ------- 0 4.0 5.0 1 1
- 0.109922 1 5 cbr 210 ------- 0 4.0 5.0 1 1
+ 0.11125 4 0 cbr 210 ------- 0 4.0 5.0 3 3
- 0.11125 4 0 cbr 210 ------- 0 4.0 5.0 3 3
r 0.111504 1 5 cbr 210 ------- 0 4.0 5.0 1 1
+ 0.111668 0 3 cbr 210 ------- 0 4.0 5.0 2 2
- 0.111668 0 3 cbr 210 ------- 0 4.0 5.0 2 2
d 0.111672 2 3 cbr 210 ------- 0 4.0 5.0 2 2
r 0.113418 4 0 cbr 210 ------- 0 4.0 5.0 3 3
h 0.113418 0 3 cbr 210 ------- 0 4.0 5.0 3 3
r 0.113672 3 1 cbr 210 ------- 0 4.0 5.0 2 2
+ 0.113672 1 5 cbr 210 ------- 0 4.0 5.0 2 2
- 0.113672 1 5 cbr 210 ------- 0 4.0 5.0 2 2
+ 0.115 4 0 cbr 210 ------- 0 4.0 5.0 4 4
- 0.115 4 0 cbr 210 ------- 0 4.0 5.0 4 4
r 0.115254 1 5 cbr 210 ------- 0 4.0 5.0 2 2
+ 0.115418 0 3 cbr 210 ------- 0 4.0 5.0 3 3
- 0.115418 0 3 cbr 210 ------- 0 4.0 5.0 3 3
d 0.115422 2 3 cbr 210 ------- 0 4.0 5.0 3 3
r 0.117168 4 0 cbr 210 ------- 0 4.0 5.0 4 4
h 0.117168 0 3 cbr 210 ------- 0 4.0 5.0 4 4
r 0.117422 3 1 cbr 210 ------- 0 4.0 5.0 3 3
+ 0.117422 1 5 cbr 210 ------- 0 4.0 5.0 3 3
- 0.117422 1 5 cbr 210 ------- 0 4.0 5.0 3 3
+ 0.11875 4 0 cbr 210 ------- 0 4.0 5.0 5 5
- 0.11875 4 0 cbr 210 ------- 0 4.0 5.0 5 5
r 0.119004 1 5 cbr 210 ------- 0 4.0 5.0 3 3
+ 0.119168 0 3 cbr 210 ------- 0 4.0 5.0 4 4
- 0.119168 0 3 cbr 210 ------- 0 4.0 5.0 4 4
d 0.119172 2 3 cbr 210 ------- 0 4.0 5.0 4 4
r 0.120918 4 0 cbr 210 ------- 0 4.0 5.0 5 5
h 0.120918 0 3 cbr 210 ------- 0 4.0 5.0 5 5
r 0.121172 3 1 cbr 210 ------- 0 4.0 5.0 4 4
+ 0.121172 1 5 cbr 210 ------- 0 4.0 5.0 4 4
- 0.121172 1 5 cbr 210 ------- 0 4.0 5.0 4 4
+ 0.1225 4 0 cbr 210 ------- 0 4.0 5.0 6 6
- 0.1225 4 0 cbr 210 ------- 0 4.0 5.0 6 6
r 0.122754 1 5 cbr 210 ------- 0 4.0 5.0 4 4
+ 0.122918 0 3 cbr 210 ------- 0 4.0 5.0 5 5
- 0.122918 0 3 cbr 210 ------- 0 4.0 5.0 5 5
d 0.122922 2 3 cbr 210 ------- 0 4.0 5.0 5 5
r 0.124668 4 0 cbr 210 ------- 0 4.0 5.0 6 6
h 0.124668 0 3 cbr 210 ------- 0 4.0 5.0 6 6
r 0.124922 3 1 cbr 210 ------- 0 4.0 5.0 5 5
+ 0.124922 1 5 cbr 210 ------- 0 4.0 5.0 5 5
- 0.124922 1 5 cbr 210 ------- 0 4.0 5.0 5 5
+ 0.12625 4 0 cbr 210 ------- 0 4.0 5.0 7 7
- 0.12625 4 0 cbr 210 ------- 0 4.0 5.0 7 7
r 0.126504 1 5 cbr 210 ------- 0 4.0 5.0 5 5
+ 0.126668 0 3 cbr 210 ------- 0 4.0 5.0 6 6
- 0.126668 0 3 cbr 210 ------- 0 4.0 5.0 6 6
d 0.126672 2 3 cbr 210 ------- 0 4.0 5.0 6 6
r 0.128418 4 0 cbr 210 ------- 0 4.0 5.0 7 7
h 0.128418 0 3 cbr 210 ------- 0 4.0 5.0 7 7
r 0.128672 3 1 cbr 210 ------- 0 4.0 5.0 6 6
+ 0.128672 1 5 cbr 210 ------- 0 4.0 5.0 6 6
- 0.128672 1 5 cbr 210 ------- 0 4.0 5.0 6 6
+ 0.13 4 0 cbr 210 ------- 0 4.0 5.0 8 8
- 0.13 4 0 cbr 210 ------- 0 4.0 5.0 8 8
r 0.130254 1 5 cbr 210 ------- 0 4.0 5.0 6 6
+ 0.130418 0 3 cbr 210 ------- 0 4.0 5.0 7 7
- 0.130418 0 3 cbr 210 ------- 0 4.0 5.0 7 7
d 0.130422 2 3 cbr 210 ------- 0 4.0 5.0 7 7
r 0.132168 4 0 cbr 210 ------- 0 4.0 5.0 8 8
h 0.132168 0 3 cbr 210 ------- 0 4.0 5.0 8 8
r 0.132422 3 1 cbr 210 ------- 0 4.0 5.0 7 7
+ 0.132422 1 5 cbr 210 ------- 0 4.0 5.0 7 7
- 0.132422 1 5 cbr 210 ------- 0 4.0 5.0 7 7
+ 0.13375 4 0 cbr 210 ------- 0 4.0 5.0 9 9
- 0.13375 4 0 cbr 210 ------- 0 4.0 5.0 9 9
r 0.134004 1 5 cbr 210 ------- 0 4.0 5.0 7 7
+ 0.134168 0 3 cbr 210 ------- 0 4.0 5.0 8 8
- 0.134168 0 3 cbr 210 ------- 0 4.0 5.0 8 8
d 0.134172 2 3 cbr 210 ------- 0 4.0 5.0 8 8
r 0.135918 4 0 cbr 210 ------- 0 4.0 5.0 9 9
h 0.135918 0 3 cbr 210 ------- 0 4.0 5.0 9 9
r 0.136172 3 1 cbr 210 ------- 0 4.0 5.0 8 8
+ 0.136172 1 5 cbr 210 ------- 0 4.0 5.0 8 8
- 0.136172 1 5 cbr 210 ------- 0 4.0 5.0 8 8
+ 0.1375 4 0 cbr 210 ------- 0 4.0 5.0 10 10
- 0.1375 4 0 cbr 210 ------- 0 4.0 5.0 10 10
r 0.137754 1 5 cbr 210 ------- 0 4.0 5.0 8 8
+ 0.137918 0 3 cbr 210 ------- 0 4.0 5.0 9 9
- 0.137918 0 3 cbr 210 ------- 0 4.0 5.0 9 9
d 0.137922 2 3 cbr 210 ------- 0 4.0 5.0 9 9
r 0.139668 4 0 cbr 210 ------- 0 4.0 5.0 10 10
h 0.139668 0 3 cbr 210 ------- 0 4.0 5.0 10 10
r 0.139922 3 1 cbr 210 ------- 0 4.0 5.0 9 9
+ 0.139922 1 5 cbr 210 ------- 0 4.0 5.0 9 9
- 0.139922 1 5 cbr 210 ------- 0 4.0 5.0 9 9
+ 0.14125 4 0 cbr 210 ------- 0 4.0 5.0 11 11
- 0.14125 4 0 cbr 210 ------- 0 4.0 5.0 11 11
r 0.141504 1 5 cbr 210 ------- 0 4.0 5.0 9 9
+ 0.141668 0 3 cbr 210 ------- 0 4.0 5.0 10 10
- 0.141668 0 3 cbr 210 ------- 0 4.0 5.0 10 10
d 0.141672 2 3 cbr 210 ------- 0 4.0 5.0 10 10
r 0.143418 4 0 cbr 210 ------- 0 4.0 5.0 11 11
h 0.143418 0 3 cbr 210 ------- 0 4.0 5.0 11 11
r 0.143672 3 1 cbr 210 ------- 0 4.0 5.0 10 10
+ 0.143672 1 5 cbr 210 ------- 0 4.0 5.0 10 10
- 0.143672 1 5 cbr 210 ------- 0 4.0 5.0 10 10
+ 0.145 4 0 cbr 210 ------- 0 4.0 5.0 12 12
- 0.145 4 0 cbr 210 ------- 0 4.0 5.0 12 12
r 0.145254 1 5 cbr 210 ------- 0 4.0 5.0 10 10
+ 0.145418 0 3 cbr 210 ------- 0 4.0 5.0 11 11
- 0.145418 0 3 cbr 210 ------- 0 4.0 5.0 11 11
d 0.145422 2 3 cbr 210 ------- 0 4.0 5.0 11 11
r 0.147168 4 0 cbr 210 ------- 0 4.0 5.0 12 12
h 0.147168 0 3 cbr 210 ------- 0 4.0 5.0 12 12
r 0.147422 3 1 cbr 210 ------- 0 4.0 5.0 11 11
+ 0.147422 1 5 cbr 210 ------- 0 4.0 5.0 11 11
- 0.147422 1 5 cbr 210 ------- 0 4.0 5.0 11 11
+ 0.14875 4 0 cbr 210 ------- 0 4.0 5.0 13 13
- 0.14875 4 0 cbr 210 ------- 0 4.0 5.0 13 13
r 0.149004 1 5 cbr 210 ------- 0 4.0 5.0 11 11
+ 0.149168 0 3 cbr 210 ------- 0 4.0 5.0 12 12
- 0.149168 0 3 cbr 210 ------- 0 4.0 5.0 12 12
d 0.149172 2 3 cbr 210 ------- 0 4.0 5.0 12 12
r 0.150918 4 0 cbr 210 ------- 0 4.0 5.0 13 13
h 0.150918 0 3 cbr 210 ------- 0 4.0 5.0 13 13
r 0.151172 3 1 cbr 210 ------- 0 4.0 5.0 12 12
+ 0.151172 1 5 cbr 210 ------- 0 4.0 5.0 12 12
- 0.151172 1 5 cbr 210 ------- 0 4.0 5.0 12 12
+ 0.1525 4 0 cbr 210 ------- 0 4.0 5.0 14 14
- 0.1525 4 0 cbr 210 ------- 0 4.0 5.0 14 14
r 0.152754 1 5 cbr 210 ------- 0 4.0 5.0 12 12
+ 0.152918 0 3 cbr 210 ------- 0 4.0 5.0 13 13
- 0.152918 0 3 cbr 210 ------- 0 4.0 5.0 13 13
d 0.152922 2 3 cbr 210 ------- 0 4.0 5.0 13 13
r 0.154668 4 0 cbr 210 ------- 0 4.0 5.0 14 14
h 0.154668 0 3 cbr 210 ------- 0 4.0 5.0 14 14
r 0.154922 3 1 cbr 210 ------- 0 4.0 5.0 13 13
+ 0.154922 1 5 cbr 210 ------- 0 4.0 5.0 13 13
- 0.154922 1 5 cbr 210 ------- 0 4.0 5.0 13 13
+ 0.15625 4 0 cbr 210 ------- 0 4.0 5.0 15 15
- 0.15625 4 0 cbr 210 ------- 0 4.0 5.0 15 15
r 0.156504 1 5 cbr 210 ------- 0 4.0 5.0 13 13
+ 0.156668 0 3 cbr 210 ------- 0 4.0 5.0 14 14
- 0.156668 0 3 cbr 210 ------- 0 4.0 5.0 14 14
d 0.156672 2 3 cbr 210 ------- 0 4.0 5.0 14 14
r 0.158418 4 0 cbr 210 ------- 0 4.0 5.0 15 15
h 0.158418 0 3 cbr 210 ------- 0 4.0 5.0 15 15
r 0.158672 3 1 cbr 210 ------- 0 4.0 5.0 14 14
+ 0.158672 1 5 cbr 210 ------- 0 4.0 5.0 14 14
- 0.158672 1 5 cbr 210 ------- 0 4.0 5.0 14 14
+ 0.16 4 0 cbr 210 ------- 0 4.0 5.0 16 16
- 0.16 4 0 cbr 210 ------- 0 4.0 5.0 16 16
r 0.160254 1 5 cbr 210 ------- 0 4.0 5.0 14 14
+ 0.160418 0 3 cbr 210 ------- 0 4.0 5.0 15 15
- 0.160418 0 3 cbr 210 ------- 0 4.0 5.0 15 15
d 0.160422 2 3 cbr 210 ------- 0 4.0 5.0 15 15
r 0.162168 4 0 cbr 210 ------- 0 4.0 5.0 16 16
h 0.162168 0 3 cbr 210 ------- 0 4.0 5.0 16 16
r 0.162422 3 1 cbr 210 ------- 0 4.0 5.0 15 15
+ 0.162422 1 5 cbr 210 ------- 0 4.0 5.0 15 15
- 0.162422 1 5 cbr 210 ------- 0 4.0 5.0 15 15
+ 0.16375 4 0 cbr 210 ------- 0 4.0 5.0 17 17
- 0.16375 4 0 cbr 210 ------- 0 4.0 5.0 17 17
r 0.164004 1 5 cbr 210 ------- 0 4.0 5.0 15 15
+ 0.164168 0 3 cbr 210 ------- 0 4.0 5.0 16 16
- 0.164168 0 3 cbr 210 ------- 0 4.0 5.0 16 16
d 0.164172 2 3 cbr 210 ------- 0 4.0 5.0 16 16
r 0.165918 4 0 cbr 210 ------- 0 4.0 5.0 17 17
h 0.165918 0 3 cbr 210 ------- 0 4.0 5.0 17 17
r 0.166172 3 1 cbr 210 ------- 0 4.0 5.0 16 16
+ 0.166172 1 5 cbr 210 ------- 0 4.0 5.0 16 16
- 0.166172 1 5 cbr 210 ------- 0 4.0 5.0 16 16
+ 0.1675 4 0 cbr 210 ------- 0 4.0 5.0 18 18
- 0.1675 4 0 cbr 210 ------- 0 4.0 5.0 18 18
r 0.167754 1 5 cbr 210 ------- 0 4.0 5.0 16 16
+ 0.167918 0 3 cbr 210 ------- 0 4.0 5.0 17 17
- 0.167918 0 3 cbr 210 ------- 0 4.0 5.0 17 17
d 0.167922 2 3 cbr 210 ------- 0 4.0 5.0 17 17
r 0.169668 4 0 cbr 210 ------- 0 4.0 5.0 18 18
h 0.169668 0 3 cbr 210 ------- 0 4.0 5.0 18 18
r 0.169922 3 1 cbr 210 ------- 0 4.0 5.0 17 17
+ 0.169922 1 5 cbr 210 ------- 0 4.0 5.0 17 17
- 0.169922 1 5 cbr 210 ------- 0 4.0 5.0 17 17
+ 0.17125 4 0 cbr 210 ------- 0 4.0 5.0 19 19
- 0.17125 4 0 cbr 210 ------- 0 4.0 5.0 19 19
r 0.171504 1 5 cbr 210 ------- 0 4.0 5.0 17 17
+ 0.171668 0 3 cbr 210 ------- 0 4.0 5.0 18 18
- 0.171668 0 3 cbr 210 ------- 0 4.0 5.0 18 18
d 0.171672 2 3 cbr 210 ------- 0 4.0 5.0 18 18
r 0.173418 4 0 cbr 210 ------- 0 4.0 5.0 19 19
h 0.173418 0 3 cbr 210 ------- 0 4.0 5.0 19 19
r 0.173672 3 1 cbr 210 ------- 0 4.0 5.0 18 18
+ 0.173672 1 5 cbr 210 ------- 0 4.0 5.0 18 18
- 0.173672 1 5 cbr 210 ------- 0 4.0 5.0 18 18
+ 0.175 4 0 cbr 210 ------- 0 4.0 5.0 20 20
- 0.175 4 0 cbr 210 ------- 0 4.0 5.0 20 20
r 0.175254 1 5 cbr 210 ------- 0 4.0 5.0 18 18
+ 0.175418 0 3 cbr 210 ------- 0 4.0 5.0 19 19
- 0.175418 0 3 cbr 210 ------- 0 4.0 5.0 19 19
d 0.175422 2 3 cbr 210 ------- 0 4.0 5.0 19 19
r 0.177168 4 0 cbr 210 ------- 0 4.0 5.0 20 20
h 0.177168 0 3 cbr 210 ------- 0 4.0 5.0 20 20
r 0.177422 3 1 cbr 210 ------- 0 4.0 5.0 19 19
+ 0.177422 1 5 cbr 210 ------- 0 4.0 5.0 19 19
- 0.177422 1 5 cbr 210 ------- 0 4.0 5.0 19 19
+ 0.17875 4 0 cbr 210 ------- 0 4.0 5.0 21 21
- 0.17875 4 0 cbr 210 ------- 0 4.0 5.0 21 21
r 0.179004 1 5 cbr 210 ------- 0 4.0 5.0 19 19
+ 0.179168 0 3 cbr 210 ------- 0 4.0 5.0 20 20
- 0.179168 0 3 cbr 210 ------- 0 4.0 5.0 20 20
d 0.179172 2 3 cbr 210 ------- 0 4.0 5.0 20 20
r 0.180918 4 0 cbr 210 ------- 0 4.0 5.0 21 21
h 0.180918 0 3 cbr 210 ------- 0 4.0 5.0 21 21
r 0.181172 3 1 cbr 210 ------- 0 4.0 5.0 20 20
+ 0.181172 1 5 cbr 210 ------- 0 4.0 5.0 20 20
- 0.181172 1 5 cbr 210 ------- 0 4.0 5.0 20 20
+ 0.1825 4 0 cbr 210 ------- 0 4.0 5.0 22 22
- 0.1825 4 0 cbr 210 ------- 0 4.0 5.0 22 22
r 0.182754 1 5 cbr 210 ------- 0 4.0 5.0 20 20
+ 0.182918 0 3 cbr 210 ------- 0 4.0 5.0 21 21
- 0.182918 0 3 cbr 210 ------- 0 4.0 5.0 21 21
d 0.182922 2 3 cbr 210 ------- 0 4.0 5.0 21 21
r 0.184668 4 0 cbr 210 ------- 0 4.0 5.0 22 22
h 0.184668 0 3 cbr 210 ------- 0 4.0 5.0 22 22
r 0.184922 3 1 cbr 210 ------- 0 4.0 5.0 21 21
+ 0.184922 1 5 cbr 210 ------- 0 4.0 5.0 21 21
- 0.184922 1 5 cbr 210 ------- 0 4.0 5.0 21 21
+ 0.18625 4 0 cbr 210 ------- 0 4.0 5.0 23 23
- 0.18625 4 0 cbr 210 ------- 0 4.0 5.0 23 23
r 0.186504 1 5 cbr 210 ------- 0 4.0 5.0 21 21
+ 0.186668 0 3 cbr 210 ------- 0 4.0 5.0 22 22
- 0.186668 0 3 cbr 210 ------- 0 4.0 5.0 22 22
d 0.186672 2 3 cbr 210 ------- 0 4.0 5.0 22 22
r 0.188418 4 0 cbr 210 ------- 0 4.0 5.0 23 23
h 0.188418 0 3 cbr 210 ------- 0 4.0 5.0 23 23
r 0.188672 3 1 cbr 210 ------- 0 4.0 5.0 22 22
+ 0.188672 1 5 cbr 210 ------- 0 4.0 5.0 22 22
- 0.188672 1 5 cbr 210 ------- 0 4.0 5.0 22 22
+ 0.19 4 0 cbr 210 ------- 0 4.0 5.0 24 24
- 0.19 4 0 cbr 210 ------- 0 4.0 5.0 24 24
r 0.190254 1 5 cbr 210 ------- 0 4.0 5.0 22 22
+ 0.190418 0 3 cbr 210 ------- 0 4.0 5.0 23 23
- 0.190418 0 3 cbr 210 ------- 0 4.0 5.0 23 23
d 0.190422 2 3 cbr 210 ------- 0 4.0 5.0 23 23
r 0.192168 4 0 cbr 210 ------- 0 4.0 5.0 24 24
h 0.192168 0 3 cbr 210 ------- 0 4.0 5.0 24 24
r 0.192422 3 1 cbr 210 ------- 0 4.0 5.0 23 23
+ 0.192422 1 5 cbr 210 ------- 0 4.0 5.0 23 23
- 0.192422 1 5 cbr 210 ------- 0 4.0 5.0 23 23
+ 0.19375 4 0 cbr 210 ------- 0 4.0 5.0 25 25
- 0.19375 4 0 cbr 210 ------- 0 4.0 5.0 25 25
r 0.194004 1 5 cbr 210 ------- 0 4.0 5.0 23 23
+ 0.194168 0 3 cbr 210 ------- 0 4.0 5.0 24 24
- 0.194168 0 3 cbr 210 ------- 0 4.0 5.0 24 24
d 0.194172 2 3 cbr 210 ------- 0 4.0 5.0 24 24
r 0.195918 4 0 cbr 210 ------- 0 4.0 5.0 25 25
h 0.195918 0 3 cbr 210 ------- 0 4.0 5.0 25 25
r 0.196172 3 1 cbr 210 ------- 0 4.0 5.0 24 24
+ 0.196172 1 5 cbr 210 ------- 0 4.0 5.0 24 24
- 0.196172 1 5 cbr 210 ------- 0 4.0 5.0 24 24
+ 0.1975 4 0 cbr 210 ------- 0 4.0 5.0 26 26
- 0.1975 4 0 cbr 210 ------- 0 4.0 5.0 26 26
r 0.197754 1 5 cbr 210 ------- 0 4.0 5.0 24 24
+ 0.197918 0 3 cbr 210 ------- 0 4.0 5.0 25 25
- 0.197918 0 3 cbr 210 ------- 0 4.0 5.0 25 25
d 0.197922 2 3 cbr 210 ------- 0 4.0 5.0 25 25
r 0.199668 4 0 cbr 210 ------- 0 4.0 5.0 26 26
h 0.199668 0 3 cbr 210 ------- 0 4.0 5.0 26 26
r 0.199922 3 1 cbr 210 ------- 0 4.0 5.0 25 25
+ 0.199922 1 5 cbr 210 ------- 0 4.0 5.0 25 25
- 0.199922 1 5 cbr 210 ------- 0 4.0 5.0 25 25
+ 0.20125 4 0 cbr 210 ------- 0 4.0 5.0 27 27
- 0.20125 4 0 cbr 210 ------- 0 4.0 5.0 27 27
r 0.201504 1 5 cbr 210 ------- 0 4.0 5.0 25 25
+ 0.201668 0 3 cbr 210 ------- 0 4.0 5.0 26 26
- 0.201668 0 3 cbr 210 ------- 0 4.0 5.0 26 26
d 0.201672 2 3 cbr 210 ------- 0 4.0 5.0 26 26
r 0.203418 4 0 cbr 210 ------- 0 4.0 5.0 27 27
h 0.203418 0 3 cbr 210 ------- 0 4.0 5.0 27 27
r 0.203672 3 1 cbr 210 ------- 0 4.0 5.0 26 26
+ 0.203672 1 5 cbr 210 ------- 0 4.0 5.0 26 26
- 0.203672 1 5 cbr 210 ------- 0 4.0 5.0 26 26
+ 0.205 4 0 cbr 210 ------- 0 4.0 5.0 28 28
- 0.205 4 0 cbr 210 ------- 0 4.0 5.0 28 28
r 0.205254 1 5 cbr 210 ------- 0 4.0 5.0 26 26
+ 0.205418 0 3 cbr 210 ------- 0 4.0 5.0 27 27
- 0.205418 0 3 cbr 210 ------- 0 4.0 5.0 27 27
d 0.205422 2 3 cbr 210 ------- 0 4.0 5.0 27 27
r 0.207168 4 0 cbr 210 ------- 0 4.0 5.0 28 28
h 0.207168 0 3 cbr 210 ------- 0 4.0 5.0 28 28
r 0.207422 3 1 cbr 210 ------- 0 4.0 5.0 27 27
+ 0.207422 1 5 cbr 210 ------- 0 4.0 5.0 27 27
- 0.207422 1 5 cbr 210 ------- 0 4.0 5.0 27 27
+ 0.20875 4 0 cbr 210 ------- 0 4.0 5.0 29 29
- 0.20875 4 0 cbr 210 ------- 0 4.0 5.0 29 29
r 0.209004 1 5 cbr 210 ------- 0 4.0 5.0 27 27
+ 0.209168 0 3 cbr 210 ------- 0 4.0 5.0 28 28
- 0.209168 0 3 cbr 210 ------- 0 4.0 5.0 28 28
d 0.209172 2 3 cbr 210 ------- 0 4.0 5.0 28 28
r 0.210918 4 0 cbr 210 ------- 0 4.0 5.0 29 29
h 0.210918 0 3 cbr 210 ------- 0 4.0 5.0 29 29
r 0.211172 3 1 cbr 210 ------- 0 4.0 5.0 28 28
+ 0.211172 1 5 cbr 210 ------- 0 4.0 5.0 28 28
- 0.211172 1 5 cbr 210 ------- 0 4.0 5.0 28 28
+ 0.2125 4 0 cbr 210 ------- 0 4.0 5.0 30 30
- 0.2125 4 0 cbr 210 ------- 0 4.0 5.0 30 30
r 0.212754 1 5 cbr 210 ------- 0 4.0 5.0 28 28
+ 0.212918 0 3 cbr 210 ------- 0 4.0 5.0 29 29
- 0.212918 0 3 cbr 210 ------- 0 4.0 5.0 29 29
d 0.212922 2 3 cbr 210 ------- 0 4.0 5.0 29 29
r 0.214668 4 0 cbr 210 ------- 0 4.0 5.0 30 30
h 0.214668 0 3 cbr 210 ------- 0 4.0 5.0 30 30
r 0.214922 3 1 cbr 210 ------- 0 4.0 5.0 29 29
+ 0.214922 1 5 cbr 210 ------- 0 4.0 5.0 29 29
- 0.214922 1 5 cbr 210 ------- 0 4.0 5.0 29 29
+ 0.21625 4 0 cbr 210 ------- 0 4.0 5.0 31 31
- 0.21625 4 0 cbr 210 ------- 0 4.0 5.0 31 31
r 0.216504 1 5 cbr 210 ------- 0 4.0 5.0 29 29
+ 0.216668 0 3 cbr 210 ------- 0 4.0 5.0 30 30
- 0.216668 0 3 cbr 210 ------- 0 4.0 5.0 30 30
d 0.216672 2 3 cbr 210 ------- 0 4.0 5.0 30 30
r 0.218418 4 0 cbr 210 ------- 0 4.0 5.0 31 31
h 0.218418 0 3 cbr 210 ------- 0 4.0 5.0 31 31
r 0.218672 3 1 cbr 210 ------- 0 4.0 5.0 30 30
+ 0.218672 1 5 cbr 210 ------- 0 4.0 5.0 30 30
- 0.218672 1 5 cbr 210 ------- 0 4.0 5.0 30 30
+ 0.22 4 0 cbr 210 ------- 0 4.0 5.0 32 32
- 0.22 4 0 cbr 210 ------- 0 4.0 5.0 32 32
r 0.220254 1 5 cbr 210 ------- 0 4.0 5.0 30 30
+ 0.220418 0 3 cbr 210 ------- 0 4.0 5.0 31 31
- 0.220418 0 3 cbr 210 ------- 0 4.0 5.0 31 31
d 0.220422 2 3 cbr 210 ------- 0 4.0 5.0 31 31
r 0.222168 4 0 cbr 210 ------- 0 4.0 5.0 32 32
h 0.222168 0 3 cbr 210 ------- 0 4.0 5.0 32 32
r 0.222422 3 1 cbr 210 ------- 0 4.0 5.0 31 31
+ 0.222422 1 5 cbr 210 ------- 0 4.0 5.0 31 31
- 0.222422 1 5 cbr 210 ------- 0 4.0 5.0 31 31
+ 0.22375 4 0 cbr 210 ------- 0 4.0 5.0 33 33
- 0.22375 4 0 cbr 210 ------- 0 4.0 5.0 33 33
r 0.224004 1 5 cbr 210 ------- 0 4.0 5.0 31 31
+ 0.224168 0 3 cbr 210 ------- 0 4.0 5.0 32 32
- 0.224168 0 3 cbr 210 ------- 0 4.0 5.0 32 32
d 0.224172 2 3 cbr 210 ------- 0 4.0 5.0 32 32
r 0.225918 4 0 cbr 210 ------- 0 4.0 5.0 33 33
h 0.225918 0 3 cbr 210 ------- 0 4.0 5.0 33 33
r 0.226172 3 1 cbr 210 ------- 0 4.0 5.0 32 32
+ 0.226172 1 5 cbr 210 ------- 0 4.0 5.0 32 32
- 0.226172 1 5 cbr 210 ------- 0 4.0 5.0 32 32
+ 0.2275 4 0 cbr 210 ------- 0 4.0 5.0 34 34
- 0.2275 4 0 cbr 210 ------- 0 4.0 5.0 34 34
r 0.227754 1 5 cbr 210 ------- 0 4.0 5.0 32 32
+ 0.227918 0 3 cbr 210 ------- 0 4.0 5.0 33 33
- 0.227918 0 3 cbr 210 ------- 0 4.0 5.0 33 33
d 0.227922 2 3 cbr 210 ------- 0 4.0 5.0 33 33
r 0.229668 4 0 cbr 210 ------- 0 4.0 5.0 34 34
h 0.229668 0 3 cbr 210 ------- 0 4.0 5.0 34 34
r 0.229922 3 1 cbr 210 ------- 0 4.0 5.0 33 33
+ 0.229922 1 5 cbr 210 ------- 0 4.0 5.0 33 33
- 0.229922 1 5 cbr 210 ------- 0 4.0 5.0 33 33
+ 0.23125 4 0 cbr 210 ------- 0 4.0 5.0 35 35
- 0.23125 4 0 cbr 210 ------- 0 4.0 5.0 35 35
r 0.231504 1 5 cbr 210 ------- 0 4.0 5.0 33 33
+ 0.231668 0 3 cbr 210 ------- 0 4.0 5.0 34 34
- 0.231668 0 3 cbr 210 ------- 0 4.0 5.0 34 34
d 0.231672 2 3 cbr 210 ------- 0 4.0 5.0 34 34
r 0.233418 4 0 cbr 210 ------- 0 4.0 5.0 35 35
h 0.233418 0 3 cbr 210 ------- 0 4.0 5.0 35 35
r 0.233672 3 1 cbr 210 ------- 0 4.0 5.0 34 34
+ 0.233672 1 5 cbr 210 ------- 0 4.0 5.0 34 34
- 0.233672 1 5 cbr 210 ------- 0 4.0 5.0 34 34
+ 0.235 4 0 cbr 210 ------- 0 4.0 5.0 36 36
- 0.235 4 0 cbr 210 ------- 0 4.0 5.0 36 36
r 0.235254 1 5 cbr 210 ------- 0 4.0 5.0 34 34
+ 0.235418 0 3 cbr 210 ------- 0 4.0 5.0 35 35
- 0.235418 0 3 cbr 210 ------- 0 4.0 5.0 35 35
d 0.235422 2 3 cbr 210 ------- 0 4.0 5.0 35 35
r 0.237168 4 0 cbr 210 ------- 0 4.0 5.0 36 36
h 0.237168 0 3 cbr 210 ------- 0 4.0 5.0 36 36
r 0.237422 3 1 cbr 210 ------- 0 4.0 5.0 35 35
+ 0.237422 1 5 cbr 210 ------- 0 4.0 5.0 35 35
- 0.237422 1 5 cbr 210 ------- 0 4.0 5.0 35 35
+ 0.23875 4 0 cbr 210 ------- 0 4.0 5.0 37 37
- 0.23875 4 0 cbr 210 ------- 0 4.0 5.0 37 37
r 0.239004 1 5 cbr 210 ------- 0 4.0 5.0 35 35
+ 0.239168 0 3 cbr 210 ------- 0 4.0 5.0 36 36
- 0.239168 0 3 cbr 210 ------- 0 4.0 5.0 36 36
d 0.239172 2 3 cbr 210 ------- 0 4.0 5.0 36 36
r 0.240918 4 0 cbr 210 ------- 0 4.0 5.0 37 37
h 0.240918 0 3 cbr 210 ------- 0 4.0 5.0 37 37
r 0.241172 3 1 cbr 210 ------- 0 4.0 5.0 36 36
+ 0.241172 1 5 cbr 210 ------- 0 4.0 5.0 36 36
- 0.241172 1 5 cbr 210 ------- 0 4.0 5.0 36 36
+ 0.2425 4 0 cbr 210 ------- 0 4.0 5.0 38 38
- 0.2425 4 0 cbr 210 ------- 0 4.0 5.0 38 38
r 0.242754 1 5 cbr 210 ------- 0 4.0 5.0 36 36
+ 0.242918 0 3 cbr 210 ------- 0 4.0 5.0 37 37
- 0.242918 0 3 cbr 210 ------- 0 4.0 5.0 37 37
d 0.242922 2 3 cbr 210 ------- 0 4.0 5.0 37 37
r 0.244668 4 0 cbr 210 ------- 0 4.0 5.0 38 38
h 0.244668 0 3 cbr 210 ------- 0 4.0 5.0 38 38
r 0.244922 3 1 cbr 210 ------- 0 4.0 5.0 37 37
+ 0.244922 1 5 cbr 210 ------- 0 4.0 5.0 37 37
- 0.244922 1 5 cbr 210 ------- 0 4.0 5.0 37 37
+ 0.24625 4 0 cbr 210 ------- 0 4.0 5.0 39 39
- 0.24625 4 0 cbr 210 ------- 0 4.0 5.0 39 39
r 0.246504 1 5 cbr 210 ------- 0 4.0 5.0 37 37
+ 0.246668 0 3 cbr 210 ------- 0 4.0 5.0 38 38
- 0.246668 0 3 cbr 210 ------- 0 4.0 5.0 38 38
d 0.246672 2 3 cbr 210 ------- 0 4.0 5.0 38 38
r 0.248418 4 0 cbr 210 ------- 0 4.0 5.0 39 39
h 0.248418 0 3 cbr 210 ------- 0 4.0 5.0 39 39
r 0.248672 3 1 cbr 210 ------- 0 4.0 5.0 38 38
+ 0.248672 1 5 cbr 210 ------- 0 4.0 5.0 38 38
- 0.248672 1 5 cbr 210 ------- 0 4.0 5.0 38 38
+ 0.25 4 0 cbr 210 ------- 0 4.0 5.0 40 40
- 0.25 4 0 cbr 210 ------- 0 4.0 5.0 40 40
r 0.250254 1 5 cbr 210 ------- 0 4.0 5.0 38 38
+ 0.250418 0 3 cbr 210 ------- 0 4.0 5.0 39 39
- 0.250418 0 3 cbr 210 ------- 0 4.0 5.0 39 39
d 0.250422 2 3 cbr 210 ------- 0 4.0 5.0 39 39
r 0.252168 4 0 cbr 210 ------- 0 4.0 5.0 40 40
h 0.252168 0 3 cbr 210 ------- 0 4.0 5.0 40 40
r 0.252422 3 1 cbr 210 ------- 0 4.0 5.0 39 39
+ 0.252422 1 5 cbr 210 ------- 0 4.0 5.0 39 39
- 0.252422 1 5 cbr 210 ------- 0 4.0 5.0 39 39
+ 0.25375 4 0 cbr 210 ------- 0 4.0 5.0 41 41
- 0.25375 4 0 cbr 210 ------- 0 4.0 5.0 41 41
r 0.254004 1 5 cbr 210 ------- 0 4.0 5.0 39 39
+ 0.254168 0 3 cbr 210 ------- 0 4.0 5.0 40 40
- 0.254168 0 3 cbr 210 ------- 0 4.0 5.0 40 40
d 0.254172 2 3 cbr 210 ------- 0 4.0 5.0 40 40
r 0.255918 4 0 cbr 210 ------- 0 4.0 5.0 41 41
h 0.255918 0 3 cbr 210 ------- 0 4.0 5.0 41 41
r 0.256172 3 1 cbr 210 ------- 0 4.0 5.0 40 40
+ 0.256172 1 5 cbr 210 ------- 0 4.0 5.0 40 40
- 0.256172 1 5 cbr 210 ------- 0 4.0 5.0 40 40
+ 0.2575 4 0 cbr 210 ------- 0 4.0 5.0 42 42
- 0.2575 4 0 cbr 210 ------- 0 4.0 5.0 42 42
r 0.257754 1 5 cbr 210 ------- 0 4.0 5.0 40 40
+ 0.257918 0 3 cbr 210 ------- 0 4.0 5.0 41 41
- 0.257918 0 3 cbr 210 ------- 0 4.0 5.0 41 41
d 0.257922 2 3 cbr 210 ------- 0 4.0 5.0 41 41
r 0.259668 4 0 cbr 210 ------- 0 4.0 5.0 42 42
h 0.259668 0 3 cbr 210 ------- 0 4.0 5.0 42 42
r 0.259922 3 1 cbr 210 ------- 0 4.0 5.0 41 41
+ 0.259922 1 5 cbr 210 ------- 0 4.0 5.0 41 41
- 0.259922 1 5 cbr 210 ------- 0 4.0 5.0 41 41
+ 0.26125 4 0 cbr 210 ------- 0 4.0 5.0 43 43
- 0.26125 4 0 cbr 210 ------- 0 4.0 5.0 43 43
r 0.261504 1 5 cbr 210 ------- 0 4.0 5.0 41 41
+ 0.261668 0 3 cbr 210 ------- 0 4.0 5.0 42 42
- 0.261668 0 3 cbr 210 ------- 0 4.0 5.0 42 42
d 0.261672 2 3 cbr 210 ------- 0 4.0 5.0 42 42
r 0.263418 4 0 cbr 210 ------- 0 4.0 5.0 43 43
h 0.263418 0 3 cbr 210 ------- 0 4.0 5.0 43 43
r 0.263672 3 1 cbr 210 ------- 0 4.0 5.0 42 42
+ 0.263672 1 5 cbr 210 ------- 0 4.0 5.0 42 42
- 0.263672 1 5 cbr 210 ------- 0 4.0 5.0 42 42
+ 0.265 4 0 cbr 210 ------- 0 4.0 5.0 44 44
- 0.265 4 0 cbr 210 ------- 0 4.0 5.0 44 44
r 0.265254 1 5 cbr 210 ------- 0 4.0 5.0 42 42
+ 0.265418 0 3 cbr 210 ------- 0 4.0 5.0 43 43
- 0.265418 0 3 cbr 210 ------- 0 4.0 5.0 43 43
d 0.265422 2 3 cbr 210 ------- 0 4.0 5.0 43 43
r 0.267168 4 0 cbr 210 ------- 0 4.0 5.0 44 44
h 0.267168 0 3 cbr 210 ------- 0 4.0 5.0 44 44
r 0.267422 3 1 cbr 210 ------- 0 4.0 5.0 43 43
+ 0.267422 1 5 cbr 210 ------- 0 4.0 5.0 43 43
- 0.267422 1 5 cbr 210 ------- 0 4.0 5.0 43 43
+ 0.26875 4 0 cbr 210 ------- 0 4.0 5.0 45 45
- 0.26875 4 0 cbr 210 ------- 0 4.0 5.0 45 45
r 0.269004 1 5 cbr 210 ------- 0 4.0 5.0 43 43
+ 0.269168 0 3 cbr 210 ------- 0 4.0 5.0 44 44
- 0.269168 0 3 cbr 210 ------- 0 4.0 5.0 44 44
d 0.269172 2 3 cbr 210 ------- 0 4.0 5.0 44 44
r 0.270918 4 0 cbr 210 ------- 0 4.0 5.0 45 45
h 0.270918 0 3 cbr 210 ------- 0 4.0 5.0 45 45
r 0.271172 3 1 cbr 210 ------- 0 4.0 5.0 44 44
+ 0.271172 1 5 cbr 210 ------- 0 4.0 5.0 44 44
- 0.271172 1 5 cbr 210 ------- 0 4.0 5.0 44 44
+ 0.2725 4 0 cbr 210 ------- 0 4.0 5.0 46 46
- 0.2725 4 0 cbr 210 ------- 0 4.0 5.0 46 46
r 0.272754 1 5 cbr 210 ------- 0 4.0 5.0 44 44
+ 0.272918 0 3 cbr 210 ------- 0 4.0 5.0 45 45
- 0.272918 0 3 cbr 210 ------- 0 4.0 5.0 45 45
d 0.272922 2 3 cbr 210 ------- 0 4.0 5.0 45 45
r 0.274668 4 0 cbr 210 ------- 0 4.0 5.0 46 46
h 0.274668 0 3 cbr 210 ------- 0 4.0 5.0 46 46
r 0.274922 3 1 cbr 210 ------- 0 4.0 5.0 45 45
+ 0.274922 1 5 cbr 210 ------- 0 4.0 5.0 45 45
- 0.274922 1 5 cbr 210 ------- 0 4.0 5.0 45 45
+ 0.27625 4 0 cbr 210 ------- 0 4.0 5.0 47 47
- 0.27625 4 0 cbr 210 ------- 0 4.0 5.0 47 47
r 0.276504 1 5 cbr 210 ------- 0 4.0 5.0 45 45
+ 0.276668 0 3 cbr 210 ------- 0 4.0 5.0 46 46
- 0.276668 0 3 cbr 210 ------- 0 4.0 5.0 46 46
d 0.276672 2 3 cbr 210 ------- 0 4.0 5.0 46 46
r 0.278418 4 0 cbr 210 ------- 0 4.0 5.0 47 47
h 0.278418 0 3 cbr 210 ------- 0 4.0 5.0 47 47
r 0.278672 3 1 cbr 210 ------- 0 4.0 5.0 46 46
+ 0.278672 1 5 cbr 210 ------- 0 4.0 5.0 46 46
- 0.278672 1 5 cbr 210 ------- 0 4.0 5.0 46 46
+ 0.28 4 0 cbr 210 ------- 0 4.0 5.0 48 48
- 0.28 4 0 cbr 210 ------- 0 4.0 5.0 48 48
r 0.280254 1 5 cbr 210 ------- 0 4.0 5.0 46 46
+ 0.280418 0 3 cbr 210 ------- 0 4.0 5.0 47 47
- 0.280418 0 3 cbr 210 ------- 0 4.0 5.0 47 47
d 0.280422 2 3 cbr 210 ------- 0 4.0 5.0 47 47
r 0.282168 4 0 cbr 210 ------- 0 4.0 5.0 48 48
h 0.282168 0 3 cbr 210 ------- 0 4.0 5.0 48 48
r 0.282422 3 1 cbr 210 ------- 0 4.0 5.0 47 47
+ 0.282422 1 5 cbr 210 ------- 0 4.0 5.0 47 47
- 0.282422 1 5 cbr 210 ------- 0 4.0 5.0 47 47
+ 0.28375 4 0 cbr 210 ------- 0 4.0 5.0 49 49
- 0.28375 4 0 cbr 210 ------- 0 4.0 5.0 49 49
r 0.284004 1 5 cbr 210 ------- 0 4.0 5.0 47 47
+ 0.284168 0 3 cbr 210 ------- 0 4.0 5.0 48 48
- 0.284168 0 3 cbr 210 ------- 0 4.0 5.0 48 48
d 0.284172 2 3 cbr 210 ------- 0 4.0 5.0 48 48
r 0.285918 4 0 cbr 210 ------- 0 4.0 5.0 49 49
h 0.285918 0 3 cbr 210 ------- 0 4.0 5.0 49 49
r 0.286172 3 1 cbr 210 ------- 0 4.0 5.0 48 48
+ 0.286172 1 5 cbr 210 ------- 0 4.0 5.0 48 48
- 0.286172 1 5 cbr 210 ------- 0 4.0 5.0 48 48
+ 0.2875 4 0 cbr 210 ------- 0 4.0 5.0 50 50
- 0.2875 4 0 cbr 210 ------- 0 4.0 5.0 50 50
r 0.287754 1 5 cbr 210 ------- 0 4.0 5.0 48 48
+ 0.287918 0 3 cbr 210 ------- 0 4.0 5.0 49 49
- 0.287918 0 3 cbr 210 ------- 0 4.0 5.0 49 49
d 0.287922 2 3 cbr 210 ------- 0 4.0 5.0 49 49
r 0.289668 4 0 cbr 210 ------- 0 4.0 5.0 50 50
h 0.289668 0 3 cbr 210 ------- 0 4.0 5.0 50 50
r 0.289922 3 1 cbr 210 ------- 0 4.0 5.0 49 49
+ 0.289922 1 5 cbr 210 ------- 0 4.0 5.0 49 49
- 0.289922 1 5 cbr 210 ------- 0 4.0 5.0 49 49
+ 0.29125 4 0 cbr 210 ------- 0 4.0 5.0 51 51
- 0.29125 4 0 cbr 210 ------- 0 4.0 5.0 51 51
r 0.291504 1 5 cbr 210 ------- 0 4.0 5.0 49 49
+ 0.291668 0 3 cbr 210 ------- 0 4.0 5.0 50 50
- 0.291668 0 3 cbr 210 ------- 0 4.0 5.0 50 50
d 0.291672 2 3 cbr 210 ------- 0 4.0 5.0 50 50
r 0.293418 4 0 cbr 210 ------- 0 4.0 5.0 51 51
h 0.293418 0 3 cbr 210 ------- 0 4.0 5.0 51 51
r 0.293672 3 1 cbr 210 ------- 0 4.0 5.0 50 50
+ 0.293672 1 5 cbr 210 ------- 0 4.0 5.0 50 50
- 0.293672 1 5 cbr 210 ------- 0 4.0 5.0 50 50
+ 0.295 4 0 cbr 210 ------- 0 4.0 5.0 52 52
- 0.295 4 0 cbr 210 ------- 0 4.0 5.0 52 52
r 0.295254 1 5 cbr 210 ------- 0 4.0 5.0 50 50
+ 0.295418 0 3 cbr 210 ------- 0 4.0 5.0 51 51
- 0.295418 0 3 cbr 210 ------- 0 4.0 5.0 51 51
d 0.295422 2 3 cbr 210 ------- 0 4.0 5.0 51 51
r 0.297168 4 0 cbr 210 ------- 0 4.0 5.0 52 52
h 0.297168 0 3 cbr 210 ------- 0 4.0 5.0 52 52
r 0.297422 3 1 cbr 210 ------- 0 4.0 5.0 51 51
+ 0.297422 1 5 cbr 210 ------- 0 4.0 5.0 51 51
- 0.297422 1 5 cbr 210 ------- 0 4.0 5.0 51 51
+ 0.29875 4 0 cbr 210 ------- 0 4.0 5.0 53 53
- 0.29875 4 0 cbr 210 ------- 0 4.0 5.0 53 53
r 0.299004 1 5 cbr 210 ------- 0 4.0 5.0 51 51
+ 0.299168 0 3 cbr 210 ------- 0 4.0 5.0 52 52
- 0.299168 0 3 cbr 210 ------- 0 4.0 5.0 52 52
d 0.299172 2 3 cbr 210 ------- 0 4.0 5.0 52 52
r 0.300918 4 0 cbr 210 ------- 0 4.0 5.0 53 53
h 0.300918 0 3 cbr 210 ------- 0 4.0 5.0 53 53
r 0.301172 3 1 cbr 210 ------- 0 4.0 5.0 52 52
+ 0.301172 1 5 cbr 210 ------- 0 4.0 5.0 52 52
- 0.301172 1 5 cbr 210 ------- 0 4.0 5.0 52 52
+ 0.3025 4 0 cbr 210 ------- 0 4.0 5.0 54 54
- 0.3025 4 0 cbr 210 ------- 0 4.0 5.0 54 54
r 0.302754 1 5 cbr 210 ------- 0 4.0 5.0 52 52
+ 0.302918 0 3 cbr 210 ------- 0 4.0 5.0 53 53
- 0.302918 0 3 cbr 210 ------- 0 4.0 5.0 53 53
d 0.302922 2 3 cbr 210 ------- 0 4.0 5.0 53 53
r 0.304668 4 0 cbr 210 ------- 0 4.0 5.0 54 54
h 0.304668 0 3 cbr 210 ------- 0 4.0 5.0 54 54
r 0.304922 3 1 cbr 210 ------- 0 4.0 5.0 53 53
+ 0.304922 1 5 cbr 210 ------- 0 4.0 5.0 53 53
- 0.304922 1 5 cbr 210 ------- 0 4.0 5.0 53 53
+ 0.30625 4 0 cbr 210 ------- 0 4.0 5.0 55 55
- 0.30625 4 0 cbr 210 ------- 0 4.0 5.0 55 55
r 0.306504 1 5 cbr 210 ------- 0 4.0 5.0 53 53
+ 0.306668 0 3 cbr 210 ------- 0 4.0 5.0 54 54
- 0.306668 0 3 cbr 210 ------- 0 4.0 5.0 54 54
d 0.306672 2 3 cbr 210 ------- 0 4.0 5.0 54 54
r 0.308418 4 0 cbr 210 ------- 0 4.0 5.0 55 55
h 0.308418 0 3 cbr 210 ------- 0 4.0 5.0 55 55
r 0.308672 3 1 cbr 210 ------- 0 4.0 5.0 54 54
+ 0.308672 1 5 cbr 210 ------- 0 4.0 5.0 54 54
- 0.308672 1 5 cbr 210 ------- 0 4.0 5.0 54 54
+ 0.31 4 0 cbr 210 ------- 0 4.0 5.0 56 56
- 0.31 4 0 cbr 210 ------- 0 4.0 5.0 56 56
r 0.310254 1 5 cbr 210 ------- 0 4.0 5.0 54 54
+ 0.310418 0 3 cbr 210 ------- 0 4.0 5.0 55 55
- 0.310418 0 3 cbr 210 ------- 0 4.0 5.0 55 55
d 0.310422 2 3 cbr 210 ------- 0 4.0 5.0 55 55
r 0.312168 4 0 cbr 210 ------- 0 4.0 5.0 56 56
h 0.312168 0 3 cbr 210 ------- 0 4.0 5.0 56 56
r 0.312422 3 1 cbr 210 ------- 0 4.0 5.0 55 55
+ 0.312422 1 5 cbr 210 ------- 0 4.0 5.0 55 55
- 0.312422 1 5 cbr 210 ------- 0 4.0 5.0 55 55
+ 0.31375 4 0 cbr 210 ------- 0 4.0 5.0 57 57
- 0.31375 4 0 cbr 210 ------- 0 4.0 5.0 57 57
r 0.314004 1 5 cbr 210 ------- 0 4.0 5.0 55 55
+ 0.314168 0 3 cbr 210 ------- 0 4.0 5.0 56 56
- 0.314168 0 3 cbr 210 ------- 0 4.0 5.0 56 56
d 0.314172 2 3 cbr 210 ------- 0 4.0 5.0 56 56
r 0.315918 4 0 cbr 210 ------- 0 4.0 5.0 57 57
h 0.315918 0 3 cbr 210 ------- 0 4.0 5.0 57 57
r 0.316172 3 1 cbr 210 ------- 0 4.0 5.0 56 56
+ 0.316172 1 5 cbr 210 ------- 0 4.0 5.0 56 56
- 0.316172 1 5 cbr 210 ------- 0 4.0 5.0 56 56
+ 0.3175 4 0 cbr 210 ------- 0 4.0 5.0 58 58
- 0.3175 4 0 cbr 210 ------- 0 4.0 5.0 58 58
r 0.317754 1 5 cbr 210 ------- 0 4.0 5.0 56 56
+ 0.317918 0 3 cbr 210 ------- 0 4.0 5.0 57 57
- 0.317918 0 3 cbr 210 ------- 0 4.0 5.0 57 57
d 0.317922 2 3 cbr 210 ------- 0 4.0 5.0 57 57
r 0.319668 4 0 cbr 210 ------- 0 4.0 5.0 58 58
h 0.319668 0 3 cbr 210 ------- 0 4.0 5.0 58 58
r 0.319922 3 1 cbr 210 ------- 0 4.0 5.0 57 57
+ 0.319922 1 5 cbr 210 ------- 0 4.0 5.0 57 57
- 0.319922 1 5 cbr 210 ------- 0 4.0 5.0 57 57
+ 0.32125 4 0 cbr 210 ------- 0 4.0 5.0 59 59
- 0.32125 4 0 cbr 210 ------- 0 4.0 5.0 59 59
r 0.321504 1 5 cbr 210 ------- 0 4.0 5.0 57 57
+ 0.321668 0 3 cbr 210 ------- 0 4.0 5.0 58 58
- 0.321668 0 3 cbr 210 ------- 0 4.0 5.0 58 58
d 0.321672 2 3 cbr 210 ------- 0 4.0 5.0 58 58