+ 0 4 1 tcp 1000 ------- 0 4.0 5.0 0 0
- 0 4 1 tcp 1000 ------- 0 4.0 5.0 0 0
r 0.0028 4 1 tcp 1000 ------- 0 4.0 5.0 0 0
h 0.0028 1 3 tcp 1000 ------- 0 4.0 5.0 0 0
+ 0.0048 1 3 tcp 1000 ------- 0 4.0 5.0 0 0
- 0.0048 1 3 tcp 1000 ------- 0 4.0 5.0 0 0
r 0.007615 3 2 tcp 1000 ------- 0 4.0 5.0 0 0
+ 0.007615 2 5 tcp 1000 ------- 0 4.0 5.0 0 0
- 0.007615 2 5 tcp 1000 ------- 0 4.0 5.0 0 0
r 0.010015 2 5 tcp 1000 ------- 0 4.0 5.0 0 0
+ 0.010015 5 2 ack 40 ------- 0 5.0 4.0 0 1
- 0.010015 5 2 ack 40 ------- 0 5.0 4.0 0 1
r 0.012031 5 2 ack 40 ------- 0 5.0 4.0 0 1
h 0.012031 2 3 ack 40 ------- 0 5.0 4.0 0 1
+ 0.014031 2 3 ack 40 ------- 0 5.0 4.0 0 1
- 0.014031 2 3 ack 40 ------- 0 5.0 4.0 0 1
r 0.016086 3 1 ack 40 ------- 0 5.0 4.0 0 1
+ 0.016086 1 4 ack 40 ------- 0 5.0 4.0 0 1
- 0.016086 1 4 ack 40 ------- 0 5.0 4.0 0 1
r 0.018118 1 4 ack 40 ------- 0 5.0 4.0 0 1
+ 0.018118 4 1 tcp 1000 ------- 0 4.0 5.0 1 2
- 0.018118 4 1 tcp 1000 ------- 0 4.0 5.0 1 2
+ 0.018118 4 1 tcp 1000 ------- 0 4.0 5.0 2 3
- 0.018918 4 1 tcp 1000 ------- 0 4.0 5.0 2 3
r 0.020918 4 1 tcp 1000 ------- 0 4.0 5.0 1 2
h 0.020918 1 3 tcp 1000 ------- 0 4.0 5.0 1 2
r 0.021718 4 1 tcp 1000 ------- 0 4.0 5.0 2 3
h 0.021718 1 3 tcp 1000 ------- 0 4.0 5.0 2 3
+ 0.022918 1 3 tcp 1000 ------- 0 4.0 5.0 1 2
- 0.022918 1 3 tcp 1000 ------- 0 4.0 5.0 1 2
+ 0.023718 1 3 tcp 1000 ------- 0 4.0 5.0 2 3
- 0.023739 1 3 tcp 1000 ------- 0 4.0 5.0 2 3
r 0.025734 3 2 tcp 1000 ------- 0 4.0 5.0 1 2
+ 0.025734 2 5 tcp 1000 ------- 0 4.0 5.0 1 2
- 0.025734 2 5 tcp 1000 ------- 0 4.0 5.0 1 2
r 0.026554 3 2 tcp 1000 ------- 0 4.0 5.0 2 3
+ 0.026554 2 5 tcp 1000 ------- 0 4.0 5.0 2 3
- 0.026554 2 5 tcp 1000 ------- 0 4.0 5.0 2 3
r 0.028134 2 5 tcp 1000 ------- 0 4.0 5.0 1 2
+ 0.028134 5 2 ack 40 ------- 0 5.0 4.0 1 4
- 0.028134 5 2 ack 40 ------- 0 5.0 4.0 1 4
r 0.028954 2 5 tcp 1000 ------- 0 4.0 5.0 2 3
+ 0.028954 5 2 ack 40 ------- 0 5.0 4.0 2 5
- 0.028954 5 2 ack 40 ------- 0 5.0 4.0 2 5
r 0.03015 5 2 ack 40 ------- 0 5.0 4.0 1 4
h 0.03015 2 3 ack 40 ------- 0 5.0 4.0 1 4
r 0.03097 5 2 ack 40 ------- 0 5.0 4.0 2 5
h 0.03097 2 3 ack 40 ------- 0 5.0 4.0 2 5
+ 0.03215 2 3 ack 40 ------- 0 5.0 4.0 1 4
- 0.03215 2 3 ack 40 ------- 0 5.0 4.0 1 4
+ 0.03297 2 3 ack 40 ------- 0 5.0 4.0 2 5
- 0.03297 2 3 ack 40 ------- 0 5.0 4.0 2 5
r 0.034205 3 1 ack 40 ------- 0 5.0 4.0 1 4
+ 0.034205 1 4 ack 40 ------- 0 5.0 4.0 1 4
- 0.034205 1 4 ack 40 ------- 0 5.0 4.0 1 4
r 0.035026 3 1 ack 40 ------- 0 5.0 4.0 2 5
+ 0.035026 1 4 ack 40 ------- 0 5.0 4.0 2 5
- 0.035026 1 4 ack 40 ------- 0 5.0 4.0 2 5
r 0.036237 1 4 ack 40 ------- 0 5.0 4.0 1 4
+ 0.036237 4 1 tcp 1000 ------- 0 4.0 5.0 3 6
- 0.036237 4 1 tcp 1000 ------- 0 4.0 5.0 3 6
+ 0.036237 4 1 tcp 1000 ------- 0 4.0 5.0 4 7
- 0.037037 4 1 tcp 1000 ------- 0 4.0 5.0 4 7
r 0.037058 1 4 ack 40 ------- 0 5.0 4.0 2 5
+ 0.037058 4 1 tcp 1000 ------- 0 4.0 5.0 5 8
+ 0.037058 4 1 tcp 1000 ------- 0 4.0 5.0 6 9
- 0.037837 4 1 tcp 1000 ------- 0 4.0 5.0 5 8
- 0.038637 4 1 tcp 1000 ------- 0 4.0 5.0 6 9
r 0.039037 4 1 tcp 1000 ------- 0 4.0 5.0 3 6
h 0.039037 1 3 tcp 1000 ------- 0 4.0 5.0 3 6
r 0.039837 4 1 tcp 1000 ------- 0 4.0 5.0 4 7
h 0.039837 1 3 tcp 1000 ------- 0 4.0 5.0 4 7
r 0.040637 4 1 tcp 1000 ------- 0 4.0 5.0 5 8
h 0.040637 1 3 tcp 1000 ------- 0 4.0 5.0 5 8
+ 0.041037 1 3 tcp 1000 ------- 0 4.0 5.0 3 6
- 0.041037 1 3 tcp 1000 ------- 0 4.0 5.0 3 6
r 0.041437 4 1 tcp 1000 ------- 0 4.0 5.0 6 9
h 0.041437 1 3 tcp 1000 ------- 0 4.0 5.0 6 9
+ 0.041837 1 3 tcp 1000 ------- 0 4.0 5.0 4 7
- 0.041858 1 3 tcp 1000 ------- 0 4.0 5.0 4 7
+ 0.042637 1 3 tcp 1000 ------- 0 4.0 5.0 5 8
- 0.042678 1 3 tcp 1000 ------- 0 4.0 5.0 5 8
+ 0.043437 1 3 tcp 1000 ------- 0 4.0 5.0 6 9
- 0.043499 1 3 tcp 1000 ------- 0 4.0 5.0 6 9
r 0.043852 3 2 tcp 1000 ------- 0 4.0 5.0 3 6
+ 0.043852 2 5 tcp 1000 ------- 0 4.0 5.0 3 6
- 0.043852 2 5 tcp 1000 ------- 0 4.0 5.0 3 6
r 0.044673 3 2 tcp 1000 ------- 0 4.0 5.0 4 7
+ 0.044673 2 5 tcp 1000 ------- 0 4.0 5.0 4 7
- 0.044673 2 5 tcp 1000 ------- 0 4.0 5.0 4 7
r 0.045494 3 2 tcp 1000 ------- 0 4.0 5.0 5 8
+ 0.045494 2 5 tcp 1000 ------- 0 4.0 5.0 5 8
- 0.045494 2 5 tcp 1000 ------- 0 4.0 5.0 5 8
r 0.046252 2 5 tcp 1000 ------- 0 4.0 5.0 3 6
+ 0.046252 5 2 ack 40 ------- 0 5.0 4.0 3 10
- 0.046252 5 2 ack 40 ------- 0 5.0 4.0 3 10
r 0.046314 3 2 tcp 1000 ------- 0 4.0 5.0 6 9
+ 0.046314 2 5 tcp 1000 ------- 0 4.0 5.0 6 9
- 0.046314 2 5 tcp 1000 ------- 0 4.0 5.0 6 9
r 0.047073 2 5 tcp 1000 ------- 0 4.0 5.0 4 7
+ 0.047073 5 2 ack 40 ------- 0 5.0 4.0 4 11
- 0.047073 5 2 ack 40 ------- 0 5.0 4.0 4 11
r 0.047894 2 5 tcp 1000 ------- 0 4.0 5.0 5 8
+ 0.047894 5 2 ack 40 ------- 0 5.0 4.0 5 12
- 0.047894 5 2 ack 40 ------- 0 5.0 4.0 5 12
r 0.048268 5 2 ack 40 ------- 0 5.0 4.0 3 10
h 0.048268 2 3 ack 40 ------- 0 5.0 4.0 3 10
r 0.048714 2 5 tcp 1000 ------- 0 4.0 5.0 6 9
+ 0.048714 5 2 ack 40 ------- 0 5.0 4.0 6 13
- 0.048714 5 2 ack 40 ------- 0 5.0 4.0 6 13
r 0.049089 5 2 ack 40 ------- 0 5.0 4.0 4 11
h 0.049089 2 3 ack 40 ------- 0 5.0 4.0 4 11
r 0.04991 5 2 ack 40 ------- 0 5.0 4.0 5 12
h 0.04991 2 3 ack 40 ------- 0 5.0 4.0 5 12
+ 0.050268 2 3 ack 40 ------- 0 5.0 4.0 3 10
- 0.050268 2 3 ack 40 ------- 0 5.0 4.0 3 10
r 0.05073 5 2 ack 40 ------- 0 5.0 4.0 6 13
h 0.05073 2 3 ack 40 ------- 0 5.0 4.0 6 13
+ 0.051089 2 3 ack 40 ------- 0 5.0 4.0 4 11
- 0.051089 2 3 ack 40 ------- 0 5.0 4.0 4 11
+ 0.05191 2 3 ack 40 ------- 0 5.0 4.0 5 12
- 0.05191 2 3 ack 40 ------- 0 5.0 4.0 5 12
r 0.052323 3 1 ack 40 ------- 0 5.0 4.0 3 10
+ 0.052323 1 4 ack 40 ------- 0 5.0 4.0 3 10
- 0.052323 1 4 ack 40 ------- 0 5.0 4.0 3 10
+ 0.05273 2 3 ack 40 ------- 0 5.0 4.0 6 13
- 0.05273 2 3 ack 40 ------- 0 5.0 4.0 6 13
r 0.053144 3 1 ack 40 ------- 0 5.0 4.0 4 11
+ 0.053144 1 4 ack 40 ------- 0 5.0 4.0 4 11
- 0.053144 1 4 ack 40 ------- 0 5.0 4.0 4 11
r 0.053965 3 1 ack 40 ------- 0 5.0 4.0 5 12
+ 0.053965 1 4 ack 40 ------- 0 5.0 4.0 5 12
- 0.053965 1 4 ack 40 ------- 0 5.0 4.0 5 12
r 0.054355 1 4 ack 40 ------- 0 5.0 4.0 3 10
+ 0.054355 4 1 tcp 1000 ------- 0 4.0 5.0 7 14
- 0.054355 4 1 tcp 1000 ------- 0 4.0 5.0 7 14
+ 0.054355 4 1 tcp 1000 ------- 0 4.0 5.0 8 15
r 0.054786 3 1 ack 40 ------- 0 5.0 4.0 6 13
+ 0.054786 1 4 ack 40 ------- 0 5.0 4.0 6 13
- 0.054786 1 4 ack 40 ------- 0 5.0 4.0 6 13
- 0.055155 4 1 tcp 1000 ------- 0 4.0 5.0 8 15
r 0.055176 1 4 ack 40 ------- 0 5.0 4.0 4 11
+ 0.055176 4 1 tcp 1000 ------- 0 4.0 5.0 9 16
+ 0.055176 4 1 tcp 1000 ------- 0 4.0 5.0 10 17
- 0.055955 4 1 tcp 1000 ------- 0 4.0 5.0 9 16
r 0.055997 1 4 ack 40 ------- 0 5.0 4.0 5 12
+ 0.055997 4 1 tcp 1000 ------- 0 4.0 5.0 11 18
+ 0.055997 4 1 tcp 1000 ------- 0 4.0 5.0 12 19
- 0.056755 4 1 tcp 1000 ------- 0 4.0 5.0 10 17
r 0.056818 1 4 ack 40 ------- 0 5.0 4.0 6 13
+ 0.056818 4 1 tcp 1000 ------- 0 4.0 5.0 13 20
+ 0.056818 4 1 tcp 1000 ------- 0 4.0 5.0 14 21
r 0.057155 4 1 tcp 1000 ------- 0 4.0 5.0 7 14
h 0.057155 1 3 tcp 1000 ------- 0 4.0 5.0 7 14
- 0.057555 4 1 tcp 1000 ------- 0 4.0 5.0 11 18
r 0.057955 4 1 tcp 1000 ------- 0 4.0 5.0 8 15
h 0.057955 1 3 tcp 1000 ------- 0 4.0 5.0 8 15
- 0.058355 4 1 tcp 1000 ------- 0 4.0 5.0 12 19
r 0.058755 4 1 tcp 1000 ------- 0 4.0 5.0 9 16
h 0.058755 1 3 tcp 1000 ------- 0 4.0 5.0 9 16
+ 0.059155 1 3 tcp 1000 ------- 0 4.0 5.0 7 14
- 0.059155 1 3 tcp 1000 ------- 0 4.0 5.0 7 14
- 0.059155 4 1 tcp 1000 ------- 0 4.0 5.0 13 20
r 0.059555 4 1 tcp 1000 ------- 0 4.0 5.0 10 17
h 0.059555 1 3 tcp 1000 ------- 0 4.0 5.0 10 17
+ 0.059955 1 3 tcp 1000 ------- 0 4.0 5.0 8 15
- 0.059955 4 1 tcp 1000 ------- 0 4.0 5.0 14 21
- 0.059976 1 3 tcp 1000 ------- 0 4.0 5.0 8 15
r 0.060355 4 1 tcp 1000 ------- 0 4.0 5.0 11 18
h 0.060355 1 3 tcp 1000 ------- 0 4.0 5.0 11 18
+ 0.060755 1 3 tcp 1000 ------- 0 4.0 5.0 9 16
- 0.060797 1 3 tcp 1000 ------- 0 4.0 5.0 9 16
r 0.061155 4 1 tcp 1000 ------- 0 4.0 5.0 12 19
h 0.061155 1 3 tcp 1000 ------- 0 4.0 5.0 12 19
+ 0.061555 1 3 tcp 1000 ------- 0 4.0 5.0 10 17
- 0.061618 1 3 tcp 1000 ------- 0 4.0 5.0 10 17
r 0.061955 4 1 tcp 1000 ------- 0 4.0 5.0 13 20
h 0.061955 1 3 tcp 1000 ------- 0 4.0 5.0 13 20
r 0.06197 3 2 tcp 1000 ------- 0 4.0 5.0 7 14
+ 0.06197 2 5 tcp 1000 ------- 0 4.0 5.0 7 14
- 0.06197 2 5 tcp 1000 ------- 0 4.0 5.0 7 14
+ 0.062355 1 3 tcp 1000 ------- 0 4.0 5.0 11 18
- 0.062438 1 3 tcp 1000 ------- 0 4.0 5.0 11 18
r 0.062755 4 1 tcp 1000 ------- 0 4.0 5.0 14 21
h 0.062755 1 3 tcp 1000 ------- 0 4.0 5.0 14 21
r 0.062791 3 2 tcp 1000 ------- 0 4.0 5.0 8 15
+ 0.062791 2 5 tcp 1000 ------- 0 4.0 5.0 8 15
- 0.062791 2 5 tcp 1000 ------- 0 4.0 5.0 8 15
+ 0.063155 1 3 tcp 1000 ------- 0 4.0 5.0 12 19
- 0.063259 1 3 tcp 1000 ------- 0 4.0 5.0 12 19
r 0.063612 3 2 tcp 1000 ------- 0 4.0 5.0 9 16
+ 0.063612 2 5 tcp 1000 ------- 0 4.0 5.0 9 16
- 0.063612 2 5 tcp 1000 ------- 0 4.0 5.0 9 16
+ 0.063955 1 3 tcp 1000 ------- 0 4.0 5.0 13 20
- 0.06408 1 3 tcp 1000 ------- 0 4.0 5.0 13 20
r 0.06437 2 5 tcp 1000 ------- 0 4.0 5.0 7 14
+ 0.06437 5 2 ack 40 ------- 0 5.0 4.0 7 22
- 0.06437 5 2 ack 40 ------- 0 5.0 4.0 7 22
r 0.064433 3 2 tcp 1000 ------- 0 4.0 5.0 10 17
+ 0.064433 2 5 tcp 1000 ------- 0 4.0 5.0 10 17
- 0.064433 2 5 tcp 1000 ------- 0 4.0 5.0 10 17
+ 0.064755 1 3 tcp 1000 ------- 0 4.0 5.0 14 21
- 0.064901 1 3 tcp 1000 ------- 0 4.0 5.0 14 21
r 0.065191 2 5 tcp 1000 ------- 0 4.0 5.0 8 15
+ 0.065191 5 2 ack 40 ------- 0 5.0 4.0 8 23
- 0.065191 5 2 ack 40 ------- 0 5.0 4.0 8 23
r 0.065254 3 2 tcp 1000 ------- 0 4.0 5.0 11 18
+ 0.065254 2 5 tcp 1000 ------- 0 4.0 5.0 11 18
- 0.065254 2 5 tcp 1000 ------- 0 4.0 5.0 11 18
r 0.066012 2 5 tcp 1000 ------- 0 4.0 5.0 9 16
+ 0.066012 5 2 ack 40 ------- 0 5.0 4.0 9 24
- 0.066012 5 2 ack 40 ------- 0 5.0 4.0 9 24
r 0.066074 3 2 tcp 1000 ------- 0 4.0 5.0 12 19
+ 0.066074 2 5 tcp 1000 ------- 0 4.0 5.0 12 19
- 0.066074 2 5 tcp 1000 ------- 0 4.0 5.0 12 19
r 0.066386 5 2 ack 40 ------- 0 5.0 4.0 7 22
h 0.066386 2 3 ack 40 ------- 0 5.0 4.0 7 22
r 0.066833 2 5 tcp 1000 ------- 0 4.0 5.0 10 17
+ 0.066833 5 2 ack 40 ------- 0 5.0 4.0 10 25
- 0.066833 5 2 ack 40 ------- 0 5.0 4.0 10 25
r 0.066895 3 2 tcp 1000 ------- 0 4.0 5.0 13 20
+ 0.066895 2 5 tcp 1000 ------- 0 4.0 5.0 13 20
- 0.066895 2 5 tcp 1000 ------- 0 4.0 5.0 13 20
r 0.067207 5 2 ack 40 ------- 0 5.0 4.0 8 23
h 0.067207 2 3 ack 40 ------- 0 5.0 4.0 8 23
r 0.067654 2 5 tcp 1000 ------- 0 4.0 5.0 11 18
+ 0.067654 5 2 ack 40 ------- 0 5.0 4.0 11 26
- 0.067654 5 2 ack 40 ------- 0 5.0 4.0 11 26
r 0.067716 3 2 tcp 1000 ------- 0 4.0 5.0 14 21
+ 0.067716 2 5 tcp 1000 ------- 0 4.0 5.0 14 21
- 0.067716 2 5 tcp 1000 ------- 0 4.0 5.0 14 21
r 0.068028 5 2 ack 40 ------- 0 5.0 4.0 9 24
h 0.068028 2 3 ack 40 ------- 0 5.0 4.0 9 24
+ 0.068386 2 3 ack 40 ------- 0 5.0 4.0 7 22
- 0.068386 2 3 ack 40 ------- 0 5.0 4.0 7 22
r 0.068474 2 5 tcp 1000 ------- 0 4.0 5.0 12 19
+ 0.068474 5 2 ack 40 ------- 0 5.0 4.0 12 27
- 0.068474 5 2 ack 40 ------- 0 5.0 4.0 12 27
r 0.068849 5 2 ack 40 ------- 0 5.0 4.0 10 25
h 0.068849 2 3 ack 40 ------- 0 5.0 4.0 10 25
+ 0.069207 2 3 ack 40 ------- 0 5.0 4.0 8 23
- 0.069207 2 3 ack 40 ------- 0 5.0 4.0 8 23
r 0.069295 2 5 tcp 1000 ------- 0 4.0 5.0 13 20
+ 0.069295 5 2 ack 40 ------- 0 5.0 4.0 13 28
- 0.069295 5 2 ack 40 ------- 0 5.0 4.0 13 28
r 0.06967 5 2 ack 40 ------- 0 5.0 4.0 11 26
h 0.06967 2 3 ack 40 ------- 0 5.0 4.0 11 26
+ 0.070028 2 3 ack 40 ------- 0 5.0 4.0 9 24
- 0.070028 2 3 ack 40 ------- 0 5.0 4.0 9 24
r 0.070116 2 5 tcp 1000 ------- 0 4.0 5.0 14 21
+ 0.070116 5 2 ack 40 ------- 0 5.0 4.0 14 29
- 0.070116 5 2 ack 40 ------- 0 5.0 4.0 14 29
r 0.070442 3 1 ack 40 ------- 0 5.0 4.0 7 22
+ 0.070442 1 4 ack 40 ------- 0 5.0 4.0 7 22
- 0.070442 1 4 ack 40 ------- 0 5.0 4.0 7 22
r 0.07049 5 2 ack 40 ------- 0 5.0 4.0 12 27
h 0.07049 2 3 ack 40 ------- 0 5.0 4.0 12 27
+ 0.070849 2 3 ack 40 ------- 0 5.0 4.0 10 25
- 0.070849 2 3 ack 40 ------- 0 5.0 4.0 10 25
r 0.071262 3 1 ack 40 ------- 0 5.0 4.0 8 23
+ 0.071262 1 4 ack 40 ------- 0 5.0 4.0 8 23
- 0.071262 1 4 ack 40 ------- 0 5.0 4.0 8 23
r 0.071311 5 2 ack 40 ------- 0 5.0 4.0 13 28
h 0.071311 2 3 ack 40 ------- 0 5.0 4.0 13 28
+ 0.07167 2 3 ack 40 ------- 0 5.0 4.0 11 26
- 0.07167 2 3 ack 40 ------- 0 5.0 4.0 11 26
r 0.072083 3 1 ack 40 ------- 0 5.0 4.0 9 24
+ 0.072083 1 4 ack 40 ------- 0 5.0 4.0 9 24
- 0.072083 1 4 ack 40 ------- 0 5.0 4.0 9 24
r 0.072132 5 2 ack 40 ------- 0 5.0 4.0 14 29
h 0.072132 2 3 ack 40 ------- 0 5.0 4.0 14 29
r 0.072474 1 4 ack 40 ------- 0 5.0 4.0 7 22
+ 0.072474 4 1 tcp 1000 ------- 0 4.0 5.0 15 30
- 0.072474 4 1 tcp 1000 ------- 0 4.0 5.0 15 30
+ 0.072474 4 1 tcp 1000 ------- 0 4.0 5.0 16 31
+ 0.07249 2 3 ack 40 ------- 0 5.0 4.0 12 27
- 0.07249 2 3 ack 40 ------- 0 5.0 4.0 12 27
r 0.072904 3 1 ack 40 ------- 0 5.0 4.0 10 25
+ 0.072904 1 4 ack 40 ------- 0 5.0 4.0 10 25
- 0.072904 1 4 ack 40 ------- 0 5.0 4.0 10 25
- 0.073274 4 1 tcp 1000 ------- 0 4.0 5.0 16 31
r 0.073294 1 4 ack 40 ------- 0 5.0 4.0 8 23
+ 0.073294 4 1 tcp 1000 ------- 0 4.0 5.0 17 32
+ 0.073294 4 1 tcp 1000 ------- 0 4.0 5.0 18 33
+ 0.073311 2 3 ack 40 ------- 0 5.0 4.0 13 28
- 0.073311 2 3 ack 40 ------- 0 5.0 4.0 13 28
r 0.073725 3 1 ack 40 ------- 0 5.0 4.0 11 26
+ 0.073725 1 4 ack 40 ------- 0 5.0 4.0 11 26
- 0.073725 1 4 ack 40 ------- 0 5.0 4.0 11 26
- 0.074074 4 1 tcp 1000 ------- 0 4.0 5.0 17 32
r 0.074115 1 4 ack 40 ------- 0 5.0 4.0 9 24
+ 0.074115 4 1 tcp 1000 ------- 0 4.0 5.0 19 34
+ 0.074115 4 1 tcp 1000 ------- 0 4.0 5.0 20 35
+ 0.074132 2 3 ack 40 ------- 0 5.0 4.0 14 29
- 0.074132 2 3 ack 40 ------- 0 5.0 4.0 14 29
r 0.074546 3 1 ack 40 ------- 0 5.0 4.0 12 27
+ 0.074546 1 4 ack 40 ------- 0 5.0 4.0 12 27
- 0.074546 1 4 ack 40 ------- 0 5.0 4.0 12 27
- 0.074874 4 1 tcp 1000 ------- 0 4.0 5.0 18 33
r 0.074936 1 4 ack 40 ------- 0 5.0 4.0 10 25
+ 0.074936 4 1 tcp 1000 ------- 0 4.0 5.0 21 36
+ 0.074936 4 1 tcp 1000 ------- 0 4.0 5.0 22 37
r 0.075274 4 1 tcp 1000 ------- 0 4.0 5.0 15 30
h 0.075274 1 3 tcp 1000 ------- 0 4.0 5.0 15 30
r 0.075366 3 1 ack 40 ------- 0 5.0 4.0 13 28
+ 0.075366 1 4 ack 40 ------- 0 5.0 4.0 13 28
- 0.075366 1 4 ack 40 ------- 0 5.0 4.0 13 28
- 0.075674 4 1 tcp 1000 ------- 0 4.0 5.0 19 34
r 0.075757 1 4 ack 40 ------- 0 5.0 4.0 11 26
+ 0.075757 4 1 tcp 1000 ------- 0 4.0 5.0 23 38
+ 0.075757 4 1 tcp 1000 ------- 0 4.0 5.0 24 39
r 0.076074 4 1 tcp 1000 ------- 0 4.0 5.0 16 31
h 0.076074 1 3 tcp 1000 ------- 0 4.0 5.0 16 31
r 0.076187 3 1 ack 40 ------- 0 5.0 4.0 14 29
+ 0.076187 1 4 ack 40 ------- 0 5.0 4.0 14 29
- 0.076187 1 4 ack 40 ------- 0 5.0 4.0 14 29
- 0.076474 4 1 tcp 1000 ------- 0 4.0 5.0 20 35
r 0.076578 1 4 ack 40 ------- 0 5.0 4.0 12 27
+ 0.076578 4 1 tcp 1000 ------- 0 4.0 5.0 25 40
+ 0.076578 4 1 tcp 1000 ------- 0 4.0 5.0 26 41
r 0.076874 4 1 tcp 1000 ------- 0 4.0 5.0 17 32
h 0.076874 1 3 tcp 1000 ------- 0 4.0 5.0 17 32
- 0.077274 4 1 tcp 1000 ------- 0 4.0 5.0 21 36
+ 0.077274 1 3 tcp 1000 ------- 0 4.0 5.0 15 30
- 0.077274 1 3 tcp 1000 ------- 0 4.0 5.0 15 30
r 0.077398 1 4 ack 40 ------- 0 5.0 4.0 13 28
+ 0.077398 4 1 tcp 1000 ------- 0 4.0 5.0 27 42
+ 0.077398 4 1 tcp 1000 ------- 0 4.0 5.0 28 43
r 0.077674 4 1 tcp 1000 ------- 0 4.0 5.0 18 33
h 0.077674 1 3 tcp 1000 ------- 0 4.0 5.0 18 33
- 0.078074 4 1 tcp 1000 ------- 0 4.0 5.0 22 37
+ 0.078074 1 3 tcp 1000 ------- 0 4.0 5.0 16 31
- 0.078094 1 3 tcp 1000 ------- 0 4.0 5.0 16 31
r 0.078219 1 4 ack 40 ------- 0 5.0 4.0 14 29
+ 0.078219 4 1 tcp 1000 ------- 0 4.0 5.0 29 44
r 0.078474 4 1 tcp 1000 ------- 0 4.0 5.0 19 34
h 0.078474 1 3 tcp 1000 ------- 0 4.0 5.0 19 34
- 0.078874 4 1 tcp 1000 ------- 0 4.0 5.0 23 38
+ 0.078874 1 3 tcp 1000 ------- 0 4.0 5.0 17 32
- 0.078915 1 3 tcp 1000 ------- 0 4.0 5.0 17 32
r 0.079274 4 1 tcp 1000 ------- 0 4.0 5.0 20 35
h 0.079274 1 3 tcp 1000 ------- 0 4.0 5.0 20 35
- 0.079674 4 1 tcp 1000 ------- 0 4.0 5.0 24 39
+ 0.079674 1 3 tcp 1000 ------- 0 4.0 5.0 18 33
- 0.079736 1 3 tcp 1000 ------- 0 4.0 5.0 18 33
r 0.080074 4 1 tcp 1000 ------- 0 4.0 5.0 21 36
h 0.080074 1 3 tcp 1000 ------- 0 4.0 5.0 21 36
r 0.080089 3 2 tcp 1000 ------- 0 4.0 5.0 15 30
+ 0.080089 2 5 tcp 1000 ------- 0 4.0 5.0 15 30
- 0.080089 2 5 tcp 1000 ------- 0 4.0 5.0 15 30
- 0.080474 4 1 tcp 1000 ------- 0 4.0 5.0 25 40
+ 0.080474 1 3 tcp 1000 ------- 0 4.0 5.0 19 34
- 0.080557 1 3 tcp 1000 ------- 0 4.0 5.0 19 34
r 0.080874 4 1 tcp 1000 ------- 0 4.0 5.0 22 37
h 0.080874 1 3 tcp 1000 ------- 0 4.0 5.0 22 37
r 0.08091 3 2 tcp 1000 ------- 0 4.0 5.0 16 31
+ 0.08091 2 5 tcp 1000 ------- 0 4.0 5.0 16 31
- 0.08091 2 5 tcp 1000 ------- 0 4.0 5.0 16 31
- 0.081274 4 1 tcp 1000 ------- 0 4.0 5.0 26 41
+ 0.081274 1 3 tcp 1000 ------- 0 4.0 5.0 20 35
- 0.081378 1 3 tcp 1000 ------- 0 4.0 5.0 20 35
r 0.081674 4 1 tcp 1000 ------- 0 4.0 5.0 23 38
h 0.081674 1 3 tcp 1000 ------- 0 4.0 5.0 23 38
r 0.08173 3 2 tcp 1000 ------- 0 4.0 5.0 17 32
+ 0.08173 2 5 tcp 1000 ------- 0 4.0 5.0 17 32
- 0.08173 2 5 tcp 1000 ------- 0 4.0 5.0 17 32
- 0.082074 4 1 tcp 1000 ------- 0 4.0 5.0 27 42
+ 0.082074 1 3 tcp 1000 ------- 0 4.0 5.0 21 36
- 0.082198 1 3 tcp 1000 ------- 0 4.0 5.0 21 36
r 0.082474 4 1 tcp 1000 ------- 0 4.0 5.0 24 39
h 0.082474 1 3 tcp 1000 ------- 0 4.0 5.0 24 39
r 0.082489 2 5 tcp 1000 ------- 0 4.0 5.0 15 30
+ 0.082489 5 2 ack 40 ------- 0 5.0 4.0 15 45
- 0.082489 5 2 ack 40 ------- 0 5.0 4.0 15 45
r 0.082551 3 2 tcp 1000 ------- 0 4.0 5.0 18 33
+ 0.082551 2 5 tcp 1000 ------- 0 4.0 5.0 18 33
- 0.082551 2 5 tcp 1000 ------- 0 4.0 5.0 18 33
- 0.082874 4 1 tcp 1000 ------- 0 4.0 5.0 28 43
+ 0.082874 1 3 tcp 1000 ------- 0 4.0 5.0 22 37
- 0.083019 1 3 tcp 1000 ------- 0 4.0 5.0 22 37
r 0.083274 4 1 tcp 1000 ------- 0 4.0 5.0 25 40
h 0.083274 1 3 tcp 1000 ------- 0 4.0 5.0 25 40
r 0.08331 2 5 tcp 1000 ------- 0 4.0 5.0 16 31
+ 0.08331 5 2 ack 40 ------- 0 5.0 4.0 16 46
- 0.08331 5 2 ack 40 ------- 0 5.0 4.0 16 46
r 0.083372 3 2 tcp 1000 ------- 0 4.0 5.0 19 34
+ 0.083372 2 5 tcp 1000 ------- 0 4.0 5.0 19 34
- 0.083372 2 5 tcp 1000 ------- 0 4.0 5.0 19 34
- 0.083674 4 1 tcp 1000 ------- 0 4.0 5.0 29 44
+ 0.083674 1 3 tcp 1000 ------- 0 4.0 5.0 23 38
- 0.08384 1 3 tcp 1000 ------- 0 4.0 5.0 23 38
r 0.084074 4 1 tcp 1000 ------- 0 4.0 5.0 26 41
h 0.084074 1 3 tcp 1000 ------- 0 4.0 5.0 26 41
r 0.08413 2 5 tcp 1000 ------- 0 4.0 5.0 17 32
+ 0.08413 5 2 ack 40 ------- 0 5.0 4.0 17 47
- 0.08413 5 2 ack 40 ------- 0 5.0 4.0 17 47
r 0.084193 3 2 tcp 1000 ------- 0 4.0 5.0 20 35
+ 0.084193 2 5 tcp 1000 ------- 0 4.0 5.0 20 35
- 0.084193 2 5 tcp 1000 ------- 0 4.0 5.0 20 35
+ 0.084474 1 3 tcp 1000 ------- 0 4.0 5.0 24 39
r 0.084505 5 2 ack 40 ------- 0 5.0 4.0 15 45
h 0.084505 2 3 ack 40 ------- 0 5.0 4.0 15 45
- 0.084661 1 3 tcp 1000 ------- 0 4.0 5.0 24 39
r 0.084874 4 1 tcp 1000 ------- 0 4.0 5.0 27 42
h 0.084874 1 3 tcp 1000 ------- 0 4.0 5.0 27 42
r 0.084951 2 5 tcp 1000 ------- 0 4.0 5.0 18 33
+ 0.084951 5 2 ack 40 ------- 0 5.0 4.0 18 48
- 0.084951 5 2 ack 40 ------- 0 5.0 4.0 18 48
r 0.085014 3 2 tcp 1000 ------- 0 4.0 5.0 21 36
+ 0.085014 2 5 tcp 1000 ------- 0 4.0 5.0 21 36
- 0.085014 2 5 tcp 1000 ------- 0 4.0 5.0 21 36
+ 0.085274 1 3 tcp 1000 ------- 0 4.0 5.0 25 40
r 0.085326 5 2 ack 40 ------- 0 5.0 4.0 16 46
h 0.085326 2 3 ack 40 ------- 0 5.0 4.0 16 46
- 0.085482 1 3 tcp 1000 ------- 0 4.0 5.0 25 40
r 0.085674 4 1 tcp 1000 ------- 0 4.0 5.0 28 43
h 0.085674 1 3 tcp 1000 ------- 0 4.0 5.0 28 43
r 0.085772 2 5 tcp 1000 ------- 0 4.0 5.0 19 34
+ 0.085772 5 2 ack 40 ------- 0 5.0 4.0 19 49
- 0.085772 5 2 ack 40 ------- 0 5.0 4.0 19 49
r 0.085834 3 2 tcp 1000 ------- 0 4.0 5.0 22 37
+ 0.085834 2 5 tcp 1000 ------- 0 4.0 5.0 22 37
- 0.085834 2 5 tcp 1000 ------- 0 4.0 5.0 22 37
+ 0.086074 1 3 tcp 1000 ------- 0 4.0 5.0 26 41
r 0.086146 5 2 ack 40 ------- 0 5.0 4.0 17 47
h 0.086146 2 3 ack 40 ------- 0 5.0 4.0 17 47
- 0.086302 1 3 tcp 1000 ------- 0 4.0 5.0 26 41
r 0.086474 4 1 tcp 1000 ------- 0 4.0 5.0 29 44
h 0.086474 1 3 tcp 1000 ------- 0 4.0 5.0 29 44
+ 0.086505 2 3 ack 40 ------- 0 5.0 4.0 15 45
- 0.086505 2 3 ack 40 ------- 0 5.0 4.0 15 45
r 0.086593 2 5 tcp 1000 ------- 0 4.0 5.0 20 35
+ 0.086593 5 2 ack 40 ------- 0 5.0 4.0 20 50
- 0.086593 5 2 ack 40 ------- 0 5.0 4.0 20 50
r 0.086655 3 2 tcp 1000 ------- 0 4.0 5.0 23 38
+ 0.086655 2 5 tcp 1000 ------- 0 4.0 5.0 23 38
- 0.086655 2 5 tcp 1000 ------- 0 4.0 5.0 23 38
+ 0.086874 1 3 tcp 1000 ------- 0 4.0 5.0 27 42
r 0.086967 5 2 ack 40 ------- 0 5.0 4.0 18 48
h 0.086967 2 3 ack 40 ------- 0 5.0 4.0 18 48
- 0.087123 1 3 tcp 1000 ------- 0 4.0 5.0 27 42
+ 0.087326 2 3 ack 40 ------- 0 5.0 4.0 16 46
- 0.087326 2 3 ack 40 ------- 0 5.0 4.0 16 46
r 0.087414 2 5 tcp 1000 ------- 0 4.0 5.0 21 36
+ 0.087414 5 2 ack 40 ------- 0 5.0 4.0 21 51
- 0.087414 5 2 ack 40 ------- 0 5.0 4.0 21 51
r 0.087476 3 2 tcp 1000 ------- 0 4.0 5.0 24 39
+ 0.087476 2 5 tcp 1000 ------- 0 4.0 5.0 24 39
- 0.087476 2 5 tcp 1000 ------- 0 4.0 5.0 24 39
+ 0.087674 1 3 tcp 1000 ------- 0 4.0 5.0 28 43
r 0.087788 5 2 ack 40 ------- 0 5.0 4.0 19 49
h 0.087788 2 3 ack 40 ------- 0 5.0 4.0 19 49
- 0.088026 1 3 tcp 1000 ------- 0 4.0 5.0 28 43
+ 0.088146 2 3 ack 40 ------- 0 5.0 4.0 17 47
r 0.088234 2 5 tcp 1000 ------- 0 4.0 5.0 22 37
+ 0.088234 5 2 ack 40 ------- 0 5.0 4.0 22 52
- 0.088234 5 2 ack 40 ------- 0 5.0 4.0 22 52
r 0.088297 3 2 tcp 1000 ------- 0 4.0 5.0 25 40
+ 0.088297 2 5 tcp 1000 ------- 0 4.0 5.0 25 40
- 0.088297 2 5 tcp 1000 ------- 0 4.0 5.0 25 40
+ 0.088474 1 3 tcp 1000 ------- 0 4.0 5.0 29 44
r 0.088609 5 2 ack 40 ------- 0 5.0 4.0 20 50
h 0.088609 2 3 ack 40 ------- 0 5.0 4.0 20 50
- 0.088867 1 3 tcp 1000 ------- 0 4.0 5.0 29 44
+ 0.088967 2 3 ack 40 ------- 0 5.0 4.0 18 48
r 0.089055 2 5 tcp 1000 ------- 0 4.0 5.0 23 38
+ 0.089055 5 2 ack 40 ------- 0 5.0 4.0 23 53
- 0.089055 5 2 ack 40 ------- 0 5.0 4.0 23 53
r 0.089118 3 2 tcp 1000 ------- 0 4.0 5.0 26 41
+ 0.089118 2 5 tcp 1000 ------- 0 4.0 5.0 26 41
- 0.089118 2 5 tcp 1000 ------- 0 4.0 5.0 26 41
r 0.089195 3 1 ack 40 ------- 0 5.0 4.0 15 45
+ 0.089195 1 4 ack 40 ------- 0 5.0 4.0 15 45
- 0.089195 1 4 ack 40 ------- 0 5.0 4.0 15 45
r 0.08943 5 2 ack 40 ------- 0 5.0 4.0 21 51
h 0.08943 2 3 ack 40 ------- 0 5.0 4.0 21 51
+ 0.089788 2 3 ack 40 ------- 0 5.0 4.0 19 49
- 0.089825 2 3 ack 40 ------- 0 5.0 4.0 17 47
r 0.089876 2 5 tcp 1000 ------- 0 4.0 5.0 24 39
+ 0.089876 5 2 ack 40 ------- 0 5.0 4.0 24 54
- 0.089876 5 2 ack 40 ------- 0 5.0 4.0 24 54
- 0.089886 2 3 ack 40 ------- 0 5.0 4.0 18 48
- 0.089946 2 3 ack 40 ------- 0 5.0 4.0 19 49
r 0.09002 3 2 tcp 1000 ------- 0 4.0 5.0 27 42
+ 0.09002 2 5 tcp 1000 ------- 0 4.0 5.0 27 42
- 0.09002 2 5 tcp 1000 ------- 0 4.0 5.0 27 42
r 0.09025 5 2 ack 40 ------- 0 5.0 4.0 22 52
h 0.09025 2 3 ack 40 ------- 0 5.0 4.0 22 52
+ 0.090609 2 3 ack 40 ------- 0 5.0 4.0 20 50
- 0.090609 2 3 ack 40 ------- 0 5.0 4.0 20 50
r 0.090697 2 5 tcp 1000 ------- 0 4.0 5.0 25 40
+ 0.090697 5 2 ack 40 ------- 0 5.0 4.0 25 55
- 0.090697 5 2 ack 40 ------- 0 5.0 4.0 25 55
r 0.090862 3 2 tcp 1000 ------- 0 4.0 5.0 28 43
+ 0.090862 2 5 tcp 1000 ------- 0 4.0 5.0 28 43
- 0.090862 2 5 tcp 1000 ------- 0 4.0 5.0 28 43
r 0.091071 5 2 ack 40 ------- 0 5.0 4.0 23 53
h 0.091071 2 3 ack 40 ------- 0 5.0 4.0 23 53
r 0.091227 1 4 ack 40 ------- 0 5.0 4.0 15 45
+ 0.091227 4 1 tcp 1000 ------- 0 4.0 5.0 30 56
- 0.091227 4 1 tcp 1000 ------- 0 4.0 5.0 30 56
+ 0.09143 2 3 ack 40 ------- 0 5.0 4.0 21 51
- 0.09143 2 3 ack 40 ------- 0 5.0 4.0 21 51
r 0.091518 2 5 tcp 1000 ------- 0 4.0 5.0 26 41
+ 0.091518 5 2 ack 40 ------- 0 5.0 4.0 26 57
- 0.091518 5 2 ack 40 ------- 0 5.0 4.0 26 57
r 0.091754 3 2 tcp 1000 ------- 0 4.0 5.0 29 44
+ 0.091754 2 5 tcp 1000 ------- 0 4.0 5.0 29 44
- 0.091754 2 5 tcp 1000 ------- 0 4.0 5.0 29 44
r 0.091819 3 1 ack 40 ------- 0 5.0 4.0 16 46
+ 0.091819 1 4 ack 40 ------- 0 5.0 4.0 16 46
- 0.091819 1 4 ack 40 ------- 0 5.0 4.0 16 46
r 0.09188 3 1 ack 40 ------- 0 5.0 4.0 17 47
+ 0.09188 1 4 ack 40 ------- 0 5.0 4.0 17 47
- 0.09188 1 4 ack 40 ------- 0 5.0 4.0 17 47
r 0.091892 5 2 ack 40 ------- 0 5.0 4.0 24 54
h 0.091892 2 3 ack 40 ------- 0 5.0 4.0 24 54
r 0.091941 3 1 ack 40 ------- 0 5.0 4.0 18 48
+ 0.091941 1 4 ack 40 ------- 0 5.0 4.0 18 48
- 0.091941 1 4 ack 40 ------- 0 5.0 4.0 18 48
r 0.092002 3 1 ack 40 ------- 0 5.0 4.0 19 49
+ 0.092002 1 4 ack 40 ------- 0 5.0 4.0 19 49
- 0.092002 1 4 ack 40 ------- 0 5.0 4.0 19 49
+ 0.09225 2 3 ack 40 ------- 0 5.0 4.0 22 52
- 0.09225 2 3 ack 40 ------- 0 5.0 4.0 22 52
r 0.09242 2 5 tcp 1000 ------- 0 4.0 5.0 27 42
+ 0.09242 5 2 ack 40 ------- 0 5.0 4.0 27 58
- 0.09242 5 2 ack 40 ------- 0 5.0 4.0 27 58
r 0.092664 3 1 ack 40 ------- 0 5.0 4.0 20 50
+ 0.092664 1 4 ack 40 ------- 0 5.0 4.0 20 50
- 0.092664 1 4 ack 40 ------- 0 5.0 4.0 20 50
r 0.092713 5 2 ack 40 ------- 0 5.0 4.0 25 55
h 0.092713 2 3 ack 40 ------- 0 5.0 4.0 25 55
+ 0.093071 2 3 ack 40 ------- 0 5.0 4.0 23 53
- 0.093071 2 3 ack 40 ------- 0 5.0 4.0 23 53
r 0.093262 2 5 tcp 1000 ------- 0 4.0 5.0 28 43
+ 0.093262 5 2 ack 40 ------- 0 5.0 4.0 28 59
- 0.093262 5 2 ack 40 ------- 0 5.0 4.0 28 59
r 0.093485 3 1 ack 40 ------- 0 5.0 4.0 21 51
+ 0.093485 1 4 ack 40 ------- 0 5.0 4.0 21 51
- 0.093485 1 4 ack 40 ------- 0 5.0 4.0 21 51
r 0.093534 5 2 ack 40 ------- 0 5.0 4.0 26 57
h 0.093534 2 3 ack 40 ------- 0 5.0 4.0 26 57
r 0.093851 1 4 ack 40 ------- 0 5.0 4.0 16 46
+ 0.093851 4 1 tcp 1000 ------- 0 4.0 5.0 31 60
- 0.093851 4 1 tcp 1000 ------- 0 4.0 5.0 31 60
+ 0.093892 2 3 ack 40 ------- 0 5.0 4.0 24 54
- 0.093892 2 3 ack 40 ------- 0 5.0 4.0 24 54
r 0.093912 1 4 ack 40 ------- 0 5.0 4.0 17 47
+ 0.093912 4 1 tcp 1000 ------- 0 4.0 5.0 32 61
r 0.093973 1 4 ack 40 ------- 0 5.0 4.0 18 48
+ 0.093973 4 1 tcp 1000 ------- 0 4.0 5.0 33 62
r 0.094027 4 1 tcp 1000 ------- 0 4.0 5.0 30 56
h 0.094027 1 3 tcp 1000 ------- 0 4.0 5.0 30 56
r 0.094034 1 4 ack 40 ------- 0 5.0 4.0 19 49
+ 0.094034 4 1 tcp 1000 ------- 0 4.0 5.0 34 63
r 0.094154 2 5 tcp 1000 ------- 0 4.0 5.0 29 44
+ 0.094154 5 2 ack 40 ------- 0 5.0 4.0 29 64
- 0.094154 5 2 ack 40 ------- 0 5.0 4.0 29 64
r 0.094306 3 1 ack 40 ------- 0 5.0 4.0 22 52
+ 0.094306 1 4 ack 40 ------- 0 5.0 4.0 22 52
- 0.094306 1 4 ack 40 ------- 0 5.0 4.0 22 52
r 0.094436 5 2 ack 40 ------- 0 5.0 4.0 27 58
h 0.094436 2 3 ack 40 ------- 0 5.0 4.0 27 58
- 0.094651 4 1 tcp 1000 ------- 0 4.0 5.0 32 61
r 0.094696 1 4 ack 40 ------- 0 5.0 4.0 20 50
+ 0.094696 4 1 tcp 1000 ------- 0 4.0 5.0 35 65
+ 0.094713 2 3 ack 40 ------- 0 5.0 4.0 25 55
- 0.094713 2 3 ack 40 ------- 0 5.0 4.0 25 55
r 0.095126 3 1 ack 40 ------- 0 5.0 4.0 23 53
+ 0.095126 1 4 ack 40 ------- 0 5.0 4.0 23 53
- 0.095126 1 4 ack 40 ------- 0 5.0 4.0 23 53
r 0.095278 5 2 ack 40 ------- 0 5.0 4.0 28 59
h 0.095278 2 3 ack 40 ------- 0 5.0 4.0 28 59
- 0.095451 4 1 tcp 1000 ------- 0 4.0 5.0 33 62
r 0.095517 1 4 ack 40 ------- 0 5.0 4.0 21 51
+ 0.095517 4 1 tcp 1000 ------- 0 4.0 5.0 36 66
+ 0.095534 2 3 ack 40 ------- 0 5.0 4.0 26 57
- 0.095534 2 3 ack 40 ------- 0 5.0 4.0 26 57
r 0.095947 3 1 ack 40 ------- 0 5.0 4.0 24 54
+ 0.095947 1 4 ack 40 ------- 0 5.0 4.0 24 54
- 0.095947 1 4 ack 40 ------- 0 5.0 4.0 24 54
+ 0.096027 1 3 tcp 1000 ------- 0 4.0 5.0 30 56
- 0.096027 1 3 tcp 1000 ------- 0 4.0 5.0 30 56
r 0.09617 5 2 ack 40 ------- 0 5.0 4.0 29 64
h 0.09617 2 3 ack 40 ------- 0 5.0 4.0 29 64
- 0.096251 4 1 tcp 1000 ------- 0 4.0 5.0 34 63
r 0.096338 1 4 ack 40 ------- 0 5.0 4.0 22 52
+ 0.096338 4 1 tcp 1000 ------- 0 4.0 5.0 37 67
+ 0.096436 2 3 ack 40 ------- 0 5.0 4.0 27 58
- 0.096436 2 3 ack 40 ------- 0 5.0 4.0 27 58
r 0.096651 4 1 tcp 1000 ------- 0 4.0 5.0 31 60
h 0.096651 1 3 tcp 1000 ------- 0 4.0 5.0 31 60
r 0.096768 3 1 ack 40 ------- 0 5.0 4.0 25 55
+ 0.096768 1 4 ack 40 ------- 0 5.0 4.0 25 55
- 0.096768 1 4 ack 40 ------- 0 5.0 4.0 25 55
- 0.097051 4 1 tcp 1000 ------- 0 4.0 5.0 35 65
r 0.097158 1 4 ack 40 ------- 0 5.0 4.0 23 53
+ 0.097158 4 1 tcp 1000 ------- 0 4.0 5.0 38 68
+ 0.097278 2 3 ack 40 ------- 0 5.0 4.0 28 59
- 0.097278 2 3 ack 40 ------- 0 5.0 4.0 28 59
r 0.097451 4 1 tcp 1000 ------- 0 4.0 5.0 32 61
h 0.097451 1 3 tcp 1000 ------- 0 4.0 5.0 32 61
r 0.097589 3 1 ack 40 ------- 0 5.0 4.0 26 57
+ 0.097589 1 4 ack 40 ------- 0 5.0 4.0 26 57
- 0.097589 1 4 ack 40 ------- 0 5.0 4.0 26 57
- 0.097851 4 1 tcp 1000 ------- 0 4.0 5.0 36 66
r 0.097979 1 4 ack 40 ------- 0 5.0 4.0 24 54
+ 0.097979 4 1 tcp 1000 ------- 0 4.0 5.0 39 69
+ 0.09817 2 3 ack 40 ------- 0 5.0 4.0 29 64
- 0.09817 2 3 ack 40 ------- 0 5.0 4.0 29 64
r 0.098251 4 1 tcp 1000 ------- 0 4.0 5.0 33 62
h 0.098251 1 3 tcp 1000 ------- 0 4.0 5.0 33 62
- 0.098651 4 1 tcp 1000 ------- 0 4.0 5.0 37 67
+ 0.098651 1 3 tcp 1000 ------- 0 4.0 5.0 31 60
- 0.098651 1 3 tcp 1000 ------- 0 4.0 5.0 31 60
r 0.0988 1 4 ack 40 ------- 0 5.0 4.0 25 55
+ 0.0988 4 1 tcp 1000 ------- 0 4.0 5.0 40 70
r 0.098842 3 2 tcp 1000 ------- 0 4.0 5.0 30 56
+ 0.098842 2 5 tcp 1000 ------- 0 4.0 5.0 30 56
- 0.098842 2 5 tcp 1000 ------- 0 4.0 5.0 30 56
r 0.098907 3 1 ack 40 ------- 0 5.0 4.0 27 58
+ 0.098907 1 4 ack 40 ------- 0 5.0 4.0 27 58
- 0.098907 1 4 ack 40 ------- 0 5.0 4.0 27 58
r 0.099051 4 1 tcp 1000 ------- 0 4.0 5.0 34 63
h 0.099051 1 3 tcp 1000 ------- 0 4.0 5.0 34 63
r 0.099333 3 1 ack 40 ------- 0 5.0 4.0 28 59
+ 0.099333 1 4 ack 40 ------- 0 5.0 4.0 28 59
- 0.099333 1 4 ack 40 ------- 0 5.0 4.0 28 59
- 0.099451 4 1 tcp 1000 ------- 0 4.0 5.0 38 68
+ 0.099451 1 3 tcp 1000 ------- 0 4.0 5.0 32 61
- 0.099472 1 3 tcp 1000 ------- 0 4.0 5.0 32 61
r 0.099621 1 4 ack 40 ------- 0 5.0 4.0 26 57
+ 0.099621 4 1 tcp 1000 ------- 0 4.0 5.0 41 71
r 0.099851 4 1 tcp 1000 ------- 0 4.0 5.0 35 65
h 0.099851 1 3 tcp 1000 ------- 0 4.0 5.0 35 65
r 0.100226 3 1 ack 40 ------- 0 5.0 4.0 29 64
+ 0.100226 1 4 ack 40 ------- 0 5.0 4.0 29 64
- 0.100226 1 4 ack 40 ------- 0 5.0 4.0 29 64
- 0.100251 4 1 tcp 1000 ------- 0 4.0 5.0 39 69
+ 0.100251 1 3 tcp 1000 ------- 0 4.0 5.0 33 62
- 0.100293 1 3 tcp 1000 ------- 0 4.0 5.0 33 62
r 0.100651 4 1 tcp 1000 ------- 0 4.0 5.0 36 66
h 0.100651 1 3 tcp 1000 ------- 0 4.0 5.0 36 66
r 0.100939 1 4 ack 40 ------- 0 5.0 4.0 27 58