+ 0 4 1 tcp 1000 ------- 0 4.0 5.0 0 0
- 0 4 1 tcp 1000 ------- 0 4.0 5.0 0 0
r 0.0024 4 1 tcp 1000 ------- 0 4.0 5.0 0 0
h 0.0024 1 3 tcp 1000 ------- 0 4.0 5.0 0 0
+ 0.0044 1 3 tcp 1000 ------- 0 4.0 5.0 0 0
- 0.0044 1 3 tcp 1000 ------- 0 4.0 5.0 0 0
r 0.007215 3 2 tcp 1000 ------- 0 4.0 5.0 0 0
+ 0.007215 2 5 tcp 1000 ------- 0 4.0 5.0 0 0
- 0.007215 2 5 tcp 1000 ------- 0 4.0 5.0 0 0
r 0.009615 2 5 tcp 1000 ------- 0 4.0 5.0 0 0
+ 0.009615 5 2 ack 40 ------- 0 5.0 4.0 0 1
- 0.009615 5 2 ack 40 ------- 0 5.0 4.0 0 1
r 0.011631 5 2 ack 40 ------- 0 5.0 4.0 0 1
h 0.011631 2 3 ack 40 ------- 0 5.0 4.0 0 1
+ 0.013631 2 3 ack 40 ------- 0 5.0 4.0 0 1
- 0.013631 2 3 ack 40 ------- 0 5.0 4.0 0 1
r 0.015686 3 1 ack 40 ------- 0 5.0 4.0 0 1
+ 0.015686 1 4 ack 40 ------- 0 5.0 4.0 0 1
- 0.015686 1 4 ack 40 ------- 0 5.0 4.0 0 1
r 0.017702 1 4 ack 40 ------- 0 5.0 4.0 0 1
+ 0.017702 4 1 tcp 1000 ------- 0 4.0 5.0 1 2
- 0.017702 4 1 tcp 1000 ------- 0 4.0 5.0 1 2
+ 0.017702 4 1 tcp 1000 ------- 0 4.0 5.0 2 3
- 0.018102 4 1 tcp 1000 ------- 0 4.0 5.0 2 3
r 0.020102 4 1 tcp 1000 ------- 0 4.0 5.0 1 2
h 0.020102 1 3 tcp 1000 ------- 0 4.0 5.0 1 2
r 0.020502 4 1 tcp 1000 ------- 0 4.0 5.0 2 3
h 0.020502 1 3 tcp 1000 ------- 0 4.0 5.0 2 3
+ 0.022102 1 3 tcp 1000 ------- 0 4.0 5.0 1 2
- 0.022102 1 3 tcp 1000 ------- 0 4.0 5.0 1 2
+ 0.022502 1 3 tcp 1000 ------- 0 4.0 5.0 2 3
- 0.022923 1 3 tcp 1000 ------- 0 4.0 5.0 2 3
r 0.024918 3 2 tcp 1000 ------- 0 4.0 5.0 1 2
+ 0.024918 2 5 tcp 1000 ------- 0 4.0 5.0 1 2
- 0.024918 2 5 tcp 1000 ------- 0 4.0 5.0 1 2
r 0.025738 3 2 tcp 1000 ------- 0 4.0 5.0 2 3
+ 0.025738 2 5 tcp 1000 ------- 0 4.0 5.0 2 3
- 0.025738 2 5 tcp 1000 ------- 0 4.0 5.0 2 3
r 0.027318 2 5 tcp 1000 ------- 0 4.0 5.0 1 2
+ 0.027318 5 2 ack 40 ------- 0 5.0 4.0 1 4
- 0.027318 5 2 ack 40 ------- 0 5.0 4.0 1 4
r 0.028138 2 5 tcp 1000 ------- 0 4.0 5.0 2 3
+ 0.028138 5 2 ack 40 ------- 0 5.0 4.0 2 5
- 0.028138 5 2 ack 40 ------- 0 5.0 4.0 2 5
r 0.029334 5 2 ack 40 ------- 0 5.0 4.0 1 4
h 0.029334 2 3 ack 40 ------- 0 5.0 4.0 1 4
r 0.030154 5 2 ack 40 ------- 0 5.0 4.0 2 5
h 0.030154 2 3 ack 40 ------- 0 5.0 4.0 2 5
+ 0.031334 2 3 ack 40 ------- 0 5.0 4.0 1 4
- 0.031334 2 3 ack 40 ------- 0 5.0 4.0 1 4
+ 0.032154 2 3 ack 40 ------- 0 5.0 4.0 2 5
- 0.032154 2 3 ack 40 ------- 0 5.0 4.0 2 5
r 0.033389 3 1 ack 40 ------- 0 5.0 4.0 1 4
+ 0.033389 1 4 ack 40 ------- 0 5.0 4.0 1 4
- 0.033389 1 4 ack 40 ------- 0 5.0 4.0 1 4
r 0.03421 3 1 ack 40 ------- 0 5.0 4.0 2 5
+ 0.03421 1 4 ack 40 ------- 0 5.0 4.0 2 5
- 0.03421 1 4 ack 40 ------- 0 5.0 4.0 2 5
r 0.035405 1 4 ack 40 ------- 0 5.0 4.0 1 4
+ 0.035405 4 1 tcp 1000 ------- 0 4.0 5.0 3 6
- 0.035405 4 1 tcp 1000 ------- 0 4.0 5.0 3 6
+ 0.035405 4 1 tcp 1000 ------- 0 4.0 5.0 4 7
- 0.035805 4 1 tcp 1000 ------- 0 4.0 5.0 4 7
r 0.036226 1 4 ack 40 ------- 0 5.0 4.0 2 5
+ 0.036226 4 1 tcp 1000 ------- 0 4.0 5.0 5 8
- 0.036226 4 1 tcp 1000 ------- 0 4.0 5.0 5 8
+ 0.036226 4 1 tcp 1000 ------- 0 4.0 5.0 6 9
- 0.036626 4 1 tcp 1000 ------- 0 4.0 5.0 6 9
r 0.037805 4 1 tcp 1000 ------- 0 4.0 5.0 3 6
h 0.037805 1 3 tcp 1000 ------- 0 4.0 5.0 3 6
r 0.038205 4 1 tcp 1000 ------- 0 4.0 5.0 4 7
h 0.038205 1 3 tcp 1000 ------- 0 4.0 5.0 4 7
r 0.038626 4 1 tcp 1000 ------- 0 4.0 5.0 5 8
h 0.038626 1 3 tcp 1000 ------- 0 4.0 5.0 5 8
r 0.039026 4 1 tcp 1000 ------- 0 4.0 5.0 6 9
h 0.039026 1 3 tcp 1000 ------- 0 4.0 5.0 6 9
+ 0.039805 1 3 tcp 1000 ------- 0 4.0 5.0 3 6
- 0.039805 1 3 tcp 1000 ------- 0 4.0 5.0 3 6
+ 0.040205 1 3 tcp 1000 ------- 0 4.0 5.0 4 7
+ 0.040626 1 3 tcp 1000 ------- 0 4.0 5.0 5 8
- 0.040626 1 3 tcp 1000 ------- 0 4.0 5.0 4 7
+ 0.041026 1 3 tcp 1000 ------- 0 4.0 5.0 6 9
- 0.041446 1 3 tcp 1000 ------- 0 4.0 5.0 5 8
- 0.042267 1 3 tcp 1000 ------- 0 4.0 5.0 6 9
r 0.04262 3 2 tcp 1000 ------- 0 4.0 5.0 3 6
+ 0.04262 2 5 tcp 1000 ------- 0 4.0 5.0 3 6
- 0.04262 2 5 tcp 1000 ------- 0 4.0 5.0 3 6
r 0.043441 3 2 tcp 1000 ------- 0 4.0 5.0 4 7
+ 0.043441 2 5 tcp 1000 ------- 0 4.0 5.0 4 7
- 0.043441 2 5 tcp 1000 ------- 0 4.0 5.0 4 7
r 0.044262 3 2 tcp 1000 ------- 0 4.0 5.0 5 8
+ 0.044262 2 5 tcp 1000 ------- 0 4.0 5.0 5 8
- 0.044262 2 5 tcp 1000 ------- 0 4.0 5.0 5 8
r 0.04502 2 5 tcp 1000 ------- 0 4.0 5.0 3 6
+ 0.04502 5 2 ack 40 ------- 0 5.0 4.0 3 10
- 0.04502 5 2 ack 40 ------- 0 5.0 4.0 3 10
r 0.045082 3 2 tcp 1000 ------- 0 4.0 5.0 6 9
+ 0.045082 2 5 tcp 1000 ------- 0 4.0 5.0 6 9
- 0.045082 2 5 tcp 1000 ------- 0 4.0 5.0 6 9
r 0.045841 2 5 tcp 1000 ------- 0 4.0 5.0 4 7
+ 0.045841 5 2 ack 40 ------- 0 5.0 4.0 4 11
- 0.045841 5 2 ack 40 ------- 0 5.0 4.0 4 11
r 0.046662 2 5 tcp 1000 ------- 0 4.0 5.0 5 8
+ 0.046662 5 2 ack 40 ------- 0 5.0 4.0 5 12
- 0.046662 5 2 ack 40 ------- 0 5.0 4.0 5 12
r 0.047036 5 2 ack 40 ------- 0 5.0 4.0 3 10
h 0.047036 2 3 ack 40 ------- 0 5.0 4.0 3 10
r 0.047482 2 5 tcp 1000 ------- 0 4.0 5.0 6 9
+ 0.047482 5 2 ack 40 ------- 0 5.0 4.0 6 13
- 0.047482 5 2 ack 40 ------- 0 5.0 4.0 6 13
r 0.047857 5 2 ack 40 ------- 0 5.0 4.0 4 11
h 0.047857 2 3 ack 40 ------- 0 5.0 4.0 4 11
r 0.048678 5 2 ack 40 ------- 0 5.0 4.0 5 12
h 0.048678 2 3 ack 40 ------- 0 5.0 4.0 5 12
+ 0.049036 2 3 ack 40 ------- 0 5.0 4.0 3 10
- 0.049036 2 3 ack 40 ------- 0 5.0 4.0 3 10
r 0.049498 5 2 ack 40 ------- 0 5.0 4.0 6 13
h 0.049498 2 3 ack 40 ------- 0 5.0 4.0 6 13
+ 0.049857 2 3 ack 40 ------- 0 5.0 4.0 4 11
- 0.049857 2 3 ack 40 ------- 0 5.0 4.0 4 11
+ 0.050678 2 3 ack 40 ------- 0 5.0 4.0 5 12
- 0.050678 2 3 ack 40 ------- 0 5.0 4.0 5 12
r 0.051091 3 1 ack 40 ------- 0 5.0 4.0 3 10
+ 0.051091 1 4 ack 40 ------- 0 5.0 4.0 3 10
- 0.051091 1 4 ack 40 ------- 0 5.0 4.0 3 10
+ 0.051498 2 3 ack 40 ------- 0 5.0 4.0 6 13
- 0.051498 2 3 ack 40 ------- 0 5.0 4.0 6 13
r 0.051912 3 1 ack 40 ------- 0 5.0 4.0 4 11
+ 0.051912 1 4 ack 40 ------- 0 5.0 4.0 4 11
- 0.051912 1 4 ack 40 ------- 0 5.0 4.0 4 11
r 0.052733 3 1 ack 40 ------- 0 5.0 4.0 5 12
+ 0.052733 1 4 ack 40 ------- 0 5.0 4.0 5 12
- 0.052733 1 4 ack 40 ------- 0 5.0 4.0 5 12
r 0.053107 1 4 ack 40 ------- 0 5.0 4.0 3 10
+ 0.053107 4 1 tcp 1000 ------- 0 4.0 5.0 7 14
- 0.053107 4 1 tcp 1000 ------- 0 4.0 5.0 7 14
+ 0.053107 4 1 tcp 1000 ------- 0 4.0 5.0 8 15
- 0.053507 4 1 tcp 1000 ------- 0 4.0 5.0 8 15
r 0.053554 3 1 ack 40 ------- 0 5.0 4.0 6 13
+ 0.053554 1 4 ack 40 ------- 0 5.0 4.0 6 13
- 0.053554 1 4 ack 40 ------- 0 5.0 4.0 6 13
r 0.053928 1 4 ack 40 ------- 0 5.0 4.0 4 11
+ 0.053928 4 1 tcp 1000 ------- 0 4.0 5.0 9 16
- 0.053928 4 1 tcp 1000 ------- 0 4.0 5.0 9 16
+ 0.053928 4 1 tcp 1000 ------- 0 4.0 5.0 10 17
- 0.054328 4 1 tcp 1000 ------- 0 4.0 5.0 10 17
r 0.054749 1 4 ack 40 ------- 0 5.0 4.0 5 12
+ 0.054749 4 1 tcp 1000 ------- 0 4.0 5.0 11 18
- 0.054749 4 1 tcp 1000 ------- 0 4.0 5.0 11 18
+ 0.054749 4 1 tcp 1000 ------- 0 4.0 5.0 12 19
- 0.055149 4 1 tcp 1000 ------- 0 4.0 5.0 12 19
r 0.055507 4 1 tcp 1000 ------- 0 4.0 5.0 7 14
h 0.055507 1 3 tcp 1000 ------- 0 4.0 5.0 7 14
r 0.05557 1 4 ack 40 ------- 0 5.0 4.0 6 13
+ 0.05557 4 1 tcp 1000 ------- 0 4.0 5.0 13 20
- 0.05557 4 1 tcp 1000 ------- 0 4.0 5.0 13 20
+ 0.05557 4 1 tcp 1000 ------- 0 4.0 5.0 14 21
r 0.055907 4 1 tcp 1000 ------- 0 4.0 5.0 8 15
h 0.055907 1 3 tcp 1000 ------- 0 4.0 5.0 8 15
- 0.05597 4 1 tcp 1000 ------- 0 4.0 5.0 14 21
r 0.056328 4 1 tcp 1000 ------- 0 4.0 5.0 9 16
h 0.056328 1 3 tcp 1000 ------- 0 4.0 5.0 9 16
r 0.056728 4 1 tcp 1000 ------- 0 4.0 5.0 10 17
h 0.056728 1 3 tcp 1000 ------- 0 4.0 5.0 10 17
r 0.057149 4 1 tcp 1000 ------- 0 4.0 5.0 11 18
h 0.057149 1 3 tcp 1000 ------- 0 4.0 5.0 11 18
+ 0.057507 1 3 tcp 1000 ------- 0 4.0 5.0 7 14
- 0.057507 1 3 tcp 1000 ------- 0 4.0 5.0 7 14
r 0.057549 4 1 tcp 1000 ------- 0 4.0 5.0 12 19
h 0.057549 1 3 tcp 1000 ------- 0 4.0 5.0 12 19
+ 0.057907 1 3 tcp 1000 ------- 0 4.0 5.0 8 15
r 0.05797 4 1 tcp 1000 ------- 0 4.0 5.0 13 20
h 0.05797 1 3 tcp 1000 ------- 0 4.0 5.0 13 20
+ 0.058328 1 3 tcp 1000 ------- 0 4.0 5.0 9 16
- 0.058328 1 3 tcp 1000 ------- 0 4.0 5.0 8 15
r 0.05837 4 1 tcp 1000 ------- 0 4.0 5.0 14 21
h 0.05837 1 3 tcp 1000 ------- 0 4.0 5.0 14 21
+ 0.058728 1 3 tcp 1000 ------- 0 4.0 5.0 10 17
+ 0.059149 1 3 tcp 1000 ------- 0 4.0 5.0 11 18
- 0.059149 1 3 tcp 1000 ------- 0 4.0 5.0 9 16
+ 0.059549 1 3 tcp 1000 ------- 0 4.0 5.0 12 19
+ 0.05997 1 3 tcp 1000 ------- 0 4.0 5.0 13 20
- 0.05997 1 3 tcp 1000 ------- 0 4.0 5.0 10 17
r 0.060322 3 2 tcp 1000 ------- 0 4.0 5.0 7 14
+ 0.060322 2 5 tcp 1000 ------- 0 4.0 5.0 7 14
- 0.060322 2 5 tcp 1000 ------- 0 4.0 5.0 7 14
+ 0.06037 1 3 tcp 1000 ------- 0 4.0 5.0 14 21
- 0.06079 1 3 tcp 1000 ------- 0 4.0 5.0 11 18
r 0.061143 3 2 tcp 1000 ------- 0 4.0 5.0 8 15
+ 0.061143 2 5 tcp 1000 ------- 0 4.0 5.0 8 15
- 0.061143 2 5 tcp 1000 ------- 0 4.0 5.0 8 15
- 0.061611 1 3 tcp 1000 ------- 0 4.0 5.0 12 19
r 0.061964 3 2 tcp 1000 ------- 0 4.0 5.0 9 16
+ 0.061964 2 5 tcp 1000 ------- 0 4.0 5.0 9 16
- 0.061964 2 5 tcp 1000 ------- 0 4.0 5.0 9 16
- 0.062432 1 3 tcp 1000 ------- 0 4.0 5.0 13 20
r 0.062722 2 5 tcp 1000 ------- 0 4.0 5.0 7 14
+ 0.062722 5 2 ack 40 ------- 0 5.0 4.0 7 22
- 0.062722 5 2 ack 40 ------- 0 5.0 4.0 7 22
r 0.062785 3 2 tcp 1000 ------- 0 4.0 5.0 10 17
+ 0.062785 2 5 tcp 1000 ------- 0 4.0 5.0 10 17
- 0.062785 2 5 tcp 1000 ------- 0 4.0 5.0 10 17
- 0.063253 1 3 tcp 1000 ------- 0 4.0 5.0 14 21
r 0.063543 2 5 tcp 1000 ------- 0 4.0 5.0 8 15
+ 0.063543 5 2 ack 40 ------- 0 5.0 4.0 8 23
- 0.063543 5 2 ack 40 ------- 0 5.0 4.0 8 23
r 0.063606 3 2 tcp 1000 ------- 0 4.0 5.0 11 18
+ 0.063606 2 5 tcp 1000 ------- 0 4.0 5.0 11 18
- 0.063606 2 5 tcp 1000 ------- 0 4.0 5.0 11 18
r 0.064364 2 5 tcp 1000 ------- 0 4.0 5.0 9 16
+ 0.064364 5 2 ack 40 ------- 0 5.0 4.0 9 24
- 0.064364 5 2 ack 40 ------- 0 5.0 4.0 9 24
r 0.064426 3 2 tcp 1000 ------- 0 4.0 5.0 12 19
+ 0.064426 2 5 tcp 1000 ------- 0 4.0 5.0 12 19
- 0.064426 2 5 tcp 1000 ------- 0 4.0 5.0 12 19
r 0.064738 5 2 ack 40 ------- 0 5.0 4.0 7 22
h 0.064738 2 3 ack 40 ------- 0 5.0 4.0 7 22
r 0.065185 2 5 tcp 1000 ------- 0 4.0 5.0 10 17
+ 0.065185 5 2 ack 40 ------- 0 5.0 4.0 10 25
- 0.065185 5 2 ack 40 ------- 0 5.0 4.0 10 25
r 0.065247 3 2 tcp 1000 ------- 0 4.0 5.0 13 20
+ 0.065247 2 5 tcp 1000 ------- 0 4.0 5.0 13 20
- 0.065247 2 5 tcp 1000 ------- 0 4.0 5.0 13 20
r 0.065559 5 2 ack 40 ------- 0 5.0 4.0 8 23
h 0.065559 2 3 ack 40 ------- 0 5.0 4.0 8 23
r 0.066006 2 5 tcp 1000 ------- 0 4.0 5.0 11 18
+ 0.066006 5 2 ack 40 ------- 0 5.0 4.0 11 26
- 0.066006 5 2 ack 40 ------- 0 5.0 4.0 11 26
r 0.066068 3 2 tcp 1000 ------- 0 4.0 5.0 14 21
+ 0.066068 2 5 tcp 1000 ------- 0 4.0 5.0 14 21
- 0.066068 2 5 tcp 1000 ------- 0 4.0 5.0 14 21
r 0.06638 5 2 ack 40 ------- 0 5.0 4.0 9 24
h 0.06638 2 3 ack 40 ------- 0 5.0 4.0 9 24
+ 0.066738 2 3 ack 40 ------- 0 5.0 4.0 7 22
- 0.066738 2 3 ack 40 ------- 0 5.0 4.0 7 22
r 0.066826 2 5 tcp 1000 ------- 0 4.0 5.0 12 19
+ 0.066826 5 2 ack 40 ------- 0 5.0 4.0 12 27
- 0.066826 5 2 ack 40 ------- 0 5.0 4.0 12 27
r 0.067201 5 2 ack 40 ------- 0 5.0 4.0 10 25
h 0.067201 2 3 ack 40 ------- 0 5.0 4.0 10 25
+ 0.067559 2 3 ack 40 ------- 0 5.0 4.0 8 23
- 0.067559 2 3 ack 40 ------- 0 5.0 4.0 8 23
r 0.067647 2 5 tcp 1000 ------- 0 4.0 5.0 13 20
+ 0.067647 5 2 ack 40 ------- 0 5.0 4.0 13 28
- 0.067647 5 2 ack 40 ------- 0 5.0 4.0 13 28
r 0.068022 5 2 ack 40 ------- 0 5.0 4.0 11 26
h 0.068022 2 3 ack 40 ------- 0 5.0 4.0 11 26
+ 0.06838 2 3 ack 40 ------- 0 5.0 4.0 9 24
- 0.06838 2 3 ack 40 ------- 0 5.0 4.0 9 24
r 0.068468 2 5 tcp 1000 ------- 0 4.0 5.0 14 21
+ 0.068468 5 2 ack 40 ------- 0 5.0 4.0 14 29
- 0.068468 5 2 ack 40 ------- 0 5.0 4.0 14 29
r 0.068794 3 1 ack 40 ------- 0 5.0 4.0 7 22
+ 0.068794 1 4 ack 40 ------- 0 5.0 4.0 7 22
- 0.068794 1 4 ack 40 ------- 0 5.0 4.0 7 22
r 0.068842 5 2 ack 40 ------- 0 5.0 4.0 12 27
h 0.068842 2 3 ack 40 ------- 0 5.0 4.0 12 27
+ 0.069201 2 3 ack 40 ------- 0 5.0 4.0 10 25
- 0.069201 2 3 ack 40 ------- 0 5.0 4.0 10 25
r 0.069614 3 1 ack 40 ------- 0 5.0 4.0 8 23
+ 0.069614 1 4 ack 40 ------- 0 5.0 4.0 8 23
- 0.069614 1 4 ack 40 ------- 0 5.0 4.0 8 23
r 0.069663 5 2 ack 40 ------- 0 5.0 4.0 13 28
h 0.069663 2 3 ack 40 ------- 0 5.0 4.0 13 28
+ 0.070022 2 3 ack 40 ------- 0 5.0 4.0 11 26
- 0.070022 2 3 ack 40 ------- 0 5.0 4.0 11 26
r 0.070435 3 1 ack 40 ------- 0 5.0 4.0 9 24
+ 0.070435 1 4 ack 40 ------- 0 5.0 4.0 9 24
- 0.070435 1 4 ack 40 ------- 0 5.0 4.0 9 24
r 0.070484 5 2 ack 40 ------- 0 5.0 4.0 14 29
h 0.070484 2 3 ack 40 ------- 0 5.0 4.0 14 29
r 0.07081 1 4 ack 40 ------- 0 5.0 4.0 7 22
+ 0.07081 4 1 tcp 1000 ------- 0 4.0 5.0 15 30
- 0.07081 4 1 tcp 1000 ------- 0 4.0 5.0 15 30
+ 0.07081 4 1 tcp 1000 ------- 0 4.0 5.0 16 31
+ 0.070842 2 3 ack 40 ------- 0 5.0 4.0 12 27
- 0.070842 2 3 ack 40 ------- 0 5.0 4.0 12 27
- 0.07121 4 1 tcp 1000 ------- 0 4.0 5.0 16 31
r 0.071256 3 1 ack 40 ------- 0 5.0 4.0 10 25
+ 0.071256 1 4 ack 40 ------- 0 5.0 4.0 10 25
- 0.071256 1 4 ack 40 ------- 0 5.0 4.0 10 25
r 0.07163 1 4 ack 40 ------- 0 5.0 4.0 8 23
+ 0.07163 4 1 tcp 1000 ------- 0 4.0 5.0 17 32
- 0.07163 4 1 tcp 1000 ------- 0 4.0 5.0 17 32
+ 0.07163 4 1 tcp 1000 ------- 0 4.0 5.0 18 33
+ 0.071663 2 3 ack 40 ------- 0 5.0 4.0 13 28
- 0.071663 2 3 ack 40 ------- 0 5.0 4.0 13 28
- 0.07203 4 1 tcp 1000 ------- 0 4.0 5.0 18 33
r 0.072077 3 1 ack 40 ------- 0 5.0 4.0 11 26
+ 0.072077 1 4 ack 40 ------- 0 5.0 4.0 11 26
- 0.072077 1 4 ack 40 ------- 0 5.0 4.0 11 26
r 0.072451 1 4 ack 40 ------- 0 5.0 4.0 9 24
+ 0.072451 4 1 tcp 1000 ------- 0 4.0 5.0 19 34
- 0.072451 4 1 tcp 1000 ------- 0 4.0 5.0 19 34
+ 0.072451 4 1 tcp 1000 ------- 0 4.0 5.0 20 35
+ 0.072484 2 3 ack 40 ------- 0 5.0 4.0 14 29
- 0.072484 2 3 ack 40 ------- 0 5.0 4.0 14 29
- 0.072851 4 1 tcp 1000 ------- 0 4.0 5.0 20 35
r 0.072898 3 1 ack 40 ------- 0 5.0 4.0 12 27
+ 0.072898 1 4 ack 40 ------- 0 5.0 4.0 12 27
- 0.072898 1 4 ack 40 ------- 0 5.0 4.0 12 27
r 0.07321 4 1 tcp 1000 ------- 0 4.0 5.0 15 30
h 0.07321 1 3 tcp 1000 ------- 0 4.0 5.0 15 30
r 0.073272 1 4 ack 40 ------- 0 5.0 4.0 10 25
+ 0.073272 4 1 tcp 1000 ------- 0 4.0 5.0 21 36
- 0.073272 4 1 tcp 1000 ------- 0 4.0 5.0 21 36
+ 0.073272 4 1 tcp 1000 ------- 0 4.0 5.0 22 37
r 0.07361 4 1 tcp 1000 ------- 0 4.0 5.0 16 31
h 0.07361 1 3 tcp 1000 ------- 0 4.0 5.0 16 31
- 0.073672 4 1 tcp 1000 ------- 0 4.0 5.0 22 37
r 0.073718 3 1 ack 40 ------- 0 5.0 4.0 13 28
+ 0.073718 1 4 ack 40 ------- 0 5.0 4.0 13 28
- 0.073718 1 4 ack 40 ------- 0 5.0 4.0 13 28
r 0.07403 4 1 tcp 1000 ------- 0 4.0 5.0 17 32
h 0.07403 1 3 tcp 1000 ------- 0 4.0 5.0 17 32
r 0.074093 1 4 ack 40 ------- 0 5.0 4.0 11 26
+ 0.074093 4 1 tcp 1000 ------- 0 4.0 5.0 23 38
- 0.074093 4 1 tcp 1000 ------- 0 4.0 5.0 23 38
+ 0.074093 4 1 tcp 1000 ------- 0 4.0 5.0 24 39
r 0.07443 4 1 tcp 1000 ------- 0 4.0 5.0 18 33
h 0.07443 1 3 tcp 1000 ------- 0 4.0 5.0 18 33
- 0.074493 4 1 tcp 1000 ------- 0 4.0 5.0 24 39
r 0.074539 3 1 ack 40 ------- 0 5.0 4.0 14 29
+ 0.074539 1 4 ack 40 ------- 0 5.0 4.0 14 29
- 0.074539 1 4 ack 40 ------- 0 5.0 4.0 14 29
r 0.074851 4 1 tcp 1000 ------- 0 4.0 5.0 19 34
h 0.074851 1 3 tcp 1000 ------- 0 4.0 5.0 19 34
r 0.074914 1 4 ack 40 ------- 0 5.0 4.0 12 27
+ 0.074914 4 1 tcp 1000 ------- 0 4.0 5.0 25 40
- 0.074914 4 1 tcp 1000 ------- 0 4.0 5.0 25 40
+ 0.074914 4 1 tcp 1000 ------- 0 4.0 5.0 26 41
+ 0.07521 1 3 tcp 1000 ------- 0 4.0 5.0 15 30
- 0.07521 1 3 tcp 1000 ------- 0 4.0 5.0 15 30
r 0.075251 4 1 tcp 1000 ------- 0 4.0 5.0 20 35
h 0.075251 1 3 tcp 1000 ------- 0 4.0 5.0 20 35
- 0.075314 4 1 tcp 1000 ------- 0 4.0 5.0 26 41
+ 0.07561 1 3 tcp 1000 ------- 0 4.0 5.0 16 31
r 0.075672 4 1 tcp 1000 ------- 0 4.0 5.0 21 36
h 0.075672 1 3 tcp 1000 ------- 0 4.0 5.0 21 36
r 0.075734 1 4 ack 40 ------- 0 5.0 4.0 13 28
+ 0.075734 4 1 tcp 1000 ------- 0 4.0 5.0 27 42
- 0.075734 4 1 tcp 1000 ------- 0 4.0 5.0 27 42
+ 0.075734 4 1 tcp 1000 ------- 0 4.0 5.0 28 43
+ 0.07603 1 3 tcp 1000 ------- 0 4.0 5.0 17 32
- 0.07603 1 3 tcp 1000 ------- 0 4.0 5.0 16 31
r 0.076072 4 1 tcp 1000 ------- 0 4.0 5.0 22 37
h 0.076072 1 3 tcp 1000 ------- 0 4.0 5.0 22 37
- 0.076134 4 1 tcp 1000 ------- 0 4.0 5.0 28 43
+ 0.07643 1 3 tcp 1000 ------- 0 4.0 5.0 18 33
r 0.076493 4 1 tcp 1000 ------- 0 4.0 5.0 23 38
h 0.076493 1 3 tcp 1000 ------- 0 4.0 5.0 23 38
r 0.076555 1 4 ack 40 ------- 0 5.0 4.0 14 29
+ 0.076555 4 1 tcp 1000 ------- 0 4.0 5.0 29 44
- 0.076555 4 1 tcp 1000 ------- 0 4.0 5.0 29 44
+ 0.076851 1 3 tcp 1000 ------- 0 4.0 5.0 19 34
- 0.076851 1 3 tcp 1000 ------- 0 4.0 5.0 17 32
r 0.076893 4 1 tcp 1000 ------- 0 4.0 5.0 24 39
h 0.076893 1 3 tcp 1000 ------- 0 4.0 5.0 24 39
+ 0.077251 1 3 tcp 1000 ------- 0 4.0 5.0 20 35
r 0.077314 4 1 tcp 1000 ------- 0 4.0 5.0 25 40
h 0.077314 1 3 tcp 1000 ------- 0 4.0 5.0 25 40
+ 0.077672 1 3 tcp 1000 ------- 0 4.0 5.0 21 36
- 0.077672 1 3 tcp 1000 ------- 0 4.0 5.0 18 33
r 0.077714 4 1 tcp 1000 ------- 0 4.0 5.0 26 41
h 0.077714 1 3 tcp 1000 ------- 0 4.0 5.0 26 41
r 0.078025 3 2 tcp 1000 ------- 0 4.0 5.0 15 30
+ 0.078025 2 5 tcp 1000 ------- 0 4.0 5.0 15 30
- 0.078025 2 5 tcp 1000 ------- 0 4.0 5.0 15 30
+ 0.078072 1 3 tcp 1000 ------- 0 4.0 5.0 22 37
r 0.078134 4 1 tcp 1000 ------- 0 4.0 5.0 27 42
h 0.078134 1 3 tcp 1000 ------- 0 4.0 5.0 27 42
+ 0.078493 1 3 tcp 1000 ------- 0 4.0 5.0 23 38
- 0.078493 1 3 tcp 1000 ------- 0 4.0 5.0 19 34
r 0.078534 4 1 tcp 1000 ------- 0 4.0 5.0 28 43
h 0.078534 1 3 tcp 1000 ------- 0 4.0 5.0 28 43
r 0.078846 3 2 tcp 1000 ------- 0 4.0 5.0 16 31
+ 0.078846 2 5 tcp 1000 ------- 0 4.0 5.0 16 31
- 0.078846 2 5 tcp 1000 ------- 0 4.0 5.0 16 31
+ 0.078893 1 3 tcp 1000 ------- 0 4.0 5.0 24 39
r 0.078955 4 1 tcp 1000 ------- 0 4.0 5.0 29 44
h 0.078955 1 3 tcp 1000 ------- 0 4.0 5.0 29 44
+ 0.079314 1 3 tcp 1000 ------- 0 4.0 5.0 25 40
- 0.079314 1 3 tcp 1000 ------- 0 4.0 5.0 20 35
r 0.079666 3 2 tcp 1000 ------- 0 4.0 5.0 17 32
+ 0.079666 2 5 tcp 1000 ------- 0 4.0 5.0 17 32
- 0.079666 2 5 tcp 1000 ------- 0 4.0 5.0 17 32
+ 0.079714 1 3 tcp 1000 ------- 0 4.0 5.0 26 41
+ 0.080134 1 3 tcp 1000 ------- 0 4.0 5.0 27 42
d 0.080134 1 3 tcp 1000 ------- 0 4.0 5.0 27 42
- 0.080134 1 3 tcp 1000 ------- 0 4.0 5.0 21 36
r 0.080425 2 5 tcp 1000 ------- 0 4.0 5.0 15 30
+ 0.080425 5 2 ack 40 ------- 0 5.0 4.0 15 45
- 0.080425 5 2 ack 40 ------- 0 5.0 4.0 15 45
r 0.080487 3 2 tcp 1000 ------- 0 4.0 5.0 18 33
+ 0.080487 2 5 tcp 1000 ------- 0 4.0 5.0 18 33
- 0.080487 2 5 tcp 1000 ------- 0 4.0 5.0 18 33
+ 0.080534 1 3 tcp 1000 ------- 0 4.0 5.0 28 43
+ 0.080955 1 3 tcp 1000 ------- 0 4.0 5.0 29 44
d 0.080955 1 3 tcp 1000 ------- 0 4.0 5.0 29 44
- 0.080955 1 3 tcp 1000 ------- 0 4.0 5.0 22 37
r 0.081246 2 5 tcp 1000 ------- 0 4.0 5.0 16 31
+ 0.081246 5 2 ack 40 ------- 0 5.0 4.0 16 46
- 0.081246 5 2 ack 40 ------- 0 5.0 4.0 16 46
r 0.081308 3 2 tcp 1000 ------- 0 4.0 5.0 19 34
+ 0.081308 2 5 tcp 1000 ------- 0 4.0 5.0 19 34
- 0.081308 2 5 tcp 1000 ------- 0 4.0 5.0 19 34
- 0.081776 1 3 tcp 1000 ------- 0 4.0 5.0 23 38
r 0.082066 2 5 tcp 1000 ------- 0 4.0 5.0 17 32
+ 0.082066 5 2 ack 40 ------- 0 5.0 4.0 17 47
- 0.082066 5 2 ack 40 ------- 0 5.0 4.0 17 47
r 0.082129 3 2 tcp 1000 ------- 0 4.0 5.0 20 35
+ 0.082129 2 5 tcp 1000 ------- 0 4.0 5.0 20 35
- 0.082129 2 5 tcp 1000 ------- 0 4.0 5.0 20 35
r 0.082441 5 2 ack 40 ------- 0 5.0 4.0 15 45
h 0.082441 2 3 ack 40 ------- 0 5.0 4.0 15 45
- 0.082597 1 3 tcp 1000 ------- 0 4.0 5.0 24 39
r 0.082887 2 5 tcp 1000 ------- 0 4.0 5.0 18 33
+ 0.082887 5 2 ack 40 ------- 0 5.0 4.0 18 48
- 0.082887 5 2 ack 40 ------- 0 5.0 4.0 18 48
r 0.08295 3 2 tcp 1000 ------- 0 4.0 5.0 21 36
+ 0.08295 2 5 tcp 1000 ------- 0 4.0 5.0 21 36
- 0.08295 2 5 tcp 1000 ------- 0 4.0 5.0 21 36
r 0.083262 5 2 ack 40 ------- 0 5.0 4.0 16 46
h 0.083262 2 3 ack 40 ------- 0 5.0 4.0 16 46
- 0.083418 1 3 tcp 1000 ------- 0 4.0 5.0 25 40
r 0.083708 2 5 tcp 1000 ------- 0 4.0 5.0 19 34
+ 0.083708 5 2 ack 40 ------- 0 5.0 4.0 19 49
- 0.083708 5 2 ack 40 ------- 0 5.0 4.0 19 49
r 0.08377 3 2 tcp 1000 ------- 0 4.0 5.0 22 37
+ 0.08377 2 5 tcp 1000 ------- 0 4.0 5.0 22 37
- 0.08377 2 5 tcp 1000 ------- 0 4.0 5.0 22 37
r 0.084082 5 2 ack 40 ------- 0 5.0 4.0 17 47
h 0.084082 2 3 ack 40 ------- 0 5.0 4.0 17 47
- 0.084238 1 3 tcp 1000 ------- 0 4.0 5.0 26 41
+ 0.084441 2 3 ack 40 ------- 0 5.0 4.0 15 45
- 0.084441 2 3 ack 40 ------- 0 5.0 4.0 15 45
r 0.084529 2 5 tcp 1000 ------- 0 4.0 5.0 20 35
+ 0.084529 5 2 ack 40 ------- 0 5.0 4.0 20 50
- 0.084529 5 2 ack 40 ------- 0 5.0 4.0 20 50
r 0.084591 3 2 tcp 1000 ------- 0 4.0 5.0 23 38
+ 0.084591 2 5 tcp 1000 ------- 0 4.0 5.0 23 38
- 0.084591 2 5 tcp 1000 ------- 0 4.0 5.0 23 38
r 0.084903 5 2 ack 40 ------- 0 5.0 4.0 18 48
h 0.084903 2 3 ack 40 ------- 0 5.0 4.0 18 48
- 0.085059 1 3 tcp 1000 ------- 0 4.0 5.0 28 43
+ 0.085262 2 3 ack 40 ------- 0 5.0 4.0 16 46
- 0.085262 2 3 ack 40 ------- 0 5.0 4.0 16 46
r 0.08535 2 5 tcp 1000 ------- 0 4.0 5.0 21 36
+ 0.08535 5 2 ack 40 ------- 0 5.0 4.0 21 51
- 0.08535 5 2 ack 40 ------- 0 5.0 4.0 21 51
r 0.085412 3 2 tcp 1000 ------- 0 4.0 5.0 24 39
+ 0.085412 2 5 tcp 1000 ------- 0 4.0 5.0 24 39
- 0.085412 2 5 tcp 1000 ------- 0 4.0 5.0 24 39
r 0.085724 5 2 ack 40 ------- 0 5.0 4.0 19 49
h 0.085724 2 3 ack 40 ------- 0 5.0 4.0 19 49
+ 0.086082 2 3 ack 40 ------- 0 5.0 4.0 17 47
- 0.086082 2 3 ack 40 ------- 0 5.0 4.0 17 47
r 0.08617 2 5 tcp 1000 ------- 0 4.0 5.0 22 37
+ 0.08617 5 2 ack 40 ------- 0 5.0 4.0 22 52
- 0.08617 5 2 ack 40 ------- 0 5.0 4.0 22 52
r 0.086233 3 2 tcp 1000 ------- 0 4.0 5.0 25 40
+ 0.086233 2 5 tcp 1000 ------- 0 4.0 5.0 25 40
- 0.086233 2 5 tcp 1000 ------- 0 4.0 5.0 25 40
r 0.086545 5 2 ack 40 ------- 0 5.0 4.0 20 50
h 0.086545 2 3 ack 40 ------- 0 5.0 4.0 20 50
+ 0.086903 2 3 ack 40 ------- 0 5.0 4.0 18 48
- 0.086903 2 3 ack 40 ------- 0 5.0 4.0 18 48
r 0.086991 2 5 tcp 1000 ------- 0 4.0 5.0 23 38
+ 0.086991 5 2 ack 40 ------- 0 5.0 4.0 23 53
- 0.086991 5 2 ack 40 ------- 0 5.0 4.0 23 53
r 0.087054 3 2 tcp 1000 ------- 0 4.0 5.0 26 41
+ 0.087054 2 5 tcp 1000 ------- 0 4.0 5.0 26 41
- 0.087054 2 5 tcp 1000 ------- 0 4.0 5.0 26 41
r 0.087131 3 1 ack 40 ------- 0 5.0 4.0 15 45
+ 0.087131 1 4 ack 40 ------- 0 5.0 4.0 15 45
- 0.087131 1 4 ack 40 ------- 0 5.0 4.0 15 45
r 0.087366 5 2 ack 40 ------- 0 5.0 4.0 21 51
h 0.087366 2 3 ack 40 ------- 0 5.0 4.0 21 51
+ 0.087724 2 3 ack 40 ------- 0 5.0 4.0 19 49
- 0.087724 2 3 ack 40 ------- 0 5.0 4.0 19 49
r 0.087812 2 5 tcp 1000 ------- 0 4.0 5.0 24 39
+ 0.087812 5 2 ack 40 ------- 0 5.0 4.0 24 54
- 0.087812 5 2 ack 40 ------- 0 5.0 4.0 24 54
r 0.087956 3 2 tcp 1000 ------- 0 4.0 5.0 28 43
+ 0.087956 2 5 tcp 1000 ------- 0 4.0 5.0 28 43
- 0.087956 2 5 tcp 1000 ------- 0 4.0 5.0 28 43
r 0.088021 3 1 ack 40 ------- 0 5.0 4.0 16 46
+ 0.088021 1 4 ack 40 ------- 0 5.0 4.0 16 46
- 0.088021 1 4 ack 40 ------- 0 5.0 4.0 16 46
r 0.088138 3 1 ack 40 ------- 0 5.0 4.0 17 47
+ 0.088138 1 4 ack 40 ------- 0 5.0 4.0 17 47
- 0.088138 1 4 ack 40 ------- 0 5.0 4.0 17 47
r 0.088186 5 2 ack 40 ------- 0 5.0 4.0 22 52
h 0.088186 2 3 ack 40 ------- 0 5.0 4.0 22 52
+ 0.088545 2 3 ack 40 ------- 0 5.0 4.0 20 50
- 0.088545 2 3 ack 40 ------- 0 5.0 4.0 20 50
r 0.088633 2 5 tcp 1000 ------- 0 4.0 5.0 25 40
+ 0.088633 5 2 ack 40 ------- 0 5.0 4.0 25 55
- 0.088633 5 2 ack 40 ------- 0 5.0 4.0 25 55
r 0.088958 3 1 ack 40 ------- 0 5.0 4.0 18 48
+ 0.088958 1 4 ack 40 ------- 0 5.0 4.0 18 48
- 0.088958 1 4 ack 40 ------- 0 5.0 4.0 18 48
r 0.089007 5 2 ack 40 ------- 0 5.0 4.0 23 53
h 0.089007 2 3 ack 40 ------- 0 5.0 4.0 23 53
r 0.089147 1 4 ack 40 ------- 0 5.0 4.0 15 45
+ 0.089147 4 1 tcp 1000 ------- 0 4.0 5.0 30 56
- 0.089147 4 1 tcp 1000 ------- 0 4.0 5.0 30 56
+ 0.089366 2 3 ack 40 ------- 0 5.0 4.0 21 51
- 0.089366 2 3 ack 40 ------- 0 5.0 4.0 21 51
r 0.089454 2 5 tcp 1000 ------- 0 4.0 5.0 26 41
+ 0.089454 5 2 ack 40 ------- 0 5.0 4.0 26 57
- 0.089454 5 2 ack 40 ------- 0 5.0 4.0 26 57
r 0.089779 3 1 ack 40 ------- 0 5.0 4.0 19 49
+ 0.089779 1 4 ack 40 ------- 0 5.0 4.0 19 49
- 0.089779 1 4 ack 40 ------- 0 5.0 4.0 19 49
r 0.089828 5 2 ack 40 ------- 0 5.0 4.0 24 54
h 0.089828 2 3 ack 40 ------- 0 5.0 4.0 24 54
r 0.090037 1 4 ack 40 ------- 0 5.0 4.0 16 46
+ 0.090037 4 1 tcp 1000 ------- 0 4.0 5.0 31 58
- 0.090037 4 1 tcp 1000 ------- 0 4.0 5.0 31 58
r 0.090154 1 4 ack 40 ------- 0 5.0 4.0 17 47
+ 0.090154 4 1 tcp 1000 ------- 0 4.0 5.0 32 59
+ 0.090186 2 3 ack 40 ------- 0 5.0 4.0 22 52
- 0.090186 2 3 ack 40 ------- 0 5.0 4.0 22 52
r 0.090356 2 5 tcp 1000 ------- 0 4.0 5.0 28 43
+ 0.090356 5 2 ack 40 ------- 0 5.0 4.0 26 60
- 0.090356 5 2 ack 40 ------- 0 5.0 4.0 26 60
- 0.090437 4 1 tcp 1000 ------- 0 4.0 5.0 32 59
r 0.0906 3 1 ack 40 ------- 0 5.0 4.0 20 50
+ 0.0906 1 4 ack 40 ------- 0 5.0 4.0 20 50
- 0.0906 1 4 ack 40 ------- 0 5.0 4.0 20 50
r 0.090649 5 2 ack 40 ------- 0 5.0 4.0 25 55
h 0.090649 2 3 ack 40 ------- 0 5.0 4.0 25 55
r 0.090974 1 4 ack 40 ------- 0 5.0 4.0 18 48
+ 0.090974 4 1 tcp 1000 ------- 0 4.0 5.0 33 61
- 0.090974 4 1 tcp 1000 ------- 0 4.0 5.0 33 61
+ 0.091007 2 3 ack 40 ------- 0 5.0 4.0 23 53
- 0.091007 2 3 ack 40 ------- 0 5.0 4.0 23 53
r 0.091421 3 1 ack 40 ------- 0 5.0 4.0 21 51
+ 0.091421 1 4 ack 40 ------- 0 5.0 4.0 21 51
- 0.091421 1 4 ack 40 ------- 0 5.0 4.0 21 51
r 0.09147 5 2 ack 40 ------- 0 5.0 4.0 26 57
h 0.09147 2 3 ack 40 ------- 0 5.0 4.0 26 57
r 0.091547 4 1 tcp 1000 ------- 0 4.0 5.0 30 56
h 0.091547 1 3 tcp 1000 ------- 0 4.0 5.0 30 56
r 0.091795 1 4 ack 40 ------- 0 5.0 4.0 19 49
+ 0.091795 4 1 tcp 1000 ------- 0 4.0 5.0 34 62
- 0.091795 4 1 tcp 1000 ------- 0 4.0 5.0 34 62
+ 0.091828 2 3 ack 40 ------- 0 5.0 4.0 24 54
- 0.091828 2 3 ack 40 ------- 0 5.0 4.0 24 54
r 0.092242 3 1 ack 40 ------- 0 5.0 4.0 22 52
+ 0.092242 1 4 ack 40 ------- 0 5.0 4.0 22 52
- 0.092242 1 4 ack 40 ------- 0 5.0 4.0 22 52
r 0.092372 5 2 ack 40 ------- 0 5.0 4.0 26 60
h 0.092372 2 3 ack 40 ------- 0 5.0 4.0 26 60
r 0.092437 4 1 tcp 1000 ------- 0 4.0 5.0 31 58
h 0.092437 1 3 tcp 1000 ------- 0 4.0 5.0 31 58
r 0.092616 1 4 ack 40 ------- 0 5.0 4.0 20 50
+ 0.092616 4 1 tcp 1000 ------- 0 4.0 5.0 35 63
- 0.092616 4 1 tcp 1000 ------- 0 4.0 5.0 35 63
+ 0.092649 2 3 ack 40 ------- 0 5.0 4.0 25 55
- 0.092649 2 3 ack 40 ------- 0 5.0 4.0 25 55
r 0.092837 4 1 tcp 1000 ------- 0 4.0 5.0 32 59
h 0.092837 1 3 tcp 1000 ------- 0 4.0 5.0 32 59
r 0.093062 3 1 ack 40 ------- 0 5.0 4.0 23 53
+ 0.093062 1 4 ack 40 ------- 0 5.0 4.0 23 53
- 0.093062 1 4 ack 40 ------- 0 5.0 4.0 23 53
r 0.093374 4 1 tcp 1000 ------- 0 4.0 5.0 33 61
h 0.093374 1 3 tcp 1000 ------- 0 4.0 5.0 33 61
r 0.093437 1 4 ack 40 ------- 0 5.0 4.0 21 51
+ 0.093437 4 1 tcp 1000 ------- 0 4.0 5.0 36 64
- 0.093437 4 1 tcp 1000 ------- 0 4.0 5.0 36 64
+ 0.09347 2 3 ack 40 ------- 0 5.0 4.0 26 57
- 0.09347 2 3 ack 40 ------- 0 5.0 4.0 26 57
+ 0.093547 1 3 tcp 1000 ------- 0 4.0 5.0 30 56
- 0.093547 1 3 tcp 1000 ------- 0 4.0 5.0 30 56
r 0.093883 3 1 ack 40 ------- 0 5.0 4.0 24 54
+ 0.093883 1 4 ack 40 ------- 0 5.0 4.0 24 54
- 0.093883 1 4 ack 40 ------- 0 5.0 4.0 24 54
r 0.094195 4 1 tcp 1000 ------- 0 4.0 5.0 34 62
h 0.094195 1 3 tcp 1000 ------- 0 4.0 5.0 34 62
r 0.094258 1 4 ack 40 ------- 0 5.0 4.0 22 52
+ 0.094258 4 1 tcp 1000 ------- 0 4.0 5.0 37 65
- 0.094258 4 1 tcp 1000 ------- 0 4.0 5.0 37 65
+ 0.094372 2 3 ack 40 ------- 0 5.0 4.0 26 60
- 0.094372 2 3 ack 40 ------- 0 5.0 4.0 26 60
+ 0.094437 1 3 tcp 1000 ------- 0 4.0 5.0 31 58
- 0.094437 1 3 tcp 1000 ------- 0 4.0 5.0 31 58
r 0.094704 3 1 ack 40 ------- 0 5.0 4.0 25 55
+ 0.094704 1 4 ack 40 ------- 0 5.0 4.0 25 55
- 0.094704 1 4 ack 40 ------- 0 5.0 4.0 25 55
+ 0.094837 1 3 tcp 1000 ------- 0 4.0 5.0 32 59
r 0.095016 4 1 tcp 1000 ------- 0 4.0 5.0 35 63
h 0.095016 1 3 tcp 1000 ------- 0 4.0 5.0 35 63
r 0.095078 1 4 ack 40 ------- 0 5.0 4.0 23 53
+ 0.095078 4 1 tcp 1000 ------- 0 4.0 5.0 38 66
- 0.095078 4 1 tcp 1000 ------- 0 4.0 5.0 38 66
- 0.095258 1 3 tcp 1000 ------- 0 4.0 5.0 32 59
+ 0.095374 1 3 tcp 1000 ------- 0 4.0 5.0 33 61
r 0.095525 3 1 ack 40 ------- 0 5.0 4.0 26 57
+ 0.095525 1 4 ack 40 ------- 0 5.0 4.0 26 57
- 0.095525 1 4 ack 40 ------- 0 5.0 4.0 26 57
r 0.095837 4 1 tcp 1000 ------- 0 4.0 5.0 36 64
h 0.095837 1 3 tcp 1000 ------- 0 4.0 5.0 36 64
r 0.095899 1 4 ack 40 ------- 0 5.0 4.0 24 54
+ 0.095899 4 1 tcp 1000 ------- 0 4.0 5.0 39 67
- 0.095899 4 1 tcp 1000 ------- 0 4.0 5.0 39 67
- 0.096078 1 3 tcp 1000 ------- 0 4.0 5.0 33 61
+ 0.096195 1 3 tcp 1000 ------- 0 4.0 5.0 34 62
r 0.096362 3 2 tcp 1000 ------- 0 4.0 5.0 30 56
+ 0.096362 2 5 tcp 1000 ------- 0 4.0 5.0 30 56
- 0.096362 2 5 tcp 1000 ------- 0 4.0 5.0 30 56
r 0.096427 3 1 ack 40 ------- 0 5.0 4.0 26 60
+ 0.096427 1 4 ack 40 ------- 0 5.0 4.0 26 60
- 0.096427 1 4 ack 40 ------- 0 5.0 4.0 26 60
r 0.096658 4 1 tcp 1000 ------- 0 4.0 5.0 37 65
h 0.096658 1 3 tcp 1000 ------- 0 4.0 5.0 37 65
r 0.09672 1 4 ack 40 ------- 0 5.0 4.0 25 55
+ 0.09672 4 1 tcp 1000 ------- 0 4.0 5.0 40 68
- 0.09672 4 1 tcp 1000 ------- 0 4.0 5.0 40 68
- 0.096899 1 3 tcp 1000 ------- 0 4.0 5.0 34 62
+ 0.097016 1 3 tcp 1000 ------- 0 4.0 5.0 35 63
r 0.097252 3 2 tcp 1000 ------- 0 4.0 5.0 31 58
+ 0.097252 2 5 tcp 1000 ------- 0 4.0 5.0 31 58
- 0.097252 2 5 tcp 1000 ------- 0 4.0 5.0 31 58
r 0.097478 4 1 tcp 1000 ------- 0 4.0 5.0 38 66
h 0.097478 1 3 tcp 1000 ------- 0 4.0 5.0 38 66
r 0.097541 1 4 ack 40 ------- 0 5.0 4.0 26 57
+ 0.097541 4 1 tcp 1000 ------- 0 4.0 5.0 41 69
- 0.097541 4 1 tcp 1000 ------- 0 4.0 5.0 41 69
- 0.09772 1 3 tcp 1000 ------- 0 4.0 5.0 35 63
+ 0.097837 1 3 tcp 1000 ------- 0 4.0 5.0 36 64
r 0.098073 3 2 tcp 1000 ------- 0 4.0 5.0 32 59
+ 0.098073 2 5 tcp 1000 ------- 0 4.0 5.0 32 59
- 0.098073 2 5 tcp 1000 ------- 0 4.0 5.0 32 59
r 0.098299 4 1 tcp 1000 ------- 0 4.0 5.0 39 67
h 0.098299 1 3 tcp 1000 ------- 0 4.0 5.0 39 67
r 0.098443 1 4 ack 40 ------- 0 5.0 4.0 26 60
- 0.098541 1 3 tcp 1000 ------- 0 4.0 5.0 36 64
+ 0.098658 1 3 tcp 1000 ------- 0 4.0 5.0 37 65
r 0.098762 2 5 tcp 1000 ------- 0 4.0 5.0 30 56
+ 0.098762 5 2 ack 40 ------- 0 5.0 4.0 26 70
- 0.098762 5 2 ack 40 ------- 0 5.0 4.0 26 70
r 0.098894 3 2 tcp 1000 ------- 0 4.0 5.0 33 61
+ 0.098894 2 5 tcp 1000 ------- 0 4.0 5.0 33 61