h 0 0 4 tcp 1000 ------- 0 0.0 1.0 0 0
h 0 2 4 tcp 1000 ------- 0 2.0 3.0 0 1
+ 0 0 4 tcp 1000 ------- 0 0.0 1.0 0 0
- 0 3 4 tcp 1000 ------- 0 0.0 1.0 0 0
+ 0 2 4 tcp 1000 ------- 0 2.0 3.0 0 1
- 0.0008 3 4 tcp 1000 ------- 0 2.0 3.0 0 1
r 0.0018 4 1 tcp 1000 ------- 0 0.0 1.0 0 0
h 0.0018 1 4 ack 40 ------- 0 1.0 0.0 0 2
+ 0.0018 1 4 ack 40 ------- 0 1.0 0.0 0 2
- 0.0018 3 4 ack 40 ------- 0 1.0 0.0 0 2
r 0.0026 4 3 tcp 1000 ------- 0 2.0 3.0 0 1
h 0.0026 3 4 ack 40 ------- 0 3.0 2.0 0 3
+ 0.0026 3 4 ack 40 ------- 0 3.0 2.0 0 3
- 0.0026 3 4 ack 40 ------- 0 3.0 2.0 0 3
r 0.002832 4 0 ack 40 ------- 0 1.0 0.0 0 2
h 0.002832 0 4 tcp 1000 ------- 0 0.0 1.0 1 4
h 0.002832 0 4 tcp 1000 ------- 0 0.0 1.0 2 5
+ 0.002832 0 4 tcp 1000 ------- 0 0.0 1.0 1 4
- 0.002832 3 4 tcp 1000 ------- 0 0.0 1.0 1 4
+ 0.002832 0 4 tcp 1000 ------- 0 0.0 1.0 2 5
- 0.003632 3 4 tcp 1000 ------- 0 0.0 1.0 2 5
r 0.003632 4 2 ack 40 ------- 0 3.0 2.0 0 3
h 0.003632 2 4 tcp 1000 ------- 0 2.0 3.0 1 6
h 0.003632 2 4 tcp 1000 ------- 0 2.0 3.0 2 7
+ 0.003632 2 4 tcp 1000 ------- 0 2.0 3.0 1 6
+ 0.003632 2 4 tcp 1000 ------- 0 2.0 3.0 2 7
- 0.004432 3 4 tcp 1000 ------- 0 2.0 3.0 1 6
r 0.004632 4 1 tcp 1000 ------- 0 0.0 1.0 1 4
h 0.004632 1 4 ack 40 ------- 0 1.0 0.0 1 8
+ 0.004632 1 4 ack 40 ------- 0 1.0 0.0 1 8
- 0.005232 3 4 tcp 1000 ------- 0 2.0 3.0 2 7
r 0.005432 4 1 tcp 1000 ------- 0 0.0 1.0 2 5
h 0.005432 1 4 ack 40 ------- 0 1.0 0.0 2 9
+ 0.005432 1 4 ack 40 ------- 0 1.0 0.0 2 9
- 0.006032 3 4 ack 40 ------- 0 1.0 0.0 1 8
- 0.006064 3 4 ack 40 ------- 0 1.0 0.0 2 9
r 0.006232 4 3 tcp 1000 ------- 0 2.0 3.0 1 6
h 0.006232 3 4 ack 40 ------- 0 3.0 2.0 1 10
+ 0.006232 3 4 ack 40 ------- 0 3.0 2.0 1 10
- 0.006232 3 4 ack 40 ------- 0 3.0 2.0 1 10
r 0.007032 4 3 tcp 1000 ------- 0 2.0 3.0 2 7
h 0.007032 3 4 ack 40 ------- 0 3.0 2.0 2 11
+ 0.007032 3 4 ack 40 ------- 0 3.0 2.0 2 11
- 0.007032 3 4 ack 40 ------- 0 3.0 2.0 2 11
r 0.007064 4 0 ack 40 ------- 0 1.0 0.0 1 8
h 0.007064 0 4 tcp 1000 ------- 0 0.0 1.0 3 12
h 0.007064 0 4 tcp 1000 ------- 0 0.0 1.0 4 13
+ 0.007064 0 4 tcp 1000 ------- 0 0.0 1.0 3 12
- 0.007064 3 4 tcp 1000 ------- 0 0.0 1.0 3 12
+ 0.007064 0 4 tcp 1000 ------- 0 0.0 1.0 4 13
r 0.007096 4 0 ack 40 ------- 0 1.0 0.0 2 9
h 0.007096 0 4 tcp 1000 ------- 0 0.0 1.0 5 14
h 0.007096 0 4 tcp 1000 ------- 0 0.0 1.0 6 15
+ 0.007096 0 4 tcp 1000 ------- 0 0.0 1.0 5 14
+ 0.007096 0 4 tcp 1000 ------- 0 0.0 1.0 6 15
r 0.007264 4 2 ack 40 ------- 0 3.0 2.0 1 10
h 0.007264 2 4 tcp 1000 ------- 0 2.0 3.0 3 16
h 0.007264 2 4 tcp 1000 ------- 0 2.0 3.0 4 17
+ 0.007264 2 4 tcp 1000 ------- 0 2.0 3.0 3 16
+ 0.007264 2 4 tcp 1000 ------- 0 2.0 3.0 4 17
- 0.007864 3 4 tcp 1000 ------- 0 0.0 1.0 4 13
r 0.008064 4 2 ack 40 ------- 0 3.0 2.0 2 11
h 0.008064 2 4 tcp 1000 ------- 0 2.0 3.0 5 18
h 0.008064 2 4 tcp 1000 ------- 0 2.0 3.0 6 19
+ 0.008064 2 4 tcp 1000 ------- 0 2.0 3.0 5 18
+ 0.008064 2 4 tcp 1000 ------- 0 2.0 3.0 6 19
- 0.008664 3 4 tcp 1000 ------- 0 0.0 1.0 5 14
r 0.008864 4 1 tcp 1000 ------- 0 0.0 1.0 3 12
h 0.008864 1 4 ack 40 ------- 0 1.0 0.0 3 20
+ 0.008864 1 4 ack 40 ------- 0 1.0 0.0 3 20
- 0.009464 3 4 tcp 1000 ------- 0 0.0 1.0 6 15
r 0.009664 4 1 tcp 1000 ------- 0 0.0 1.0 4 13
h 0.009664 1 4 ack 40 ------- 0 1.0 0.0 4 21
+ 0.009664 1 4 ack 40 ------- 0 1.0 0.0 4 21
- 0.010264 3 4 tcp 1000 ------- 0 2.0 3.0 3 16
r 0.010464 4 1 tcp 1000 ------- 0 0.0 1.0 5 14
h 0.010464 1 4 ack 40 ------- 0 1.0 0.0 5 22
+ 0.010464 1 4 ack 40 ------- 0 1.0 0.0 5 22
- 0.011064 3 4 tcp 1000 ------- 0 2.0 3.0 4 17
r 0.011264 4 1 tcp 1000 ------- 0 0.0 1.0 6 15
h 0.011264 1 4 ack 40 ------- 0 1.0 0.0 6 23
+ 0.011264 1 4 ack 40 ------- 0 1.0 0.0 6 23
- 0.011864 3 4 tcp 1000 ------- 0 2.0 3.0 5 18
r 0.012064 4 3 tcp 1000 ------- 0 2.0 3.0 3 16
h 0.012064 3 4 ack 40 ------- 0 3.0 2.0 3 24
+ 0.012064 3 4 ack 40 ------- 0 3.0 2.0 3 24
- 0.012664 3 4 tcp 1000 ------- 0 2.0 3.0 6 19
r 0.012864 4 3 tcp 1000 ------- 0 2.0 3.0 4 17
h 0.012864 3 4 ack 40 ------- 0 3.0 2.0 4 25
+ 0.012864 3 4 ack 40 ------- 0 3.0 2.0 4 25
- 0.013464 3 4 ack 40 ------- 0 1.0 0.0 3 20
- 0.013496 3 4 ack 40 ------- 0 1.0 0.0 4 21
- 0.013528 3 4 ack 40 ------- 0 1.0 0.0 5 22
- 0.01356 3 4 ack 40 ------- 0 1.0 0.0 6 23
- 0.013592 3 4 ack 40 ------- 0 3.0 2.0 3 24
- 0.013624 3 4 ack 40 ------- 0 3.0 2.0 4 25
r 0.013664 4 3 tcp 1000 ------- 0 2.0 3.0 5 18
h 0.013664 3 4 ack 40 ------- 0 3.0 2.0 5 26
+ 0.013664 3 4 ack 40 ------- 0 3.0 2.0 5 26
- 0.013664 3 4 ack 40 ------- 0 3.0 2.0 5 26
r 0.014464 4 3 tcp 1000 ------- 0 2.0 3.0 6 19
h 0.014464 3 4 ack 40 ------- 0 3.0 2.0 6 27
+ 0.014464 3 4 ack 40 ------- 0 3.0 2.0 6 27
- 0.014464 3 4 ack 40 ------- 0 3.0 2.0 6 27
r 0.014496 4 0 ack 40 ------- 0 1.0 0.0 3 20
h 0.014496 0 4 tcp 1000 ------- 0 0.0 1.0 7 28
h 0.014496 0 4 tcp 1000 ------- 0 0.0 1.0 8 29
+ 0.014496 0 4 tcp 1000 ------- 0 0.0 1.0 7 28
- 0.014496 3 4 tcp 1000 ------- 0 0.0 1.0 7 28
+ 0.014496 0 4 tcp 1000 ------- 0 0.0 1.0 8 29
r 0.014528 4 0 ack 40 ------- 0 1.0 0.0 4 21
h 0.014528 0 4 tcp 1000 ------- 0 0.0 1.0 9 30
h 0.014528 0 4 tcp 1000 ------- 0 0.0 1.0 10 31
+ 0.014528 0 4 tcp 1000 ------- 0 0.0 1.0 9 30
+ 0.014528 0 4 tcp 1000 ------- 0 0.0 1.0 10 31
r 0.01456 4 0 ack 40 ------- 0 1.0 0.0 5 22
h 0.01456 0 4 tcp 1000 ------- 0 0.0 1.0 11 32
h 0.01456 0 4 tcp 1000 ------- 0 0.0 1.0 12 33
+ 0.01456 0 4 tcp 1000 ------- 0 0.0 1.0 11 32
+ 0.01456 0 4 tcp 1000 ------- 0 0.0 1.0 12 33
r 0.014592 4 0 ack 40 ------- 0 1.0 0.0 6 23
h 0.014592 0 4 tcp 1000 ------- 0 0.0 1.0 13 34
h 0.014592 0 4 tcp 1000 ------- 0 0.0 1.0 14 35
+ 0.014592 0 4 tcp 1000 ------- 0 0.0 1.0 13 34
+ 0.014592 0 4 tcp 1000 ------- 0 0.0 1.0 14 35
r 0.014624 4 2 ack 40 ------- 0 3.0 2.0 3 24
h 0.014624 2 4 tcp 1000 ------- 0 2.0 3.0 7 36
h 0.014624 2 4 tcp 1000 ------- 0 2.0 3.0 8 37
+ 0.014624 2 4 tcp 1000 ------- 0 2.0 3.0 7 36
+ 0.014624 2 4 tcp 1000 ------- 0 2.0 3.0 8 37
r 0.014656 4 2 ack 40 ------- 0 3.0 2.0 4 25
h 0.014656 2 4 tcp 1000 ------- 0 2.0 3.0 9 38
h 0.014656 2 4 tcp 1000 ------- 0 2.0 3.0 10 39
+ 0.014656 2 4 tcp 1000 ------- 0 2.0 3.0 9 38
+ 0.014656 2 4 tcp 1000 ------- 0 2.0 3.0 10 39
r 0.014696 4 2 ack 40 ------- 0 3.0 2.0 5 26
h 0.014696 2 4 tcp 1000 ------- 0 2.0 3.0 11 40
h 0.014696 2 4 tcp 1000 ------- 0 2.0 3.0 12 41
+ 0.014696 2 4 tcp 1000 ------- 0 2.0 3.0 11 40
+ 0.014696 2 4 tcp 1000 ------- 0 2.0 3.0 12 41
- 0.015296 3 4 tcp 1000 ------- 0 0.0 1.0 8 29
r 0.015496 4 2 ack 40 ------- 0 3.0 2.0 6 27
h 0.015496 2 4 tcp 1000 ------- 0 2.0 3.0 13 42
h 0.015496 2 4 tcp 1000 ------- 0 2.0 3.0 14 43
+ 0.015496 2 4 tcp 1000 ------- 0 2.0 3.0 13 42
+ 0.015496 2 4 tcp 1000 ------- 0 2.0 3.0 14 43
- 0.016096 3 4 tcp 1000 ------- 0 0.0 1.0 9 30
r 0.016296 4 1 tcp 1000 ------- 0 0.0 1.0 7 28
h 0.016296 1 4 ack 40 ------- 0 1.0 0.0 7 44
+ 0.016296 1 4 ack 40 ------- 0 1.0 0.0 7 44
- 0.016896 3 4 tcp 1000 ------- 0 0.0 1.0 10 31
r 0.017096 4 1 tcp 1000 ------- 0 0.0 1.0 8 29
h 0.017096 1 4 ack 40 ------- 0 1.0 0.0 8 45
+ 0.017096 1 4 ack 40 ------- 0 1.0 0.0 8 45
- 0.017696 3 4 tcp 1000 ------- 0 0.0 1.0 11 32
r 0.017896 4 1 tcp 1000 ------- 0 0.0 1.0 9 30
h 0.017896 1 4 ack 40 ------- 0 1.0 0.0 9 46
+ 0.017896 1 4 ack 40 ------- 0 1.0 0.0 9 46
- 0.018496 3 4 tcp 1000 ------- 0 0.0 1.0 12 33
r 0.018696 4 1 tcp 1000 ------- 0 0.0 1.0 10 31
h 0.018696 1 4 ack 40 ------- 0 1.0 0.0 10 47
+ 0.018696 1 4 ack 40 ------- 0 1.0 0.0 10 47
- 0.019296 3 4 tcp 1000 ------- 0 0.0 1.0 13 34
r 0.019496 4 1 tcp 1000 ------- 0 0.0 1.0 11 32
h 0.019496 1 4 ack 40 ------- 0 1.0 0.0 11 48
+ 0.019496 1 4 ack 40 ------- 0 1.0 0.0 11 48
- 0.020096 3 4 tcp 1000 ------- 0 0.0 1.0 14 35
r 0.020296 4 1 tcp 1000 ------- 0 0.0 1.0 12 33
h 0.020296 1 4 ack 40 ------- 0 1.0 0.0 12 49
+ 0.020296 1 4 ack 40 ------- 0 1.0 0.0 12 49
- 0.020896 3 4 tcp 1000 ------- 0 2.0 3.0 7 36
r 0.021096 4 1 tcp 1000 ------- 0 0.0 1.0 13 34
h 0.021096 1 4 ack 40 ------- 0 1.0 0.0 13 50
+ 0.021096 1 4 ack 40 ------- 0 1.0 0.0 13 50
- 0.021696 3 4 tcp 1000 ------- 0 2.0 3.0 8 37
r 0.021896 4 1 tcp 1000 ------- 0 0.0 1.0 14 35
h 0.021896 1 4 ack 40 ------- 0 1.0 0.0 14 51
+ 0.021896 1 4 ack 40 ------- 0 1.0 0.0 14 51
- 0.022496 3 4 tcp 1000 ------- 0 2.0 3.0 9 38
r 0.022696 4 3 tcp 1000 ------- 0 2.0 3.0 7 36
h 0.022696 3 4 ack 40 ------- 0 3.0 2.0 7 52
+ 0.022696 3 4 ack 40 ------- 0 3.0 2.0 7 52
- 0.023296 3 4 tcp 1000 ------- 0 2.0 3.0 10 39
r 0.023496 4 3 tcp 1000 ------- 0 2.0 3.0 8 37
h 0.023496 3 4 ack 40 ------- 0 3.0 2.0 8 53
+ 0.023496 3 4 ack 40 ------- 0 3.0 2.0 8 53
- 0.024096 3 4 tcp 1000 ------- 0 2.0 3.0 11 40
r 0.024296 4 3 tcp 1000 ------- 0 2.0 3.0 9 38
h 0.024296 3 4 ack 40 ------- 0 3.0 2.0 9 54
+ 0.024296 3 4 ack 40 ------- 0 3.0 2.0 9 54
- 0.024896 3 4 tcp 1000 ------- 0 2.0 3.0 12 41
r 0.025096 4 3 tcp 1000 ------- 0 2.0 3.0 10 39
h 0.025096 3 4 ack 40 ------- 0 3.0 2.0 10 55
+ 0.025096 3 4 ack 40 ------- 0 3.0 2.0 10 55
- 0.025696 3 4 tcp 1000 ------- 0 2.0 3.0 13 42
r 0.025896 4 3 tcp 1000 ------- 0 2.0 3.0 11 40
h 0.025896 3 4 ack 40 ------- 0 3.0 2.0 11 56
+ 0.025896 3 4 ack 40 ------- 0 3.0 2.0 11 56
- 0.026496 3 4 tcp 1000 ------- 0 2.0 3.0 14 43
r 0.026696 4 3 tcp 1000 ------- 0 2.0 3.0 12 41
h 0.026696 3 4 ack 40 ------- 0 3.0 2.0 12 57
+ 0.026696 3 4 ack 40 ------- 0 3.0 2.0 12 57
- 0.027296 3 4 ack 40 ------- 0 1.0 0.0 7 44
- 0.027328 3 4 ack 40 ------- 0 1.0 0.0 8 45
- 0.02736 3 4 ack 40 ------- 0 1.0 0.0 9 46
- 0.027392 3 4 ack 40 ------- 0 1.0 0.0 10 47
- 0.027424 3 4 ack 40 ------- 0 1.0 0.0 11 48
- 0.027456 3 4 ack 40 ------- 0 1.0 0.0 12 49
- 0.027488 3 4 ack 40 ------- 0 1.0 0.0 13 50
r 0.027496 4 3 tcp 1000 ------- 0 2.0 3.0 13 42
h 0.027496 3 4 ack 40 ------- 0 3.0 2.0 13 58
+ 0.027496 3 4 ack 40 ------- 0 3.0 2.0 13 58
- 0.02752 3 4 ack 40 ------- 0 1.0 0.0 14 51
- 0.027552 3 4 ack 40 ------- 0 3.0 2.0 7 52
- 0.027584 3 4 ack 40 ------- 0 3.0 2.0 8 53
- 0.027616 3 4 ack 40 ------- 0 3.0 2.0 9 54
- 0.027648 3 4 ack 40 ------- 0 3.0 2.0 10 55
- 0.02768 3 4 ack 40 ------- 0 3.0 2.0 11 56
- 0.027712 3 4 ack 40 ------- 0 3.0 2.0 12 57
- 0.027744 3 4 ack 40 ------- 0 3.0 2.0 13 58
r 0.028296 4 3 tcp 1000 ------- 0 2.0 3.0 14 43
h 0.028296 3 4 ack 40 ------- 0 3.0 2.0 14 59
+ 0.028296 3 4 ack 40 ------- 0 3.0 2.0 14 59
- 0.028296 3 4 ack 40 ------- 0 3.0 2.0 14 59
r 0.028328 4 0 ack 40 ------- 0 1.0 0.0 7 44
h 0.028328 0 4 tcp 1000 ------- 0 0.0 1.0 15 60
h 0.028328 0 4 tcp 1000 ------- 0 0.0 1.0 16 61
+ 0.028328 0 4 tcp 1000 ------- 0 0.0 1.0 15 60
- 0.028328 3 4 tcp 1000 ------- 0 0.0 1.0 15 60
+ 0.028328 0 4 tcp 1000 ------- 0 0.0 1.0 16 61
r 0.02836 4 0 ack 40 ------- 0 1.0 0.0 8 45
h 0.02836 0 4 tcp 1000 ------- 0 0.0 1.0 17 62
h 0.02836 0 4 tcp 1000 ------- 0 0.0 1.0 18 63
+ 0.02836 0 4 tcp 1000 ------- 0 0.0 1.0 17 62
+ 0.02836 0 4 tcp 1000 ------- 0 0.0 1.0 18 63
r 0.028392 4 0 ack 40 ------- 0 1.0 0.0 9 46
h 0.028392 0 4 tcp 1000 ------- 0 0.0 1.0 19 64
h 0.028392 0 4 tcp 1000 ------- 0 0.0 1.0 20 65
+ 0.028392 0 4 tcp 1000 ------- 0 0.0 1.0 19 64
+ 0.028392 0 4 tcp 1000 ------- 0 0.0 1.0 20 65
r 0.028424 4 0 ack 40 ------- 0 1.0 0.0 10 47
h 0.028424 0 4 tcp 1000 ------- 0 0.0 1.0 21 66
h 0.028424 0 4 tcp 1000 ------- 0 0.0 1.0 22 67
+ 0.028424 0 4 tcp 1000 ------- 0 0.0 1.0 21 66
+ 0.028424 0 4 tcp 1000 ------- 0 0.0 1.0 22 67
r 0.028456 4 0 ack 40 ------- 0 1.0 0.0 11 48
h 0.028456 0 4 tcp 1000 ------- 0 0.0 1.0 23 68
h 0.028456 0 4 tcp 1000 ------- 0 0.0 1.0 24 69
+ 0.028456 0 4 tcp 1000 ------- 0 0.0 1.0 23 68
+ 0.028456 0 4 tcp 1000 ------- 0 0.0 1.0 24 69
r 0.028488 4 0 ack 40 ------- 0 1.0 0.0 12 49
h 0.028488 0 4 tcp 1000 ------- 0 0.0 1.0 25 70
h 0.028488 0 4 tcp 1000 ------- 0 0.0 1.0 26 71
+ 0.028488 0 4 tcp 1000 ------- 0 0.0 1.0 25 70
+ 0.028488 0 4 tcp 1000 ------- 0 0.0 1.0 26 71
r 0.02852 4 0 ack 40 ------- 0 1.0 0.0 13 50
h 0.02852 0 4 tcp 1000 ------- 0 0.0 1.0 27 72
h 0.02852 0 4 tcp 1000 ------- 0 0.0 1.0 28 73
+ 0.02852 0 4 tcp 1000 ------- 0 0.0 1.0 27 72
+ 0.02852 0 4 tcp 1000 ------- 0 0.0 1.0 28 73
r 0.028552 4 0 ack 40 ------- 0 1.0 0.0 14 51
h 0.028552 0 4 tcp 1000 ------- 0 0.0 1.0 29 74
+ 0.028552 0 4 tcp 1000 ------- 0 0.0 1.0 29 74
r 0.028584 4 2 ack 40 ------- 0 3.0 2.0 7 52
h 0.028584 2 4 tcp 1000 ------- 0 2.0 3.0 15 75
h 0.028584 2 4 tcp 1000 ------- 0 2.0 3.0 16 76
+ 0.028584 2 4 tcp 1000 ------- 0 2.0 3.0 15 75
+ 0.028584 2 4 tcp 1000 ------- 0 2.0 3.0 16 76
r 0.028616 4 2 ack 40 ------- 0 3.0 2.0 8 53
h 0.028616 2 4 tcp 1000 ------- 0 2.0 3.0 17 77
h 0.028616 2 4 tcp 1000 ------- 0 2.0 3.0 18 78
+ 0.028616 2 4 tcp 1000 ------- 0 2.0 3.0 17 77
+ 0.028616 2 4 tcp 1000 ------- 0 2.0 3.0 18 78
r 0.028648 4 2 ack 40 ------- 0 3.0 2.0 9 54
h 0.028648 2 4 tcp 1000 ------- 0 2.0 3.0 19 79
h 0.028648 2 4 tcp 1000 ------- 0 2.0 3.0 20 80
+ 0.028648 2 4 tcp 1000 ------- 0 2.0 3.0 19 79
+ 0.028648 2 4 tcp 1000 ------- 0 2.0 3.0 20 80
r 0.02868 4 2 ack 40 ------- 0 3.0 2.0 10 55
h 0.02868 2 4 tcp 1000 ------- 0 2.0 3.0 21 81
h 0.02868 2 4 tcp 1000 ------- 0 2.0 3.0 22 82
+ 0.02868 2 4 tcp 1000 ------- 0 2.0 3.0 21 81
+ 0.02868 2 4 tcp 1000 ------- 0 2.0 3.0 22 82
r 0.028712 4 2 ack 40 ------- 0 3.0 2.0 11 56
h 0.028712 2 4 tcp 1000 ------- 0 2.0 3.0 23 83
h 0.028712 2 4 tcp 1000 ------- 0 2.0 3.0 24 84
+ 0.028712 2 4 tcp 1000 ------- 0 2.0 3.0 23 83
+ 0.028712 2 4 tcp 1000 ------- 0 2.0 3.0 24 84
r 0.028744 4 2 ack 40 ------- 0 3.0 2.0 12 57
h 0.028744 2 4 tcp 1000 ------- 0 2.0 3.0 25 85
h 0.028744 2 4 tcp 1000 ------- 0 2.0 3.0 26 86
+ 0.028744 2 4 tcp 1000 ------- 0 2.0 3.0 25 85
+ 0.028744 2 4 tcp 1000 ------- 0 2.0 3.0 26 86
r 0.028776 4 2 ack 40 ------- 0 3.0 2.0 13 58
h 0.028776 2 4 tcp 1000 ------- 0 2.0 3.0 27 87
h 0.028776 2 4 tcp 1000 ------- 0 2.0 3.0 28 88
+ 0.028776 2 4 tcp 1000 ------- 0 2.0 3.0 27 87
+ 0.028776 2 4 tcp 1000 ------- 0 2.0 3.0 28 88
- 0.029128 3 4 tcp 1000 ------- 0 0.0 1.0 16 61
r 0.029328 4 2 ack 40 ------- 0 3.0 2.0 14 59
h 0.029328 2 4 tcp 1000 ------- 0 2.0 3.0 29 89
+ 0.029328 2 4 tcp 1000 ------- 0 2.0 3.0 29 89
- 0.029928 3 4 tcp 1000 ------- 0 0.0 1.0 17 62
r 0.030128 4 1 tcp 1000 ------- 0 0.0 1.0 15 60
h 0.030128 1 4 ack 40 ------- 0 1.0 0.0 15 90
+ 0.030128 1 4 ack 40 ------- 0 1.0 0.0 15 90
- 0.030728 3 4 tcp 1000 ------- 0 0.0 1.0 18 63
r 0.030928 4 1 tcp 1000 ------- 0 0.0 1.0 16 61
h 0.030928 1 4 ack 40 ------- 0 1.0 0.0 16 91
+ 0.030928 1 4 ack 40 ------- 0 1.0 0.0 16 91
- 0.031528 3 4 tcp 1000 ------- 0 0.0 1.0 19 64
r 0.031728 4 1 tcp 1000 ------- 0 0.0 1.0 17 62
h 0.031728 1 4 ack 40 ------- 0 1.0 0.0 17 92
+ 0.031728 1 4 ack 40 ------- 0 1.0 0.0 17 92
- 0.032328 3 4 tcp 1000 ------- 0 0.0 1.0 20 65
r 0.032528 4 1 tcp 1000 ------- 0 0.0 1.0 18 63
h 0.032528 1 4 ack 40 ------- 0 1.0 0.0 18 93
+ 0.032528 1 4 ack 40 ------- 0 1.0 0.0 18 93
- 0.033128 3 4 tcp 1000 ------- 0 0.0 1.0 21 66
r 0.033328 4 1 tcp 1000 ------- 0 0.0 1.0 19 64
h 0.033328 1 4 ack 40 ------- 0 1.0 0.0 19 94
+ 0.033328 1 4 ack 40 ------- 0 1.0 0.0 19 94
- 0.033928 3 4 tcp 1000 ------- 0 0.0 1.0 22 67
r 0.034128 4 1 tcp 1000 ------- 0 0.0 1.0 20 65
h 0.034128 1 4 ack 40 ------- 0 1.0 0.0 20 95
+ 0.034128 1 4 ack 40 ------- 0 1.0 0.0 20 95
- 0.034728 3 4 tcp 1000 ------- 0 0.0 1.0 23 68
r 0.034928 4 1 tcp 1000 ------- 0 0.0 1.0 21 66
h 0.034928 1 4 ack 40 ------- 0 1.0 0.0 21 96
+ 0.034928 1 4 ack 40 ------- 0 1.0 0.0 21 96
- 0.035528 3 4 tcp 1000 ------- 0 0.0 1.0 24 69
r 0.035728 4 1 tcp 1000 ------- 0 0.0 1.0 22 67
h 0.035728 1 4 ack 40 ------- 0 1.0 0.0 22 97
+ 0.035728 1 4 ack 40 ------- 0 1.0 0.0 22 97
- 0.036328 3 4 tcp 1000 ------- 0 0.0 1.0 25 70
r 0.036528 4 1 tcp 1000 ------- 0 0.0 1.0 23 68
h 0.036528 1 4 ack 40 ------- 0 1.0 0.0 23 98
+ 0.036528 1 4 ack 40 ------- 0 1.0 0.0 23 98
- 0.037128 3 4 tcp 1000 ------- 0 0.0 1.0 26 71
r 0.037328 4 1 tcp 1000 ------- 0 0.0 1.0 24 69
h 0.037328 1 4 ack 40 ------- 0 1.0 0.0 24 99
+ 0.037328 1 4 ack 40 ------- 0 1.0 0.0 24 99
- 0.037928 3 4 tcp 1000 ------- 0 0.0 1.0 27 72
r 0.038128 4 1 tcp 1000 ------- 0 0.0 1.0 25 70
h 0.038128 1 4 ack 40 ------- 0 1.0 0.0 25 100
+ 0.038128 1 4 ack 40 ------- 0 1.0 0.0 25 100
- 0.038728 3 4 tcp 1000 ------- 0 0.0 1.0 28 73
r 0.038928 4 1 tcp 1000 ------- 0 0.0 1.0 26 71
h 0.038928 1 4 ack 40 ------- 0 1.0 0.0 26 101
+ 0.038928 1 4 ack 40 ------- 0 1.0 0.0 26 101
- 0.039528 3 4 tcp 1000 ------- 0 0.0 1.0 29 74
r 0.039728 4 1 tcp 1000 ------- 0 0.0 1.0 27 72
h 0.039728 1 4 ack 40 ------- 0 1.0 0.0 27 102
+ 0.039728 1 4 ack 40 ------- 0 1.0 0.0 27 102
- 0.040328 3 4 tcp 1000 ------- 0 2.0 3.0 15 75
r 0.040528 4 1 tcp 1000 ------- 0 0.0 1.0 28 73
h 0.040528 1 4 ack 40 ------- 0 1.0 0.0 28 103
+ 0.040528 1 4 ack 40 ------- 0 1.0 0.0 28 103
- 0.041128 3 4 tcp 1000 ------- 0 2.0 3.0 16 76
r 0.041328 4 1 tcp 1000 ------- 0 0.0 1.0 29 74
h 0.041328 1 4 ack 40 ------- 0 1.0 0.0 29 104
+ 0.041328 1 4 ack 40 ------- 0 1.0 0.0 29 104
- 0.041928 3 4 tcp 1000 ------- 0 2.0 3.0 17 77
r 0.042128 4 3 tcp 1000 ------- 0 2.0 3.0 15 75
h 0.042128 3 4 ack 40 ------- 0 3.0 2.0 15 105
+ 0.042128 3 4 ack 40 ------- 0 3.0 2.0 15 105
- 0.042728 3 4 tcp 1000 ------- 0 2.0 3.0 18 78
r 0.042928 4 3 tcp 1000 ------- 0 2.0 3.0 16 76
h 0.042928 3 4 ack 40 ------- 0 3.0 2.0 16 106
+ 0.042928 3 4 ack 40 ------- 0 3.0 2.0 16 106
- 0.043528 3 4 tcp 1000 ------- 0 2.0 3.0 19 79
r 0.043728 4 3 tcp 1000 ------- 0 2.0 3.0 17 77
h 0.043728 3 4 ack 40 ------- 0 3.0 2.0 17 107
+ 0.043728 3 4 ack 40 ------- 0 3.0 2.0 17 107
- 0.044328 3 4 tcp 1000 ------- 0 2.0 3.0 20 80
r 0.044528 4 3 tcp 1000 ------- 0 2.0 3.0 18 78
h 0.044528 3 4 ack 40 ------- 0 3.0 2.0 18 108
+ 0.044528 3 4 ack 40 ------- 0 3.0 2.0 18 108
- 0.045128 3 4 tcp 1000 ------- 0 2.0 3.0 21 81
r 0.045328 4 3 tcp 1000 ------- 0 2.0 3.0 19 79
h 0.045328 3 4 ack 40 ------- 0 3.0 2.0 19 109
+ 0.045328 3 4 ack 40 ------- 0 3.0 2.0 19 109
- 0.045928 3 4 tcp 1000 ------- 0 2.0 3.0 22 82
r 0.046128 4 3 tcp 1000 ------- 0 2.0 3.0 20 80
h 0.046128 3 4 ack 40 ------- 0 3.0 2.0 20 110
+ 0.046128 3 4 ack 40 ------- 0 3.0 2.0 20 110
- 0.046728 3 4 tcp 1000 ------- 0 2.0 3.0 23 83
r 0.046928 4 3 tcp 1000 ------- 0 2.0 3.0 21 81
h 0.046928 3 4 ack 40 ------- 0 3.0 2.0 21 111
+ 0.046928 3 4 ack 40 ------- 0 3.0 2.0 21 111
- 0.047528 3 4 tcp 1000 ------- 0 2.0 3.0 24 84
r 0.047728 4 3 tcp 1000 ------- 0 2.0 3.0 22 82
h 0.047728 3 4 ack 40 ------- 0 3.0 2.0 22 112
+ 0.047728 3 4 ack 40 ------- 0 3.0 2.0 22 112
- 0.048328 3 4 tcp 1000 ------- 0 2.0 3.0 25 85
r 0.048528 4 3 tcp 1000 ------- 0 2.0 3.0 23 83
h 0.048528 3 4 ack 40 ------- 0 3.0 2.0 23 113
+ 0.048528 3 4 ack 40 ------- 0 3.0 2.0 23 113
- 0.049128 3 4 tcp 1000 ------- 0 2.0 3.0 26 86
r 0.049328 4 3 tcp 1000 ------- 0 2.0 3.0 24 84
h 0.049328 3 4 ack 40 ------- 0 3.0 2.0 24 114
+ 0.049328 3 4 ack 40 ------- 0 3.0 2.0 24 114
- 0.049928 3 4 tcp 1000 ------- 0 2.0 3.0 27 87
r 0.050128 4 3 tcp 1000 ------- 0 2.0 3.0 25 85
h 0.050128 3 4 ack 40 ------- 0 3.0 2.0 25 115
+ 0.050128 3 4 ack 40 ------- 0 3.0 2.0 25 115
- 0.050728 3 4 tcp 1000 ------- 0 2.0 3.0 28 88
r 0.050928 4 3 tcp 1000 ------- 0 2.0 3.0 26 86
h 0.050928 3 4 ack 40 ------- 0 3.0 2.0 26 116
+ 0.050928 3 4 ack 40 ------- 0 3.0 2.0 26 116
- 0.051528 3 4 tcp 1000 ------- 0 2.0 3.0 29 89
r 0.051728 4 3 tcp 1000 ------- 0 2.0 3.0 27 87
h 0.051728 3 4 ack 40 ------- 0 3.0 2.0 27 117
+ 0.051728 3 4 ack 40 ------- 0 3.0 2.0 27 117
- 0.052328 3 4 ack 40 ------- 0 1.0 0.0 15 90
- 0.05236 3 4 ack 40 ------- 0 1.0 0.0 16 91
- 0.052392 3 4 ack 40 ------- 0 1.0 0.0 17 92
- 0.052424 3 4 ack 40 ------- 0 1.0 0.0 18 93
- 0.052456 3 4 ack 40 ------- 0 1.0 0.0 19 94
- 0.052488 3 4 ack 40 ------- 0 1.0 0.0 20 95
- 0.05252 3 4 ack 40 ------- 0 1.0 0.0 21 96
r 0.052528 4 3 tcp 1000 ------- 0 2.0 3.0 28 88
h 0.052528 3 4 ack 40 ------- 0 3.0 2.0 28 118
+ 0.052528 3 4 ack 40 ------- 0 3.0 2.0 28 118
- 0.052552 3 4 ack 40 ------- 0 1.0 0.0 22 97
- 0.052584 3 4 ack 40 ------- 0 1.0 0.0 23 98
- 0.052616 3 4 ack 40 ------- 0 1.0 0.0 24 99
- 0.052648 3 4 ack 40 ------- 0 1.0 0.0 25 100
- 0.05268 3 4 ack 40 ------- 0 1.0 0.0 26 101
- 0.052712 3 4 ack 40 ------- 0 1.0 0.0 27 102
- 0.052744 3 4 ack 40 ------- 0 1.0 0.0 28 103
- 0.052776 3 4 ack 40 ------- 0 1.0 0.0 29 104
- 0.052808 3 4 ack 40 ------- 0 3.0 2.0 15 105
- 0.05284 3 4 ack 40 ------- 0 3.0 2.0 16 106
- 0.052872 3 4 ack 40 ------- 0 3.0 2.0 17 107
- 0.052904 3 4 ack 40 ------- 0 3.0 2.0 18 108
- 0.052936 3 4 ack 40 ------- 0 3.0 2.0 19 109
- 0.052968 3 4 ack 40 ------- 0 3.0 2.0 20 110
- 0.053 3 4 ack 40 ------- 0 3.0 2.0 21 111
- 0.053032 3 4 ack 40 ------- 0 3.0 2.0 22 112
- 0.053064 3 4 ack 40 ------- 0 3.0 2.0 23 113
- 0.053096 3 4 ack 40 ------- 0 3.0 2.0 24 114
- 0.053128 3 4 ack 40 ------- 0 3.0 2.0 25 115
- 0.05316 3 4 ack 40 ------- 0 3.0 2.0 26 116
- 0.053192 3 4 ack 40 ------- 0 3.0 2.0 27 117
- 0.053224 3 4 ack 40 ------- 0 3.0 2.0 28 118
r 0.053328 4 3 tcp 1000 ------- 0 2.0 3.0 29 89
h 0.053328 3 4 ack 40 ------- 0 3.0 2.0 29 119
+ 0.053328 3 4 ack 40 ------- 0 3.0 2.0 29 119
- 0.053328 3 4 ack 40 ------- 0 3.0 2.0 29 119
r 0.05336 4 0 ack 40 ------- 0 1.0 0.0 15 90
h 0.05336 0 4 tcp 1000 ------- 0 0.0 1.0 30 120
+ 0.05336 0 4 tcp 1000 ------- 0 0.0 1.0 30 120
- 0.05336 3 4 tcp 1000 ------- 0 0.0 1.0 30 120
r 0.053392 4 0 ack 40 ------- 0 1.0 0.0 16 91
h 0.053392 0 4 tcp 1000 ------- 0 0.0 1.0 31 121
+ 0.053392 0 4 tcp 1000 ------- 0 0.0 1.0 31 121
r 0.053424 4 0 ack 40 ------- 0 1.0 0.0 17 92
h 0.053424 0 4 tcp 1000 ------- 0 0.0 1.0 32 122
+ 0.053424 0 4 tcp 1000 ------- 0 0.0 1.0 32 122
r 0.053456 4 0 ack 40 ------- 0 1.0 0.0 18 93
h 0.053456 0 4 tcp 1000 ------- 0 0.0 1.0 33 123
+ 0.053456 0 4 tcp 1000 ------- 0 0.0 1.0 33 123
r 0.053488 4 0 ack 40 ------- 0 1.0 0.0 19 94
h 0.053488 0 4 tcp 1000 ------- 0 0.0 1.0 34 124
+ 0.053488 0 4 tcp 1000 ------- 0 0.0 1.0 34 124
r 0.05352 4 0 ack 40 ------- 0 1.0 0.0 20 95
h 0.05352 0 4 tcp 1000 ------- 0 0.0 1.0 35 125
+ 0.05352 0 4 tcp 1000 ------- 0 0.0 1.0 35 125
r 0.053552 4 0 ack 40 ------- 0 1.0 0.0 21 96
h 0.053552 0 4 tcp 1000 ------- 0 0.0 1.0 36 126
+ 0.053552 0 4 tcp 1000 ------- 0 0.0 1.0 36 126
r 0.053584 4 0 ack 40 ------- 0 1.0 0.0 22 97
h 0.053584 0 4 tcp 1000 ------- 0 0.0 1.0 37 127
+ 0.053584 0 4 tcp 1000 ------- 0 0.0 1.0 37 127
r 0.053616 4 0 ack 40 ------- 0 1.0 0.0 23 98
h 0.053616 0 4 tcp 1000 ------- 0 0.0 1.0 38 128
+ 0.053616 0 4 tcp 1000 ------- 0 0.0 1.0 38 128
r 0.053648 4 0 ack 40 ------- 0 1.0 0.0 24 99
h 0.053648 0 4 tcp 1000 ------- 0 0.0 1.0 39 129
+ 0.053648 0 4 tcp 1000 ------- 0 0.0 1.0 39 129
r 0.05368 4 0 ack 40 ------- 0 1.0 0.0 25 100
h 0.05368 0 4 tcp 1000 ------- 0 0.0 1.0 40 130
+ 0.05368 0 4 tcp 1000 ------- 0 0.0 1.0 40 130
r 0.053712 4 0 ack 40 ------- 0 1.0 0.0 26 101
h 0.053712 0 4 tcp 1000 ------- 0 0.0 1.0 41 131
+ 0.053712 0 4 tcp 1000 ------- 0 0.0 1.0 41 131
r 0.053744 4 0 ack 40 ------- 0 1.0 0.0 27 102
h 0.053744 0 4 tcp 1000 ------- 0 0.0 1.0 42 132
+ 0.053744 0 4 tcp 1000 ------- 0 0.0 1.0 42 132
r 0.053776 4 0 ack 40 ------- 0 1.0 0.0 28 103
h 0.053776 0 4 tcp 1000 ------- 0 0.0 1.0 43 133
+ 0.053776 0 4 tcp 1000 ------- 0 0.0 1.0 43 133
r 0.053808 4 0 ack 40 ------- 0 1.0 0.0 29 104
h 0.053808 0 4 tcp 1000 ------- 0 0.0 1.0 44 134
+ 0.053808 0 4 tcp 1000 ------- 0 0.0 1.0 44 134
r 0.05384 4 2 ack 40 ------- 0 3.0 2.0 15 105
h 0.05384 2 4 tcp 1000 ------- 0 2.0 3.0 30 135
+ 0.05384 2 4 tcp 1000 ------- 0 2.0 3.0 30 135
r 0.053872 4 2 ack 40 ------- 0 3.0 2.0 16 106
h 0.053872 2 4 tcp 1000 ------- 0 2.0 3.0 31 136
+ 0.053872 2 4 tcp 1000 ------- 0 2.0 3.0 31 136
r 0.053904 4 2 ack 40 ------- 0 3.0 2.0 17 107
h 0.053904 2 4 tcp 1000 ------- 0 2.0 3.0 32 137
+ 0.053904 2 4 tcp 1000 ------- 0 2.0 3.0 32 137
r 0.053936 4 2 ack 40 ------- 0 3.0 2.0 18 108
h 0.053936 2 4 tcp 1000 ------- 0 2.0 3.0 33 138
+ 0.053936 2 4 tcp 1000 ------- 0 2.0 3.0 33 138
r 0.053968 4 2 ack 40 ------- 0 3.0 2.0 19 109
h 0.053968 2 4 tcp 1000 ------- 0 2.0 3.0 34 139
+ 0.053968 2 4 tcp 1000 ------- 0 2.0 3.0 34 139
r 0.054 4 2 ack 40 ------- 0 3.0 2.0 20 110
h 0.054 2 4 tcp 1000 ------- 0 2.0 3.0 35 140
+ 0.054 2 4 tcp 1000 ------- 0 2.0 3.0 35 140
r 0.054032 4 2 ack 40 ------- 0 3.0 2.0 21 111
h 0.054032 2 4 tcp 1000 ------- 0 2.0 3.0 36 141
+ 0.054032 2 4 tcp 1000 ------- 0 2.0 3.0 36 141
r 0.054064 4 2 ack 40 ------- 0 3.0 2.0 22 112
h 0.054064 2 4 tcp 1000 ------- 0 2.0 3.0 37 142
+ 0.054064 2 4 tcp 1000 ------- 0 2.0 3.0 37 142
r 0.054096 4 2 ack 40 ------- 0 3.0 2.0 23 113
h 0.054096 2 4 tcp 1000 ------- 0 2.0 3.0 38 143
+ 0.054096 2 4 tcp 1000 ------- 0 2.0 3.0 38 143
r 0.054128 4 2 ack 40 ------- 0 3.0 2.0 24 114
h 0.054128 2 4 tcp 1000 ------- 0 2.0 3.0 39 144
+ 0.054128 2 4 tcp 1000 ------- 0 2.0 3.0 39 144
r 0.05416 4 2 ack 40 ------- 0 3.0 2.0 25 115
h 0.05416 2 4 tcp 1000 ------- 0 2.0 3.0 40 145
+ 0.05416 2 4 tcp 1000 ------- 0 2.0 3.0 40 145
- 0.05416 3 4 tcp 1000 ------- 0 0.0 1.0 31 121
r 0.054192 4 2 ack 40 ------- 0 3.0 2.0 26 116
h 0.054192 2 4 tcp 1000 ------- 0 2.0 3.0 41 146
+ 0.054192 2 4 tcp 1000 ------- 0 2.0 3.0 41 146
r 0.054224 4 2 ack 40 ------- 0 3.0 2.0 27 117
h 0.054224 2 4 tcp 1000 ------- 0 2.0 3.0 42 147
+ 0.054224 2 4 tcp 1000 ------- 0 2.0 3.0 42 147
r 0.054256 4 2 ack 40 ------- 0 3.0 2.0 28 118
h 0.054256 2 4 tcp 1000 ------- 0 2.0 3.0 43 148
+ 0.054256 2 4 tcp 1000 ------- 0 2.0 3.0 43 148
r 0.05436 4 2 ack 40 ------- 0 3.0 2.0 29 119
h 0.05436 2 4 tcp 1000 ------- 0 2.0 3.0 44 149
+ 0.05436 2 4 tcp 1000 ------- 0 2.0 3.0 44 149
- 0.05496 3 4 tcp 1000 ------- 0 0.0 1.0 32 122
r 0.05516 4 1 tcp 1000 ------- 0 0.0 1.0 30 120
h 0.05516 1 4 ack 40 ------- 0 1.0 0.0 30 150
+ 0.05516 1 4 ack 40 ------- 0 1.0 0.0 30 150
- 0.05576 3 4 tcp 1000 ------- 0 0.0 1.0 33 123
r 0.05596 4 1 tcp 1000 ------- 0 0.0 1.0 31 121
h 0.05596 1 4 ack 40 ------- 0 1.0 0.0 31 151
+ 0.05596 1 4 ack 40 ------- 0 1.0 0.0 31 151
- 0.05656 3 4 tcp 1000 ------- 0 0.0 1.0 34 124
r 0.05676 4 1 tcp 1000 ------- 0 0.0 1.0 32 122
h 0.05676 1 4 ack 40 ------- 0 1.0 0.0 32 152
+ 0.05676 1 4 ack 40 ------- 0 1.0 0.0 32 152
- 0.05736 3 4 tcp 1000 ------- 0 0.0 1.0 35 125
r 0.05756 4 1 tcp 1000 ------- 0 0.0 1.0 33 123
h 0.05756 1 4 ack 40 ------- 0 1.0 0.0 33 153
+ 0.05756 1 4 ack 40 ------- 0 1.0 0.0 33 153
- 0.05816 3 4 tcp 1000 ------- 0 0.0 1.0 36 126
r 0.05836 4 1 tcp 1000 ------- 0 0.0 1.0 34 124
h 0.05836 1 4 ack 40 ------- 0 1.0 0.0 34 154
+ 0.05836 1 4 ack 40 ------- 0 1.0 0.0 34 154
- 0.05896 3 4 tcp 1000 ------- 0 0.0 1.0 37 127
r 0.05916 4 1 tcp 1000 ------- 0 0.0 1.0 35 125
h 0.05916 1 4 ack 40 ------- 0 1.0 0.0 35 155
+ 0.05916 1 4 ack 40 ------- 0 1.0 0.0 35 155
- 0.05976 3 4 tcp 1000 ------- 0 0.0 1.0 38 128
r 0.05996 4 1 tcp 1000 ------- 0 0.0 1.0 36 126
h 0.05996 1 4 ack 40 ------- 0 1.0 0.0 36 156
+ 0.05996 1 4 ack 40 ------- 0 1.0 0.0 36 156
- 0.06056 3 4 tcp 1000 ------- 0 0.0 1.0 39 129
r 0.06076 4 1 tcp 1000 ------- 0 0.0 1.0 37 127
h 0.06076 1 4 ack 40 ------- 0 1.0 0.0 37 157
+ 0.06076 1 4 ack 40 ------- 0 1.0 0.0 37 157
- 0.06136 3 4 tcp 1000 ------- 0 0.0 1.0 40 130
r 0.06156 4 1 tcp 1000 ------- 0 0.0 1.0 38 128
h 0.06156 1 4 ack 40 ------- 0 1.0 0.0 38 158
+ 0.06156 1 4 ack 40 ------- 0 1.0 0.0 38 158
- 0.06216 3 4 tcp 1000 ------- 0 0.0 1.0 41 131
r 0.06236 4 1 tcp 1000 ------- 0 0.0 1.0 39 129
h 0.06236 1 4 ack 40 ------- 0 1.0 0.0 39 159
+ 0.06236 1 4 ack 40 ------- 0 1.0 0.0 39 159
- 0.06296 3 4 tcp 1000 ------- 0 0.0 1.0 42 132
r 0.06316 4 1 tcp 1000 ------- 0 0.0 1.0 40 130
h 0.06316 1 4 ack 40 ------- 0 1.0 0.0 40 160
+ 0.06316 1 4 ack 40 ------- 0 1.0 0.0 40 160
- 0.06376 3 4 tcp 1000 ------- 0 0.0 1.0 43 133
r 0.06396 4 1 tcp 1000 ------- 0 0.0 1.0 41 131
h 0.06396 1 4 ack 40 ------- 0 1.0 0.0 41 161
+ 0.06396 1 4 ack 40 ------- 0 1.0 0.0 41 161
- 0.06456 3 4 tcp 1000 ------- 0 0.0 1.0 44 134
r 0.06476 4 1 tcp 1000 ------- 0 0.0 1.0 42 132
h 0.06476 1 4 ack 40 ------- 0 1.0 0.0 42 162
+ 0.06476 1 4 ack 40 ------- 0 1.0 0.0 42 162
- 0.06536 3 4 tcp 1000 ------- 0 2.0 3.0 30 135
r 0.06556 4 1 tcp 1000 ------- 0 0.0 1.0 43 133
h 0.06556 1 4 ack 40 ------- 0 1.0 0.0 43 163
+ 0.06556 1 4 ack 40 ------- 0 1.0 0.0 43 163
- 0.06616 3 4 tcp 1000 ------- 0 2.0 3.0 31 136
r 0.06636 4 1 tcp 1000 ------- 0 0.0 1.0 44 134
h 0.06636 1 4 ack 40 ------- 0 1.0 0.0 44 164
+ 0.06636 1 4 ack 40 ------- 0 1.0 0.0 44 164
- 0.06696 3 4 tcp 1000 ------- 0 2.0 3.0 32 137
r 0.06716 4 3 tcp 1000 ------- 0 2.0 3.0 30 135
h 0.06716 3 4 ack 40 ------- 0 3.0 2.0 30 165
+ 0.06716 3 4 ack 40 ------- 0 3.0 2.0 30 165
- 0.06776 3 4 tcp 1000 ------- 0 2.0 3.0 33 138
r 0.06796 4 3 tcp 1000 ------- 0 2.0 3.0 31 136
h 0.06796 3 4 ack 40 ------- 0 3.0 2.0 31 166
+ 0.06796 3 4 ack 40 ------- 0 3.0 2.0 31 166
- 0.06856 3 4 tcp 1000 ------- 0 2.0 3.0 34 139
r 0.06876 4 3 tcp 1000 ------- 0 2.0 3.0 32 137
h 0.06876 3 4 ack 40 ------- 0 3.0 2.0 32 167
+ 0.06876 3 4 ack 40 ------- 0 3.0 2.0 32 167
- 0.06936 3 4 tcp 1000 ------- 0 2.0 3.0 35 140
r 0.06956 4 3 tcp 1000 ------- 0 2.0 3.0 33 138
h 0.06956 3 4 ack 40 ------- 0 3.0 2.0 33 168
+ 0.06956 3 4 ack 40 ------- 0 3.0 2.0 33 168
- 0.07016 3 4 tcp 1000 ------- 0 2.0 3.0 36 141
r 0.07036 4 3 tcp 1000 ------- 0 2.0 3.0 34 139
h 0.07036 3 4 ack 40 ------- 0 3.0 2.0 34 169
+ 0.07036 3 4 ack 40 ------- 0 3.0 2.0 34 169
- 0.07096 3 4 tcp 1000 ------- 0 2.0 3.0 37 142
r 0.07116 4 3 tcp 1000 ------- 0 2.0 3.0 35 140
h 0.07116 3 4 ack 40 ------- 0 3.0 2.0 35 170
+ 0.07116 3 4 ack 40 ------- 0 3.0 2.0 35 170
- 0.07176 3 4 tcp 1000 ------- 0 2.0 3.0 38 143
r 0.07196 4 3 tcp 1000 ------- 0 2.0 3.0 36 141
h 0.07196 3 4 ack 40 ------- 0 3.0 2.0 36 171
+ 0.07196 3 4 ack 40 ------- 0 3.0 2.0 36 171
- 0.07256 3 4 tcp 1000 ------- 0 2.0 3.0 39 144
r 0.07276 4 3 tcp 1000 ------- 0 2.0 3.0 37 142
h 0.07276 3 4 ack 40 ------- 0 3.0 2.0 37 172
+ 0.07276 3 4 ack 40 ------- 0 3.0 2.0 37 172
- 0.07336 3 4 tcp 1000 ------- 0 2.0 3.0 40 145
r 0.07356 4 3 tcp 1000 ------- 0 2.0 3.0 38 143
h 0.07356 3 4 ack 40 ------- 0 3.0 2.0 38 173
+ 0.07356 3 4 ack 40 ------- 0 3.0 2.0 38 173
- 0.07416 3 4 tcp 1000 ------- 0 2.0 3.0 41 146
r 0.07436 4 3 tcp 1000 ------- 0 2.0 3.0 39 144