+ 0 4 1 tcp 1000 ------- 0 0.1.0.0 0.2.0.0 0 0
- 0 4 1 tcp 1000 ------- 0 0.1.0.0 0.2.0.0 0 0
r 0.0028 4 1 tcp 1000 ------- 0 0.1.0.0 0.2.0.0 0 0
h 0.0028 1 3 tcp 1000 ------- 0 0.1.0.0 0.2.0.0 0 0
+ 0.0048 1 3 tcp 1000 ------- 0 0.1.0.0 0.2.0.0 0 0
- 0.0048 1 3 tcp 1000 ------- 0 0.1.0.0 0.2.0.0 0 0
d 0.004804 0 3 tcp 1000 ------- 0 0.1.0.0 0.2.0.0 0 0
r 0.006804 3 2 tcp 1000 ------- 0 0.1.0.0 0.2.0.0 0 0
+ 0.006804 2 5 tcp 1000 ------- 0 0.1.0.0 0.2.0.0 0 0
- 0.006804 2 5 tcp 1000 ------- 0 0.1.0.0 0.2.0.0 0 0
r 0.009604 2 5 tcp 1000 ------- 0 0.1.0.0 0.2.0.0 0 0
+ 0.009604 5 2 ack 40 ------- 0 0.2.0.0 0.1.0.0 0 1
- 0.009604 5 2 ack 40 ------- 0 0.2.0.0 0.1.0.0 0 1
r 0.011636 5 2 ack 40 ------- 0 0.2.0.0 0.1.0.0 0 1
h 0.011636 2 3 ack 40 ------- 0 0.2.0.0 0.1.0.0 0 1
+ 0.013636 2 3 ack 40 ------- 0 0.2.0.0 0.1.0.0 0 1
- 0.013636 2 3 ack 40 ------- 0 0.2.0.0 0.1.0.0 0 1
d 0.01364 0 3 ack 40 ------- 0 0.2.0.0 0.1.0.0 0 1
r 0.01564 3 1 ack 40 ------- 0 0.2.0.0 0.1.0.0 0 1
+ 0.01564 1 4 ack 40 ------- 0 0.2.0.0 0.1.0.0 0 1
- 0.01564 1 4 ack 40 ------- 0 0.2.0.0 0.1.0.0 0 1
r 0.017672 1 4 ack 40 ------- 0 0.2.0.0 0.1.0.0 0 1
+ 0.017672 4 1 tcp 1000 ------- 0 0.1.0.0 0.2.0.0 1 2
- 0.017672 4 1 tcp 1000 ------- 0 0.1.0.0 0.2.0.0 1 2
+ 0.017672 4 1 tcp 1000 ------- 0 0.1.0.0 0.2.0.0 2 3
- 0.018472 4 1 tcp 1000 ------- 0 0.1.0.0 0.2.0.0 2 3
r 0.020472 4 1 tcp 1000 ------- 0 0.1.0.0 0.2.0.0 1 2
h 0.020472 1 3 tcp 1000 ------- 0 0.1.0.0 0.2.0.0 1 2
r 0.021272 4 1 tcp 1000 ------- 0 0.1.0.0 0.2.0.0 2 3
h 0.021272 1 3 tcp 1000 ------- 0 0.1.0.0 0.2.0.0 2 3
+ 0.022472 1 3 tcp 1000 ------- 0 0.1.0.0 0.2.0.0 1 2
- 0.022472 1 3 tcp 1000 ------- 0 0.1.0.0 0.2.0.0 1 2
d 0.022476 0 3 tcp 1000 ------- 0 0.1.0.0 0.2.0.0 1 2
+ 0.023272 1 3 tcp 1000 ------- 0 0.1.0.0 0.2.0.0 2 3
r 0.024476 3 2 tcp 1000 ------- 0 0.1.0.0 0.2.0.0 1 2
+ 0.024476 2 5 tcp 1000 ------- 0 0.1.0.0 0.2.0.0 1 2
- 0.024476 2 5 tcp 1000 ------- 0 0.1.0.0 0.2.0.0 1 2
- 0.026728 1 3 tcp 1000 ------- 0 0.1.0.0 0.2.0.0 2 3
d 0.026732 0 3 tcp 1000 ------- 0 0.1.0.0 0.2.0.0 2 3
r 0.027276 2 5 tcp 1000 ------- 0 0.1.0.0 0.2.0.0 1 2
+ 0.027276 5 2 ack 40 ------- 0 0.2.0.0 0.1.0.0 1 4
- 0.027276 5 2 ack 40 ------- 0 0.2.0.0 0.1.0.0 1 4
r 0.028732 3 2 tcp 1000 ------- 0 0.1.0.0 0.2.0.0 2 3
+ 0.028732 2 5 tcp 1000 ------- 0 0.1.0.0 0.2.0.0 2 3
- 0.028732 2 5 tcp 1000 ------- 0 0.1.0.0 0.2.0.0 2 3
r 0.029308 5 2 ack 40 ------- 0 0.2.0.0 0.1.0.0 1 4
h 0.029308 2 3 ack 40 ------- 0 0.2.0.0 0.1.0.0 1 4
+ 0.031308 2 3 ack 40 ------- 0 0.2.0.0 0.1.0.0 1 4
- 0.031308 2 3 ack 40 ------- 0 0.2.0.0 0.1.0.0 1 4
d 0.031312 0 3 ack 40 ------- 0 0.2.0.0 0.1.0.0 1 4
r 0.031532 2 5 tcp 1000 ------- 0 0.1.0.0 0.2.0.0 2 3
+ 0.031532 5 2 ack 40 ------- 0 0.2.0.0 0.1.0.0 2 5
- 0.031532 5 2 ack 40 ------- 0 0.2.0.0 0.1.0.0 2 5
r 0.033312 3 1 ack 40 ------- 0 0.2.0.0 0.1.0.0 1 4
+ 0.033312 1 4 ack 40 ------- 0 0.2.0.0 0.1.0.0 1 4
- 0.033312 1 4 ack 40 ------- 0 0.2.0.0 0.1.0.0 1 4
r 0.033564 5 2 ack 40 ------- 0 0.2.0.0 0.1.0.0 2 5
h 0.033564 2 3 ack 40 ------- 0 0.2.0.0 0.1.0.0 2 5
r 0.035344 1 4 ack 40 ------- 0 0.2.0.0 0.1.0.0 1 4
+ 0.035344 4 1 tcp 1000 ------- 0 0.1.0.0 0.2.0.0 3 6
- 0.035344 4 1 tcp 1000 ------- 0 0.1.0.0 0.2.0.0 3 6
+ 0.035344 4 1 tcp 1000 ------- 0 0.1.0.0 0.2.0.0 4 7
+ 0.035564 2 3 ack 40 ------- 0 0.2.0.0 0.1.0.0 2 5
- 0.035564 2 3 ack 40 ------- 0 0.2.0.0 0.1.0.0 2 5
d 0.035568 0 3 ack 40 ------- 0 0.2.0.0 0.1.0.0 2 5
- 0.036144 4 1 tcp 1000 ------- 0 0.1.0.0 0.2.0.0 4 7
r 0.037568 3 1 ack 40 ------- 0 0.2.0.0 0.1.0.0 2 5
+ 0.037568 1 4 ack 40 ------- 0 0.2.0.0 0.1.0.0 2 5
- 0.037568 1 4 ack 40 ------- 0 0.2.0.0 0.1.0.0 2 5
r 0.038144 4 1 tcp 1000 ------- 0 0.1.0.0 0.2.0.0 3 6
h 0.038144 1 3 tcp 1000 ------- 0 0.1.0.0 0.2.0.0 3 6
r 0.038944 4 1 tcp 1000 ------- 0 0.1.0.0 0.2.0.0 4 7
h 0.038944 1 3 tcp 1000 ------- 0 0.1.0.0 0.2.0.0 4 7
r 0.0396 1 4 ack 40 ------- 0 0.2.0.0 0.1.0.0 2 5
+ 0.0396 4 1 tcp 1000 ------- 0 0.1.0.0 0.2.0.0 5 8
- 0.0396 4 1 tcp 1000 ------- 0 0.1.0.0 0.2.0.0 5 8
+ 0.0396 4 1 tcp 1000 ------- 0 0.1.0.0 0.2.0.0 6 9
+ 0.040144 1 3 tcp 1000 ------- 0 0.1.0.0 0.2.0.0 3 6
- 0.040144 1 3 tcp 1000 ------- 0 0.1.0.0 0.2.0.0 3 6
d 0.040148 0 3 tcp 1000 ------- 0 0.1.0.0 0.2.0.0 3 6
- 0.0404 4 1 tcp 1000 ------- 0 0.1.0.0 0.2.0.0 6 9
+ 0.040944 1 3 tcp 1000 ------- 0 0.1.0.0 0.2.0.0 4 7
r 0.042148 3 2 tcp 1000 ------- 0 0.1.0.0 0.2.0.0 3 6
+ 0.042148 2 5 tcp 1000 ------- 0 0.1.0.0 0.2.0.0 3 6
- 0.042148 2 5 tcp 1000 ------- 0 0.1.0.0 0.2.0.0 3 6
r 0.0424 4 1 tcp 1000 ------- 0 0.1.0.0 0.2.0.0 5 8
h 0.0424 1 3 tcp 1000 ------- 0 0.1.0.0 0.2.0.0 5 8
r 0.0432 4 1 tcp 1000 ------- 0 0.1.0.0 0.2.0.0 6 9
h 0.0432 1 3 tcp 1000 ------- 0 0.1.0.0 0.2.0.0 6 9
- 0.0444 1 3 tcp 1000 ------- 0 0.1.0.0 0.2.0.0 4 7
+ 0.0444 1 3 tcp 1000 ------- 0 0.1.0.0 0.2.0.0 5 8
d 0.044404 0 3 tcp 1000 ------- 0 0.1.0.0 0.2.0.0 4 7
r 0.044948 2 5 tcp 1000 ------- 0 0.1.0.0 0.2.0.0 3 6
+ 0.044948 5 2 ack 40 ------- 0 0.2.0.0 0.1.0.0 3 10
- 0.044948 5 2 ack 40 ------- 0 0.2.0.0 0.1.0.0 3 10
+ 0.0452 1 3 tcp 1000 ------- 0 0.1.0.0 0.2.0.0 6 9
r 0.046404 3 2 tcp 1000 ------- 0 0.1.0.0 0.2.0.0 4 7
+ 0.046404 2 5 tcp 1000 ------- 0 0.1.0.0 0.2.0.0 4 7
- 0.046404 2 5 tcp 1000 ------- 0 0.1.0.0 0.2.0.0 4 7
r 0.04698 5 2 ack 40 ------- 0 0.2.0.0 0.1.0.0 3 10
h 0.04698 2 3 ack 40 ------- 0 0.2.0.0 0.1.0.0 3 10
- 0.048656 1 3 tcp 1000 ------- 0 0.1.0.0 0.2.0.0 5 8
d 0.04866 0 3 tcp 1000 ------- 0 0.1.0.0 0.2.0.0 5 8
+ 0.04898 2 3 ack 40 ------- 0 0.2.0.0 0.1.0.0 3 10
- 0.04898 2 3 ack 40 ------- 0 0.2.0.0 0.1.0.0 3 10
d 0.048984 0 3 ack 40 ------- 0 0.2.0.0 0.1.0.0 3 10
r 0.049204 2 5 tcp 1000 ------- 0 0.1.0.0 0.2.0.0 4 7
+ 0.049204 5 2 ack 40 ------- 0 0.2.0.0 0.1.0.0 4 11
- 0.049204 5 2 ack 40 ------- 0 0.2.0.0 0.1.0.0 4 11
r 0.05066 3 2 tcp 1000 ------- 0 0.1.0.0 0.2.0.0 5 8
+ 0.05066 2 5 tcp 1000 ------- 0 0.1.0.0 0.2.0.0 5 8
- 0.05066 2 5 tcp 1000 ------- 0 0.1.0.0 0.2.0.0 5 8
r 0.050984 3 1 ack 40 ------- 0 0.2.0.0 0.1.0.0 3 10
+ 0.050984 1 4 ack 40 ------- 0 0.2.0.0 0.1.0.0 3 10
- 0.050984 1 4 ack 40 ------- 0 0.2.0.0 0.1.0.0 3 10
r 0.051236 5 2 ack 40 ------- 0 0.2.0.0 0.1.0.0 4 11
h 0.051236 2 3 ack 40 ------- 0 0.2.0.0 0.1.0.0 4 11
- 0.052912 1 3 tcp 1000 ------- 0 0.1.0.0 0.2.0.0 6 9
d 0.052916 0 3 tcp 1000 ------- 0 0.1.0.0 0.2.0.0 6 9
r 0.053016 1 4 ack 40 ------- 0 0.2.0.0 0.1.0.0 3 10
+ 0.053016 4 1 tcp 1000 ------- 0 0.1.0.0 0.2.0.0 7 12
- 0.053016 4 1 tcp 1000 ------- 0 0.1.0.0 0.2.0.0 7 12
+ 0.053016 4 1 tcp 1000 ------- 0 0.1.0.0 0.2.0.0 8 13
+ 0.053236 2 3 ack 40 ------- 0 0.2.0.0 0.1.0.0 4 11
- 0.053236 2 3 ack 40 ------- 0 0.2.0.0 0.1.0.0 4 11
d 0.05324 0 3 ack 40 ------- 0 0.2.0.0 0.1.0.0 4 11
r 0.05346 2 5 tcp 1000 ------- 0 0.1.0.0 0.2.0.0 5 8
+ 0.05346 5 2 ack 40 ------- 0 0.2.0.0 0.1.0.0 5 14
- 0.05346 5 2 ack 40 ------- 0 0.2.0.0 0.1.0.0 5 14
- 0.053816 4 1 tcp 1000 ------- 0 0.1.0.0 0.2.0.0 8 13
r 0.054916 3 2 tcp 1000 ------- 0 0.1.0.0 0.2.0.0 6 9
+ 0.054916 2 5 tcp 1000 ------- 0 0.1.0.0 0.2.0.0 6 9
- 0.054916 2 5 tcp 1000 ------- 0 0.1.0.0 0.2.0.0 6 9
r 0.05524 3 1 ack 40 ------- 0 0.2.0.0 0.1.0.0 4 11
+ 0.05524 1 4 ack 40 ------- 0 0.2.0.0 0.1.0.0 4 11
- 0.05524 1 4 ack 40 ------- 0 0.2.0.0 0.1.0.0 4 11
r 0.055492 5 2 ack 40 ------- 0 0.2.0.0 0.1.0.0 5 14
h 0.055492 2 3 ack 40 ------- 0 0.2.0.0 0.1.0.0 5 14
r 0.055816 4 1 tcp 1000 ------- 0 0.1.0.0 0.2.0.0 7 12
h 0.055816 1 3 tcp 1000 ------- 0 0.1.0.0 0.2.0.0 7 12
r 0.056616 4 1 tcp 1000 ------- 0 0.1.0.0 0.2.0.0 8 13
h 0.056616 1 3 tcp 1000 ------- 0 0.1.0.0 0.2.0.0 8 13
r 0.057272 1 4 ack 40 ------- 0 0.2.0.0 0.1.0.0 4 11
+ 0.057272 4 1 tcp 1000 ------- 0 0.1.0.0 0.2.0.0 9 15
- 0.057272 4 1 tcp 1000 ------- 0 0.1.0.0 0.2.0.0 9 15
+ 0.057272 4 1 tcp 1000 ------- 0 0.1.0.0 0.2.0.0 10 16
+ 0.057492 2 3 ack 40 ------- 0 0.2.0.0 0.1.0.0 5 14
- 0.057492 2 3 ack 40 ------- 0 0.2.0.0 0.1.0.0 5 14
d 0.057496 0 3 ack 40 ------- 0 0.2.0.0 0.1.0.0 5 14
r 0.057716 2 5 tcp 1000 ------- 0 0.1.0.0 0.2.0.0 6 9
+ 0.057716 5 2 ack 40 ------- 0 0.2.0.0 0.1.0.0 6 17
- 0.057716 5 2 ack 40 ------- 0 0.2.0.0 0.1.0.0 6 17
+ 0.057816 1 3 tcp 1000 ------- 0 0.1.0.0 0.2.0.0 7 12
- 0.057816 1 3 tcp 1000 ------- 0 0.1.0.0 0.2.0.0 7 12
d 0.05782 0 3 tcp 1000 ------- 0 0.1.0.0 0.2.0.0 7 12
- 0.058072 4 1 tcp 1000 ------- 0 0.1.0.0 0.2.0.0 10 16
+ 0.058616 1 3 tcp 1000 ------- 0 0.1.0.0 0.2.0.0 8 13
r 0.059496 3 1 ack 40 ------- 0 0.2.0.0 0.1.0.0 5 14
+ 0.059496 1 4 ack 40 ------- 0 0.2.0.0 0.1.0.0 5 14
- 0.059496 1 4 ack 40 ------- 0 0.2.0.0 0.1.0.0 5 14
r 0.059748 5 2 ack 40 ------- 0 0.2.0.0 0.1.0.0 6 17
h 0.059748 2 3 ack 40 ------- 0 0.2.0.0 0.1.0.0 6 17
r 0.05982 3 2 tcp 1000 ------- 0 0.1.0.0 0.2.0.0 7 12
+ 0.05982 2 5 tcp 1000 ------- 0 0.1.0.0 0.2.0.0 7 12
- 0.05982 2 5 tcp 1000 ------- 0 0.1.0.0 0.2.0.0 7 12
r 0.060072 4 1 tcp 1000 ------- 0 0.1.0.0 0.2.0.0 9 15
h 0.060072 1 3 tcp 1000 ------- 0 0.1.0.0 0.2.0.0 9 15
r 0.060872 4 1 tcp 1000 ------- 0 0.1.0.0 0.2.0.0 10 16
h 0.060872 1 3 tcp 1000 ------- 0 0.1.0.0 0.2.0.0 10 16
r 0.061528 1 4 ack 40 ------- 0 0.2.0.0 0.1.0.0 5 14
+ 0.061528 4 1 tcp 1000 ------- 0 0.1.0.0 0.2.0.0 11 18
- 0.061528 4 1 tcp 1000 ------- 0 0.1.0.0 0.2.0.0 11 18
+ 0.061528 4 1 tcp 1000 ------- 0 0.1.0.0 0.2.0.0 12 19
+ 0.061748 2 3 ack 40 ------- 0 0.2.0.0 0.1.0.0 6 17
- 0.061748 2 3 ack 40 ------- 0 0.2.0.0 0.1.0.0 6 17
d 0.061752 0 3 ack 40 ------- 0 0.2.0.0 0.1.0.0 6 17
- 0.062072 1 3 tcp 1000 ------- 0 0.1.0.0 0.2.0.0 8 13
+ 0.062072 1 3 tcp 1000 ------- 0 0.1.0.0 0.2.0.0 9 15
d 0.062076 0 3 tcp 1000 ------- 0 0.1.0.0 0.2.0.0 8 13
- 0.062328 4 1 tcp 1000 ------- 0 0.1.0.0 0.2.0.0 12 19
r 0.06262 2 5 tcp 1000 ------- 0 0.1.0.0 0.2.0.0 7 12
+ 0.06262 5 2 ack 40 ------- 0 0.2.0.0 0.1.0.0 7 20
- 0.06262 5 2 ack 40 ------- 0 0.2.0.0 0.1.0.0 7 20
+ 0.062872 1 3 tcp 1000 ------- 0 0.1.0.0 0.2.0.0 10 16
r 0.063752 3 1 ack 40 ------- 0 0.2.0.0 0.1.0.0 6 17
+ 0.063752 1 4 ack 40 ------- 0 0.2.0.0 0.1.0.0 6 17
- 0.063752 1 4 ack 40 ------- 0 0.2.0.0 0.1.0.0 6 17
r 0.064076 3 2 tcp 1000 ------- 0 0.1.0.0 0.2.0.0 8 13
+ 0.064076 2 5 tcp 1000 ------- 0 0.1.0.0 0.2.0.0 8 13
- 0.064076 2 5 tcp 1000 ------- 0 0.1.0.0 0.2.0.0 8 13
r 0.064328 4 1 tcp 1000 ------- 0 0.1.0.0 0.2.0.0 11 18
h 0.064328 1 3 tcp 1000 ------- 0 0.1.0.0 0.2.0.0 11 18
r 0.064652 5 2 ack 40 ------- 0 0.2.0.0 0.1.0.0 7 20
h 0.064652 2 3 ack 40 ------- 0 0.2.0.0 0.1.0.0 7 20
r 0.065128 4 1 tcp 1000 ------- 0 0.1.0.0 0.2.0.0 12 19
h 0.065128 1 3 tcp 1000 ------- 0 0.1.0.0 0.2.0.0 12 19
r 0.065784 1 4 ack 40 ------- 0 0.2.0.0 0.1.0.0 6 17
+ 0.065784 4 1 tcp 1000 ------- 0 0.1.0.0 0.2.0.0 13 21
- 0.065784 4 1 tcp 1000 ------- 0 0.1.0.0 0.2.0.0 13 21
+ 0.065784 4 1 tcp 1000 ------- 0 0.1.0.0 0.2.0.0 14 22
- 0.066328 1 3 tcp 1000 ------- 0 0.1.0.0 0.2.0.0 9 15
+ 0.066328 1 3 tcp 1000 ------- 0 0.1.0.0 0.2.0.0 11 18
d 0.066332 0 3 tcp 1000 ------- 0 0.1.0.0 0.2.0.0 9 15
- 0.066584 4 1 tcp 1000 ------- 0 0.1.0.0 0.2.0.0 14 22
+ 0.066652 2 3 ack 40 ------- 0 0.2.0.0 0.1.0.0 7 20
- 0.066652 2 3 ack 40 ------- 0 0.2.0.0 0.1.0.0 7 20
d 0.066656 0 3 ack 40 ------- 0 0.2.0.0 0.1.0.0 7 20
r 0.066876 2 5 tcp 1000 ------- 0 0.1.0.0 0.2.0.0 8 13
+ 0.066876 5 2 ack 40 ------- 0 0.2.0.0 0.1.0.0 8 23
- 0.066876 5 2 ack 40 ------- 0 0.2.0.0 0.1.0.0 8 23
+ 0.067128 1 3 tcp 1000 ------- 0 0.1.0.0 0.2.0.0 12 19
r 0.068332 3 2 tcp 1000 ------- 0 0.1.0.0 0.2.0.0 9 15
+ 0.068332 2 5 tcp 1000 ------- 0 0.1.0.0 0.2.0.0 9 15
- 0.068332 2 5 tcp 1000 ------- 0 0.1.0.0 0.2.0.0 9 15
r 0.068584 4 1 tcp 1000 ------- 0 0.1.0.0 0.2.0.0 13 21
h 0.068584 1 3 tcp 1000 ------- 0 0.1.0.0 0.2.0.0 13 21
r 0.068656 3 1 ack 40 ------- 0 0.2.0.0 0.1.0.0 7 20
+ 0.068656 1 4 ack 40 ------- 0 0.2.0.0 0.1.0.0 7 20
- 0.068656 1 4 ack 40 ------- 0 0.2.0.0 0.1.0.0 7 20
r 0.068908 5 2 ack 40 ------- 0 0.2.0.0 0.1.0.0 8 23
h 0.068908 2 3 ack 40 ------- 0 0.2.0.0 0.1.0.0 8 23
r 0.069384 4 1 tcp 1000 ------- 0 0.1.0.0 0.2.0.0 14 22
h 0.069384 1 3 tcp 1000 ------- 0 0.1.0.0 0.2.0.0 14 22
- 0.070584 1 3 tcp 1000 ------- 0 0.1.0.0 0.2.0.0 10 16
+ 0.070584 1 3 tcp 1000 ------- 0 0.1.0.0 0.2.0.0 13 21
d 0.070588 0 3 tcp 1000 ------- 0 0.1.0.0 0.2.0.0 10 16
r 0.070688 1 4 ack 40 ------- 0 0.2.0.0 0.1.0.0 7 20
+ 0.070688 4 1 tcp 1000 ------- 0 0.1.0.0 0.2.0.0 15 24
- 0.070688 4 1 tcp 1000 ------- 0 0.1.0.0 0.2.0.0 15 24
+ 0.070688 4 1 tcp 1000 ------- 0 0.1.0.0 0.2.0.0 16 25
+ 0.070908 2 3 ack 40 ------- 0 0.2.0.0 0.1.0.0 8 23
- 0.070908 2 3 ack 40 ------- 0 0.2.0.0 0.1.0.0 8 23
d 0.070912 0 3 ack 40 ------- 0 0.2.0.0 0.1.0.0 8 23
r 0.071132 2 5 tcp 1000 ------- 0 0.1.0.0 0.2.0.0 9 15
+ 0.071132 5 2 ack 40 ------- 0 0.2.0.0 0.1.0.0 9 26
- 0.071132 5 2 ack 40 ------- 0 0.2.0.0 0.1.0.0 9 26
+ 0.071384 1 3 tcp 1000 ------- 0 0.1.0.0 0.2.0.0 14 22
- 0.071488 4 1 tcp 1000 ------- 0 0.1.0.0 0.2.0.0 16 25
r 0.072588 3 2 tcp 1000 ------- 0 0.1.0.0 0.2.0.0 10 16
+ 0.072588 2 5 tcp 1000 ------- 0 0.1.0.0 0.2.0.0 10 16
- 0.072588 2 5 tcp 1000 ------- 0 0.1.0.0 0.2.0.0 10 16
r 0.072912 3 1 ack 40 ------- 0 0.2.0.0 0.1.0.0 8 23
+ 0.072912 1 4 ack 40 ------- 0 0.2.0.0 0.1.0.0 8 23
- 0.072912 1 4 ack 40 ------- 0 0.2.0.0 0.1.0.0 8 23
r 0.073164 5 2 ack 40 ------- 0 0.2.0.0 0.1.0.0 9 26
h 0.073164 2 3 ack 40 ------- 0 0.2.0.0 0.1.0.0 9 26
r 0.073488 4 1 tcp 1000 ------- 0 0.1.0.0 0.2.0.0 15 24
h 0.073488 1 3 tcp 1000 ------- 0 0.1.0.0 0.2.0.0 15 24
r 0.074288 4 1 tcp 1000 ------- 0 0.1.0.0 0.2.0.0 16 25
h 0.074288 1 3 tcp 1000 ------- 0 0.1.0.0 0.2.0.0 16 25
- 0.07484 1 3 tcp 1000 ------- 0 0.1.0.0 0.2.0.0 11 18
d 0.074844 0 3 tcp 1000 ------- 0 0.1.0.0 0.2.0.0 11 18
r 0.074944 1 4 ack 40 ------- 0 0.2.0.0 0.1.0.0 8 23
+ 0.074944 4 1 tcp 1000 ------- 0 0.1.0.0 0.2.0.0 17 27
- 0.074944 4 1 tcp 1000 ------- 0 0.1.0.0 0.2.0.0 17 27
+ 0.074944 4 1 tcp 1000 ------- 0 0.1.0.0 0.2.0.0 18 28
+ 0.075164 2 3 ack 40 ------- 0 0.2.0.0 0.1.0.0 9 26
- 0.075164 2 3 ack 40 ------- 0 0.2.0.0 0.1.0.0 9 26
d 0.075168 0 3 ack 40 ------- 0 0.2.0.0 0.1.0.0 9 26
r 0.075388 2 5 tcp 1000 ------- 0 0.1.0.0 0.2.0.0 10 16
+ 0.075388 5 2 ack 40 ------- 0 0.2.0.0 0.1.0.0 10 29
- 0.075388 5 2 ack 40 ------- 0 0.2.0.0 0.1.0.0 10 29
+ 0.075488 1 3 tcp 1000 ------- 0 0.1.0.0 0.2.0.0 15 24
- 0.075744 4 1 tcp 1000 ------- 0 0.1.0.0 0.2.0.0 18 28
+ 0.076288 1 3 tcp 1000 ------- 0 0.1.0.0 0.2.0.0 16 25
r 0.076844 3 2 tcp 1000 ------- 0 0.1.0.0 0.2.0.0 11 18
+ 0.076844 2 5 tcp 1000 ------- 0 0.1.0.0 0.2.0.0 11 18
- 0.076844 2 5 tcp 1000 ------- 0 0.1.0.0 0.2.0.0 11 18
r 0.077168 3 1 ack 40 ------- 0 0.2.0.0 0.1.0.0 9 26
+ 0.077168 1 4 ack 40 ------- 0 0.2.0.0 0.1.0.0 9 26
- 0.077168 1 4 ack 40 ------- 0 0.2.0.0 0.1.0.0 9 26
r 0.07742 5 2 ack 40 ------- 0 0.2.0.0 0.1.0.0 10 29
h 0.07742 2 3 ack 40 ------- 0 0.2.0.0 0.1.0.0 10 29
r 0.077744 4 1 tcp 1000 ------- 0 0.1.0.0 0.2.0.0 17 27
h 0.077744 1 3 tcp 1000 ------- 0 0.1.0.0 0.2.0.0 17 27
r 0.078544 4 1 tcp 1000 ------- 0 0.1.0.0 0.2.0.0 18 28
h 0.078544 1 3 tcp 1000 ------- 0 0.1.0.0 0.2.0.0 18 28
- 0.079096 1 3 tcp 1000 ------- 0 0.1.0.0 0.2.0.0 12 19
d 0.0791 0 3 tcp 1000 ------- 0 0.1.0.0 0.2.0.0 12 19
r 0.0792 1 4 ack 40 ------- 0 0.2.0.0 0.1.0.0 9 26
+ 0.0792 4 1 tcp 1000 ------- 0 0.1.0.0 0.2.0.0 19 30
- 0.0792 4 1 tcp 1000 ------- 0 0.1.0.0 0.2.0.0 19 30
+ 0.0792 4 1 tcp 1000 ------- 0 0.1.0.0 0.2.0.0 20 31
+ 0.07942 2 3 ack 40 ------- 0 0.2.0.0 0.1.0.0 10 29
- 0.07942 2 3 ack 40 ------- 0 0.2.0.0 0.1.0.0 10 29
d 0.079424 0 3 ack 40 ------- 0 0.2.0.0 0.1.0.0 10 29
r 0.079644 2 5 tcp 1000 ------- 0 0.1.0.0 0.2.0.0 11 18
+ 0.079644 5 2 ack 40 ------- 0 0.2.0.0 0.1.0.0 11 32
- 0.079644 5 2 ack 40 ------- 0 0.2.0.0 0.1.0.0 11 32
+ 0.079744 1 3 tcp 1000 ------- 0 0.1.0.0 0.2.0.0 17 27
- 0.08 4 1 tcp 1000 ------- 0 0.1.0.0 0.2.0.0 20 31
+ 0.080544 1 3 tcp 1000 ------- 0 0.1.0.0 0.2.0.0 18 28
r 0.0811 3 2 tcp 1000 ------- 0 0.1.0.0 0.2.0.0 12 19
+ 0.0811 2 5 tcp 1000 ------- 0 0.1.0.0 0.2.0.0 12 19
- 0.0811 2 5 tcp 1000 ------- 0 0.1.0.0 0.2.0.0 12 19
r 0.081424 3 1 ack 40 ------- 0 0.2.0.0 0.1.0.0 10 29
+ 0.081424 1 4 ack 40 ------- 0 0.2.0.0 0.1.0.0 10 29
- 0.081424 1 4 ack 40 ------- 0 0.2.0.0 0.1.0.0 10 29
r 0.081676 5 2 ack 40 ------- 0 0.2.0.0 0.1.0.0 11 32
h 0.081676 2 3 ack 40 ------- 0 0.2.0.0 0.1.0.0 11 32
r 0.082 4 1 tcp 1000 ------- 0 0.1.0.0 0.2.0.0 19 30
h 0.082 1 3 tcp 1000 ------- 0 0.1.0.0 0.2.0.0 19 30
r 0.0828 4 1 tcp 1000 ------- 0 0.1.0.0 0.2.0.0 20 31
h 0.0828 1 3 tcp 1000 ------- 0 0.1.0.0 0.2.0.0 20 31
- 0.083352 1 3 tcp 1000 ------- 0 0.1.0.0 0.2.0.0 13 21
d 0.083356 0 3 tcp 1000 ------- 0 0.1.0.0 0.2.0.0 13 21
r 0.083456 1 4 ack 40 ------- 0 0.2.0.0 0.1.0.0 10 29
+ 0.083456 4 1 tcp 1000 ------- 0 0.1.0.0 0.2.0.0 21 33
- 0.083456 4 1 tcp 1000 ------- 0 0.1.0.0 0.2.0.0 21 33
+ 0.083456 4 1 tcp 1000 ------- 0 0.1.0.0 0.2.0.0 22 34
+ 0.083676 2 3 ack 40 ------- 0 0.2.0.0 0.1.0.0 11 32
- 0.083676 2 3 ack 40 ------- 0 0.2.0.0 0.1.0.0 11 32
d 0.08368 0 3 ack 40 ------- 0 0.2.0.0 0.1.0.0 11 32
r 0.0839 2 5 tcp 1000 ------- 0 0.1.0.0 0.2.0.0 12 19
+ 0.0839 5 2 ack 40 ------- 0 0.2.0.0 0.1.0.0 12 35
- 0.0839 5 2 ack 40 ------- 0 0.2.0.0 0.1.0.0 12 35
+ 0.084 1 3 tcp 1000 ------- 0 0.1.0.0 0.2.0.0 19 30
- 0.084256 4 1 tcp 1000 ------- 0 0.1.0.0 0.2.0.0 22 34
+ 0.0848 1 3 tcp 1000 ------- 0 0.1.0.0 0.2.0.0 20 31
r 0.085356 3 2 tcp 1000 ------- 0 0.1.0.0 0.2.0.0 13 21
+ 0.085356 2 5 tcp 1000 ------- 0 0.1.0.0 0.2.0.0 13 21
- 0.085356 2 5 tcp 1000 ------- 0 0.1.0.0 0.2.0.0 13 21
r 0.08568 3 1 ack 40 ------- 0 0.2.0.0 0.1.0.0 11 32
+ 0.08568 1 4 ack 40 ------- 0 0.2.0.0 0.1.0.0 11 32
- 0.08568 1 4 ack 40 ------- 0 0.2.0.0 0.1.0.0 11 32
r 0.085932 5 2 ack 40 ------- 0 0.2.0.0 0.1.0.0 12 35
h 0.085932 2 3 ack 40 ------- 0 0.2.0.0 0.1.0.0 12 35
r 0.086256 4 1 tcp 1000 ------- 0 0.1.0.0 0.2.0.0 21 33
h 0.086256 1 3 tcp 1000 ------- 0 0.1.0.0 0.2.0.0 21 33
r 0.087056 4 1 tcp 1000 ------- 0 0.1.0.0 0.2.0.0 22 34
h 0.087056 1 3 tcp 1000 ------- 0 0.1.0.0 0.2.0.0 22 34
- 0.087608 1 3 tcp 1000 ------- 0 0.1.0.0 0.2.0.0 14 22
d 0.087612 0 3 tcp 1000 ------- 0 0.1.0.0 0.2.0.0 14 22
r 0.087712 1 4 ack 40 ------- 0 0.2.0.0 0.1.0.0 11 32
+ 0.087712 4 1 tcp 1000 ------- 0 0.1.0.0 0.2.0.0 23 36
- 0.087712 4 1 tcp 1000 ------- 0 0.1.0.0 0.2.0.0 23 36
+ 0.087712 4 1 tcp 1000 ------- 0 0.1.0.0 0.2.0.0 24 37
+ 0.087932 2 3 ack 40 ------- 0 0.2.0.0 0.1.0.0 12 35
- 0.087932 2 3 ack 40 ------- 0 0.2.0.0 0.1.0.0 12 35
d 0.087936 0 3 ack 40 ------- 0 0.2.0.0 0.1.0.0 12 35
r 0.088156 2 5 tcp 1000 ------- 0 0.1.0.0 0.2.0.0 13 21
+ 0.088156 5 2 ack 40 ------- 0 0.2.0.0 0.1.0.0 13 38
- 0.088156 5 2 ack 40 ------- 0 0.2.0.0 0.1.0.0 13 38
+ 0.088256 1 3 tcp 1000 ------- 0 0.1.0.0 0.2.0.0 21 33
- 0.088512 4 1 tcp 1000 ------- 0 0.1.0.0 0.2.0.0 24 37
+ 0.089056 1 3 tcp 1000 ------- 0 0.1.0.0 0.2.0.0 22 34
r 0.089612 3 2 tcp 1000 ------- 0 0.1.0.0 0.2.0.0 14 22
+ 0.089612 2 5 tcp 1000 ------- 0 0.1.0.0 0.2.0.0 14 22
- 0.089612 2 5 tcp 1000 ------- 0 0.1.0.0 0.2.0.0 14 22
r 0.089936 3 1 ack 40 ------- 0 0.2.0.0 0.1.0.0 12 35
+ 0.089936 1 4 ack 40 ------- 0 0.2.0.0 0.1.0.0 12 35
- 0.089936 1 4 ack 40 ------- 0 0.2.0.0 0.1.0.0 12 35
r 0.090188 5 2 ack 40 ------- 0 0.2.0.0 0.1.0.0 13 38
h 0.090188 2 3 ack 40 ------- 0 0.2.0.0 0.1.0.0 13 38
r 0.090512 4 1 tcp 1000 ------- 0 0.1.0.0 0.2.0.0 23 36
h 0.090512 1 3 tcp 1000 ------- 0 0.1.0.0 0.2.0.0 23 36
r 0.091312 4 1 tcp 1000 ------- 0 0.1.0.0 0.2.0.0 24 37
h 0.091312 1 3 tcp 1000 ------- 0 0.1.0.0 0.2.0.0 24 37
- 0.091864 1 3 tcp 1000 ------- 0 0.1.0.0 0.2.0.0 15 24
d 0.091868 0 3 tcp 1000 ------- 0 0.1.0.0 0.2.0.0 15 24
r 0.091968 1 4 ack 40 ------- 0 0.2.0.0 0.1.0.0 12 35
+ 0.091968 4 1 tcp 1000 ------- 0 0.1.0.0 0.2.0.0 25 39
- 0.091968 4 1 tcp 1000 ------- 0 0.1.0.0 0.2.0.0 25 39
+ 0.091968 4 1 tcp 1000 ------- 0 0.1.0.0 0.2.0.0 26 40
+ 0.092188 2 3 ack 40 ------- 0 0.2.0.0 0.1.0.0 13 38
- 0.092188 2 3 ack 40 ------- 0 0.2.0.0 0.1.0.0 13 38
d 0.092192 0 3 ack 40 ------- 0 0.2.0.0 0.1.0.0 13 38
r 0.092412 2 5 tcp 1000 ------- 0 0.1.0.0 0.2.0.0 14 22
+ 0.092412 5 2 ack 40 ------- 0 0.2.0.0 0.1.0.0 14 41
- 0.092412 5 2 ack 40 ------- 0 0.2.0.0 0.1.0.0 14 41
+ 0.092512 1 3 tcp 1000 ------- 0 0.1.0.0 0.2.0.0 23 36
- 0.092768 4 1 tcp 1000 ------- 0 0.1.0.0 0.2.0.0 26 40
+ 0.093312 1 3 tcp 1000 ------- 0 0.1.0.0 0.2.0.0 24 37
r 0.093868 3 2 tcp 1000 ------- 0 0.1.0.0 0.2.0.0 15 24
+ 0.093868 2 5 tcp 1000 ------- 0 0.1.0.0 0.2.0.0 15 24
- 0.093868 2 5 tcp 1000 ------- 0 0.1.0.0 0.2.0.0 15 24
r 0.094192 3 1 ack 40 ------- 0 0.2.0.0 0.1.0.0 13 38
+ 0.094192 1 4 ack 40 ------- 0 0.2.0.0 0.1.0.0 13 38
- 0.094192 1 4 ack 40 ------- 0 0.2.0.0 0.1.0.0 13 38
r 0.094444 5 2 ack 40 ------- 0 0.2.0.0 0.1.0.0 14 41
h 0.094444 2 3 ack 40 ------- 0 0.2.0.0 0.1.0.0 14 41
r 0.094768 4 1 tcp 1000 ------- 0 0.1.0.0 0.2.0.0 25 39
h 0.094768 1 3 tcp 1000 ------- 0 0.1.0.0 0.2.0.0 25 39
r 0.095568 4 1 tcp 1000 ------- 0 0.1.0.0 0.2.0.0 26 40
h 0.095568 1 3 tcp 1000 ------- 0 0.1.0.0 0.2.0.0 26 40
- 0.09612 1 3 tcp 1000 ------- 0 0.1.0.0 0.2.0.0 16 25
d 0.096124 0 3 tcp 1000 ------- 0 0.1.0.0 0.2.0.0 16 25
r 0.096224 1 4 ack 40 ------- 0 0.2.0.0 0.1.0.0 13 38
+ 0.096224 4 1 tcp 1000 ------- 0 0.1.0.0 0.2.0.0 27 42
- 0.096224 4 1 tcp 1000 ------- 0 0.1.0.0 0.2.0.0 27 42
+ 0.096224 4 1 tcp 1000 ------- 0 0.1.0.0 0.2.0.0 28 43
+ 0.096444 2 3 ack 40 ------- 0 0.2.0.0 0.1.0.0 14 41
- 0.096444 2 3 ack 40 ------- 0 0.2.0.0 0.1.0.0 14 41
d 0.096448 0 3 ack 40 ------- 0 0.2.0.0 0.1.0.0 14 41
r 0.096668 2 5 tcp 1000 ------- 0 0.1.0.0 0.2.0.0 15 24
+ 0.096668 5 2 ack 40 ------- 0 0.2.0.0 0.1.0.0 15 44
- 0.096668 5 2 ack 40 ------- 0 0.2.0.0 0.1.0.0 15 44
+ 0.096768 1 3 tcp 1000 ------- 0 0.1.0.0 0.2.0.0 25 39
- 0.097024 4 1 tcp 1000 ------- 0 0.1.0.0 0.2.0.0 28 43
+ 0.097568 1 3 tcp 1000 ------- 0 0.1.0.0 0.2.0.0 26 40
r 0.098124 3 2 tcp 1000 ------- 0 0.1.0.0 0.2.0.0 16 25
+ 0.098124 2 5 tcp 1000 ------- 0 0.1.0.0 0.2.0.0 16 25
- 0.098124 2 5 tcp 1000 ------- 0 0.1.0.0 0.2.0.0 16 25
r 0.098448 3 1 ack 40 ------- 0 0.2.0.0 0.1.0.0 14 41
+ 0.098448 1 4 ack 40 ------- 0 0.2.0.0 0.1.0.0 14 41
- 0.098448 1 4 ack 40 ------- 0 0.2.0.0 0.1.0.0 14 41
r 0.0987 5 2 ack 40 ------- 0 0.2.0.0 0.1.0.0 15 44
h 0.0987 2 3 ack 40 ------- 0 0.2.0.0 0.1.0.0 15 44
r 0.099024 4 1 tcp 1000 ------- 0 0.1.0.0 0.2.0.0 27 42
h 0.099024 1 3 tcp 1000 ------- 0 0.1.0.0 0.2.0.0 27 42
r 0.099824 4 1 tcp 1000 ------- 0 0.1.0.0 0.2.0.0 28 43
h 0.099824 1 3 tcp 1000 ------- 0 0.1.0.0 0.2.0.0 28 43
- 0.100376 1 3 tcp 1000 ------- 0 0.1.0.0 0.2.0.0 17 27
d 0.10038 0 3 tcp 1000 ------- 0 0.1.0.0 0.2.0.0 17 27
r 0.10048 1 4 ack 40 ------- 0 0.2.0.0 0.1.0.0 14 41
+ 0.10048 4 1 tcp 1000 ------- 0 0.1.0.0 0.2.0.0 29 45
- 0.10048 4 1 tcp 1000 ------- 0 0.1.0.0 0.2.0.0 29 45
+ 0.1007 2 3 ack 40 ------- 0 0.2.0.0 0.1.0.0 15 44
- 0.1007 2 3 ack 40 ------- 0 0.2.0.0 0.1.0.0 15 44
d 0.100704 0 3 ack 40 ------- 0 0.2.0.0 0.1.0.0 15 44
r 0.100924 2 5 tcp 1000 ------- 0 0.1.0.0 0.2.0.0 16 25
+ 0.100924 5 2 ack 40 ------- 0 0.2.0.0 0.1.0.0 16 46
- 0.100924 5 2 ack 40 ------- 0 0.2.0.0 0.1.0.0 16 46
+ 0.101024 1 3 tcp 1000 ------- 0 0.1.0.0 0.2.0.0 27 42
+ 0.101824 1 3 tcp 1000 ------- 0 0.1.0.0 0.2.0.0 28 43
r 0.10238 3 2 tcp 1000 ------- 0 0.1.0.0 0.2.0.0 17 27
+ 0.10238 2 5 tcp 1000 ------- 0 0.1.0.0 0.2.0.0 17 27
- 0.10238 2 5 tcp 1000 ------- 0 0.1.0.0 0.2.0.0 17 27
r 0.102704 3 1 ack 40 ------- 0 0.2.0.0 0.1.0.0 15 44
+ 0.102704 1 4 ack 40 ------- 0 0.2.0.0 0.1.0.0 15 44
- 0.102704 1 4 ack 40 ------- 0 0.2.0.0 0.1.0.0 15 44
r 0.102956 5 2 ack 40 ------- 0 0.2.0.0 0.1.0.0 16 46
h 0.102956 2 3 ack 40 ------- 0 0.2.0.0 0.1.0.0 16 46
r 0.10328 4 1 tcp 1000 ------- 0 0.1.0.0 0.2.0.0 29 45
h 0.10328 1 3 tcp 1000 ------- 0 0.1.0.0 0.2.0.0 29 45
- 0.104632 1 3 tcp 1000 ------- 0 0.1.0.0 0.2.0.0 18 28
d 0.104636 0 3 tcp 1000 ------- 0 0.1.0.0 0.2.0.0 18 28
r 0.104736 1 4 ack 40 ------- 0 0.2.0.0 0.1.0.0 15 44
+ 0.104736 4 1 tcp 1000 ------- 0 0.1.0.0 0.2.0.0 30 47
- 0.104736 4 1 tcp 1000 ------- 0 0.1.0.0 0.2.0.0 30 47
+ 0.104956 2 3 ack 40 ------- 0 0.2.0.0 0.1.0.0 16 46
- 0.104956 2 3 ack 40 ------- 0 0.2.0.0 0.1.0.0 16 46
d 0.10496 0 3 ack 40 ------- 0 0.2.0.0 0.1.0.0 16 46
r 0.10518 2 5 tcp 1000 ------- 0 0.1.0.0 0.2.0.0 17 27
+ 0.10518 5 2 ack 40 ------- 0 0.2.0.0 0.1.0.0 17 48
- 0.10518 5 2 ack 40 ------- 0 0.2.0.0 0.1.0.0 17 48
+ 0.10528 1 3 tcp 1000 ------- 0 0.1.0.0 0.2.0.0 29 45
r 0.106636 3 2 tcp 1000 ------- 0 0.1.0.0 0.2.0.0 18 28
+ 0.106636 2 5 tcp 1000 ------- 0 0.1.0.0 0.2.0.0 18 28
- 0.106636 2 5 tcp 1000 ------- 0 0.1.0.0 0.2.0.0 18 28
r 0.10696 3 1 ack 40 ------- 0 0.2.0.0 0.1.0.0 16 46
+ 0.10696 1 4 ack 40 ------- 0 0.2.0.0 0.1.0.0 16 46
- 0.10696 1 4 ack 40 ------- 0 0.2.0.0 0.1.0.0 16 46
r 0.107212 5 2 ack 40 ------- 0 0.2.0.0 0.1.0.0 17 48
h 0.107212 2 3 ack 40 ------- 0 0.2.0.0 0.1.0.0 17 48
r 0.107536 4 1 tcp 1000 ------- 0 0.1.0.0 0.2.0.0 30 47
h 0.107536 1 3 tcp 1000 ------- 0 0.1.0.0 0.2.0.0 30 47
- 0.108888 1 3 tcp 1000 ------- 0 0.1.0.0 0.2.0.0 19 30
d 0.108892 0 3 tcp 1000 ------- 0 0.1.0.0 0.2.0.0 19 30
r 0.108992 1 4 ack 40 ------- 0 0.2.0.0 0.1.0.0 16 46
+ 0.108992 4 1 tcp 1000 ------- 0 0.1.0.0 0.2.0.0 31 49
- 0.108992 4 1 tcp 1000 ------- 0 0.1.0.0 0.2.0.0 31 49
+ 0.109212 2 3 ack 40 ------- 0 0.2.0.0 0.1.0.0 17 48
- 0.109212 2 3 ack 40 ------- 0 0.2.0.0 0.1.0.0 17 48
d 0.109216 0 3 ack 40 ------- 0 0.2.0.0 0.1.0.0 17 48
r 0.109436 2 5 tcp 1000 ------- 0 0.1.0.0 0.2.0.0 18 28
+ 0.109436 5 2 ack 40 ------- 0 0.2.0.0 0.1.0.0 18 50
- 0.109436 5 2 ack 40 ------- 0 0.2.0.0 0.1.0.0 18 50
+ 0.109536 1 3 tcp 1000 ------- 0 0.1.0.0 0.2.0.0 30 47
r 0.110892 3 2 tcp 1000 ------- 0 0.1.0.0 0.2.0.0 19 30
+ 0.110892 2 5 tcp 1000 ------- 0 0.1.0.0 0.2.0.0 19 30
- 0.110892 2 5 tcp 1000 ------- 0 0.1.0.0 0.2.0.0 19 30
r 0.111216 3 1 ack 40 ------- 0 0.2.0.0 0.1.0.0 17 48
+ 0.111216 1 4 ack 40 ------- 0 0.2.0.0 0.1.0.0 17 48
- 0.111216 1 4 ack 40 ------- 0 0.2.0.0 0.1.0.0 17 48
r 0.111468 5 2 ack 40 ------- 0 0.2.0.0 0.1.0.0 18 50
h 0.111468 2 3 ack 40 ------- 0 0.2.0.0 0.1.0.0 18 50
r 0.111792 4 1 tcp 1000 ------- 0 0.1.0.0 0.2.0.0 31 49
h 0.111792 1 3 tcp 1000 ------- 0 0.1.0.0 0.2.0.0 31 49
- 0.113144 1 3 tcp 1000 ------- 0 0.1.0.0 0.2.0.0 20 31
d 0.113148 0 3 tcp 1000 ------- 0 0.1.0.0 0.2.0.0 20 31
r 0.113248 1 4 ack 40 ------- 0 0.2.0.0 0.1.0.0 17 48
+ 0.113248 4 1 tcp 1000 ------- 0 0.1.0.0 0.2.0.0 32 51
- 0.113248 4 1 tcp 1000 ------- 0 0.1.0.0 0.2.0.0 32 51
+ 0.113468 2 3 ack 40 ------- 0 0.2.0.0 0.1.0.0 18 50
- 0.113468 2 3 ack 40 ------- 0 0.2.0.0 0.1.0.0 18 50
d 0.113472 0 3 ack 40 ------- 0 0.2.0.0 0.1.0.0 18 50
r 0.113692 2 5 tcp 1000 ------- 0 0.1.0.0 0.2.0.0 19 30
+ 0.113692 5 2 ack 40 ------- 0 0.2.0.0 0.1.0.0 19 52
- 0.113692 5 2 ack 40 ------- 0 0.2.0.0 0.1.0.0 19 52
+ 0.113792 1 3 tcp 1000 ------- 0 0.1.0.0 0.2.0.0 31 49
r 0.115148 3 2 tcp 1000 ------- 0 0.1.0.0 0.2.0.0 20 31
+ 0.115148 2 5 tcp 1000 ------- 0 0.1.0.0 0.2.0.0 20 31
- 0.115148 2 5 tcp 1000 ------- 0 0.1.0.0 0.2.0.0 20 31
r 0.115472 3 1 ack 40 ------- 0 0.2.0.0 0.1.0.0 18 50
+ 0.115472 1 4 ack 40 ------- 0 0.2.0.0 0.1.0.0 18 50
- 0.115472 1 4 ack 40 ------- 0 0.2.0.0 0.1.0.0 18 50
r 0.115724 5 2 ack 40 ------- 0 0.2.0.0 0.1.0.0 19 52
h 0.115724 2 3 ack 40 ------- 0 0.2.0.0 0.1.0.0 19 52
r 0.116048 4 1 tcp 1000 ------- 0 0.1.0.0 0.2.0.0 32 51
h 0.116048 1 3 tcp 1000 ------- 0 0.1.0.0 0.2.0.0 32 51
- 0.1174 1 3 tcp 1000 ------- 0 0.1.0.0 0.2.0.0 21 33
d 0.117404 0 3 tcp 1000 ------- 0 0.1.0.0 0.2.0.0 21 33
r 0.117504 1 4 ack 40 ------- 0 0.2.0.0 0.1.0.0 18 50
+ 0.117504 4 1 tcp 1000 ------- 0 0.1.0.0 0.2.0.0 33 53
- 0.117504 4 1 tcp 1000 ------- 0 0.1.0.0 0.2.0.0 33 53
+ 0.117724 2 3 ack 40 ------- 0 0.2.0.0 0.1.0.0 19 52
- 0.117724 2 3 ack 40 ------- 0 0.2.0.0 0.1.0.0 19 52
d 0.117728 0 3 ack 40 ------- 0 0.2.0.0 0.1.0.0 19 52
r 0.117948 2 5 tcp 1000 ------- 0 0.1.0.0 0.2.0.0 20 31
+ 0.117948 5 2 ack 40 ------- 0 0.2.0.0 0.1.0.0 20 54
- 0.117948 5 2 ack 40 ------- 0 0.2.0.0 0.1.0.0 20 54
+ 0.118048 1 3 tcp 1000 ------- 0 0.1.0.0 0.2.0.0 32 51
r 0.119404 3 2 tcp 1000 ------- 0 0.1.0.0 0.2.0.0 21 33
+ 0.119404 2 5 tcp 1000 ------- 0 0.1.0.0 0.2.0.0 21 33
- 0.119404 2 5 tcp 1000 ------- 0 0.1.0.0 0.2.0.0 21 33
r 0.119728 3 1 ack 40 ------- 0 0.2.0.0 0.1.0.0 19 52
+ 0.119728 1 4 ack 40 ------- 0 0.2.0.0 0.1.0.0 19 52
- 0.119728 1 4 ack 40 ------- 0 0.2.0.0 0.1.0.0 19 52
r 0.11998 5 2 ack 40 ------- 0 0.2.0.0 0.1.0.0 20 54
h 0.11998 2 3 ack 40 ------- 0 0.2.0.0 0.1.0.0 20 54
r 0.120304 4 1 tcp 1000 ------- 0 0.1.0.0 0.2.0.0 33 53
h 0.120304 1 3 tcp 1000 ------- 0 0.1.0.0 0.2.0.0 33 53
- 0.121656 1 3 tcp 1000 ------- 0 0.1.0.0 0.2.0.0 22 34
d 0.12166 0 3 tcp 1000 ------- 0 0.1.0.0 0.2.0.0 22 34
r 0.12176 1 4 ack 40 ------- 0 0.2.0.0 0.1.0.0 19 52
+ 0.12176 4 1 tcp 1000 ------- 0 0.1.0.0 0.2.0.0 34 55
- 0.12176 4 1 tcp 1000 ------- 0 0.1.0.0 0.2.0.0 34 55
+ 0.12198 2 3 ack 40 ------- 0 0.2.0.0 0.1.0.0 20 54
- 0.12198 2 3 ack 40 ------- 0 0.2.0.0 0.1.0.0 20 54
d 0.121984 0 3 ack 40 ------- 0 0.2.0.0 0.1.0.0 20 54
r 0.122204 2 5 tcp 1000 ------- 0 0.1.0.0 0.2.0.0 21 33
+ 0.122204 5 2 ack 40 ------- 0 0.2.0.0 0.1.0.0 21 56
- 0.122204 5 2 ack 40 ------- 0 0.2.0.0 0.1.0.0 21 56
+ 0.122304 1 3 tcp 1000 ------- 0 0.1.0.0 0.2.0.0 33 53
r 0.12366 3 2 tcp 1000 ------- 0 0.1.0.0 0.2.0.0 22 34
+ 0.12366 2 5 tcp 1000 ------- 0 0.1.0.0 0.2.0.0 22 34
- 0.12366 2 5 tcp 1000 ------- 0 0.1.0.0 0.2.0.0 22 34
r 0.123984 3 1 ack 40 ------- 0 0.2.0.0 0.1.0.0 20 54
+ 0.123984 1 4 ack 40 ------- 0 0.2.0.0 0.1.0.0 20 54
- 0.123984 1 4 ack 40 ------- 0 0.2.0.0 0.1.0.0 20 54
r 0.124236 5 2 ack 40 ------- 0 0.2.0.0 0.1.0.0 21 56
h 0.124236 2 3 ack 40 ------- 0 0.2.0.0 0.1.0.0 21 56
r 0.12456 4 1 tcp 1000 ------- 0 0.1.0.0 0.2.0.0 34 55
h 0.12456 1 3 tcp 1000 ------- 0 0.1.0.0 0.2.0.0 34 55
- 0.125912 1 3 tcp 1000 ------- 0 0.1.0.0 0.2.0.0 23 36
d 0.125916 0 3 tcp 1000 ------- 0 0.1.0.0 0.2.0.0 23 36
r 0.126016 1 4 ack 40 ------- 0 0.2.0.0 0.1.0.0 20 54
+ 0.126016 4 1 tcp 1000 ------- 0 0.1.0.0 0.2.0.0 35 57
- 0.126016 4 1 tcp 1000 ------- 0 0.1.0.0 0.2.0.0 35 57
+ 0.126236 2 3 ack 40 ------- 0 0.2.0.0 0.1.0.0 21 56
- 0.126236 2 3 ack 40 ------- 0 0.2.0.0 0.1.0.0 21 56
d 0.12624 0 3 ack 40 ------- 0 0.2.0.0 0.1.0.0 21 56