V -t * -v 1.0a5 -a 0
A -t * -n 1 -p 0 -o 0x7fffffff -c 30 -a 1
A -t * -h 1 -m 1073741823 -s 0
n -t * -a 4 -s 4 -S UP -v circle -c black -i black
n -t * -a 0 -s 0 -S UP -v circle -c black -i black
n -t * -a 5 -s 5 -S UP -v circle -c black -i black
n -t * -a 1 -s 1 -S UP -v circle -c black -i black
n -t * -a 2 -s 2 -S UP -v circle -c black -i black
n -t * -a 3 -s 3 -S UP -v circle -c black -i black
l -t * -s 0 -d 2 -S UP -r 1000000 -D 0.02 -c black -o right-down
l -t * -s 1 -d 2 -S UP -r 1000000 -D 0.02 -c black -o right-up
l -t * -s 2 -d 3 -S UP -r 500000 -D 0.02 -c black -o right
l -t * -s 3 -d 4 -S UP -r 1000000 -D 0.02 -c black -o right-up
l -t * -s 3 -d 5 -S UP -r 1000000 -D 0.02 -c black -o right-down
q -t * -s 3 -d 2 -a 0.5
q -t * -s 2 -d 3 -a 0.5
+ -t 0.1 -s 1 -d 2 -p cbr -e 500 -c 0 -i 0 -a 0 -x {1.0 5.0 0 ------- null}
- -t 0.1 -s 1 -d 2 -p cbr -e 500 -c 0 -i 0 -a 0 -x {1.0 5.0 0 ------- null}
h -t 0.1 -s 1 -d 2 -p cbr -e 500 -c 0 -i 0 -a 0 -x {1.0 5.0 -1 ------- null}
+ -t 0.11 -s 1 -d 2 -p cbr -e 500 -c 0 -i 1 -a 0 -x {1.0 5.0 1 ------- null}
- -t 0.11 -s 1 -d 2 -p cbr -e 500 -c 0 -i 1 -a 0 -x {1.0 5.0 1 ------- null}
h -t 0.11 -s 1 -d 2 -p cbr -e 500 -c 0 -i 1 -a 0 -x {1.0 5.0 -1 ------- null}
+ -t 0.12 -s 1 -d 2 -p cbr -e 500 -c 0 -i 2 -a 0 -x {1.0 5.0 2 ------- null}
- -t 0.12 -s 1 -d 2 -p cbr -e 500 -c 0 -i 2 -a 0 -x {1.0 5.0 2 ------- null}
h -t 0.12 -s 1 -d 2 -p cbr -e 500 -c 0 -i 2 -a 0 -x {1.0 5.0 -1 ------- null}
r -t 0.124 -s 1 -d 2 -p cbr -e 500 -c 0 -i 0 -a 0 -x {1.0 5.0 0 ------- null}
+ -t 0.124 -s 2 -d 3 -p cbr -e 500 -c 0 -i 0 -a 0 -x {1.0 5.0 0 ------- null}
- -t 0.124 -s 2 -d 3 -p cbr -e 500 -c 0 -i 0 -a 0 -x {1.0 5.0 0 ------- null}
h -t 0.124 -s 2 -d 3 -p cbr -e 500 -c 0 -i 0 -a 0 -x {1.0 5.0 -1 ------- null}
+ -t 0.13 -s 1 -d 2 -p cbr -e 500 -c 0 -i 3 -a 0 -x {1.0 5.0 3 ------- null}
- -t 0.13 -s 1 -d 2 -p cbr -e 500 -c 0 -i 3 -a 0 -x {1.0 5.0 3 ------- null}
h -t 0.13 -s 1 -d 2 -p cbr -e 500 -c 0 -i 3 -a 0 -x {1.0 5.0 -1 ------- null}
r -t 0.134 -s 1 -d 2 -p cbr -e 500 -c 0 -i 1 -a 0 -x {1.0 5.0 1 ------- null}
+ -t 0.134 -s 2 -d 3 -p cbr -e 500 -c 0 -i 1 -a 0 -x {1.0 5.0 1 ------- null}
- -t 0.134 -s 2 -d 3 -p cbr -e 500 -c 0 -i 1 -a 0 -x {1.0 5.0 1 ------- null}
h -t 0.134 -s 2 -d 3 -p cbr -e 500 -c 0 -i 1 -a 0 -x {1.0 5.0 -1 ------- null}
+ -t 0.14 -s 1 -d 2 -p cbr -e 500 -c 0 -i 4 -a 0 -x {1.0 5.0 4 ------- null}
- -t 0.14 -s 1 -d 2 -p cbr -e 500 -c 0 -i 4 -a 0 -x {1.0 5.0 4 ------- null}
h -t 0.14 -s 1 -d 2 -p cbr -e 500 -c 0 -i 4 -a 0 -x {1.0 5.0 -1 ------- null}
r -t 0.144 -s 1 -d 2 -p cbr -e 500 -c 0 -i 2 -a 0 -x {1.0 5.0 2 ------- null}
+ -t 0.144 -s 2 -d 3 -p cbr -e 500 -c 0 -i 2 -a 0 -x {1.0 5.0 2 ------- null}
- -t 0.144 -s 2 -d 3 -p cbr -e 500 -c 0 -i 2 -a 0 -x {1.0 5.0 2 ------- null}
h -t 0.144 -s 2 -d 3 -p cbr -e 500 -c 0 -i 2 -a 0 -x {1.0 5.0 -1 ------- null}
+ -t 0.15 -s 1 -d 2 -p cbr -e 500 -c 0 -i 5 -a 0 -x {1.0 5.0 5 ------- null}
- -t 0.15 -s 1 -d 2 -p cbr -e 500 -c 0 -i 5 -a 0 -x {1.0 5.0 5 ------- null}
h -t 0.15 -s 1 -d 2 -p cbr -e 500 -c 0 -i 5 -a 0 -x {1.0 5.0 -1 ------- null}
r -t 0.152 -s 2 -d 3 -p cbr -e 500 -c 0 -i 0 -a 0 -x {1.0 5.0 0 ------- null}
+ -t 0.152 -s 3 -d 5 -p cbr -e 500 -c 0 -i 0 -a 0 -x {1.0 5.0 0 ------- null}
- -t 0.152 -s 3 -d 5 -p cbr -e 500 -c 0 -i 0 -a 0 -x {1.0 5.0 0 ------- null}
h -t 0.152 -s 3 -d 5 -p cbr -e 500 -c 0 -i 0 -a 0 -x {1.0 5.0 -1 ------- null}
r -t 0.154 -s 1 -d 2 -p cbr -e 500 -c 0 -i 3 -a 0 -x {1.0 5.0 3 ------- null}
+ -t 0.154 -s 2 -d 3 -p cbr -e 500 -c 0 -i 3 -a 0 -x {1.0 5.0 3 ------- null}
- -t 0.154 -s 2 -d 3 -p cbr -e 500 -c 0 -i 3 -a 0 -x {1.0 5.0 3 ------- null}
h -t 0.154 -s 2 -d 3 -p cbr -e 500 -c 0 -i 3 -a 0 -x {1.0 5.0 -1 ------- null}
+ -t 0.16 -s 1 -d 2 -p cbr -e 500 -c 0 -i 6 -a 0 -x {1.0 5.0 6 ------- null}
- -t 0.16 -s 1 -d 2 -p cbr -e 500 -c 0 -i 6 -a 0 -x {1.0 5.0 6 ------- null}
h -t 0.16 -s 1 -d 2 -p cbr -e 500 -c 0 -i 6 -a 0 -x {1.0 5.0 -1 ------- null}
r -t 0.162 -s 2 -d 3 -p cbr -e 500 -c 0 -i 1 -a 0 -x {1.0 5.0 1 ------- null}
+ -t 0.162 -s 3 -d 5 -p cbr -e 500 -c 0 -i 1 -a 0 -x {1.0 5.0 1 ------- null}
- -t 0.162 -s 3 -d 5 -p cbr -e 500 -c 0 -i 1 -a 0 -x {1.0 5.0 1 ------- null}
h -t 0.162 -s 3 -d 5 -p cbr -e 500 -c 0 -i 1 -a 0 -x {1.0 5.0 -1 ------- null}
r -t 0.164 -s 1 -d 2 -p cbr -e 500 -c 0 -i 4 -a 0 -x {1.0 5.0 4 ------- null}
+ -t 0.164 -s 2 -d 3 -p cbr -e 500 -c 0 -i 4 -a 0 -x {1.0 5.0 4 ------- null}
- -t 0.164 -s 2 -d 3 -p cbr -e 500 -c 0 -i 4 -a 0 -x {1.0 5.0 4 ------- null}
h -t 0.164 -s 2 -d 3 -p cbr -e 500 -c 0 -i 4 -a 0 -x {1.0 5.0 -1 ------- null}
+ -t 0.17 -s 1 -d 2 -p cbr -e 500 -c 0 -i 7 -a 0 -x {1.0 5.0 7 ------- null}
- -t 0.17 -s 1 -d 2 -p cbr -e 500 -c 0 -i 7 -a 0 -x {1.0 5.0 7 ------- null}
h -t 0.17 -s 1 -d 2 -p cbr -e 500 -c 0 -i 7 -a 0 -x {1.0 5.0 -1 ------- null}
r -t 0.172 -s 2 -d 3 -p cbr -e 500 -c 0 -i 2 -a 0 -x {1.0 5.0 2 ------- null}
+ -t 0.172 -s 3 -d 5 -p cbr -e 500 -c 0 -i 2 -a 0 -x {1.0 5.0 2 ------- null}
- -t 0.172 -s 3 -d 5 -p cbr -e 500 -c 0 -i 2 -a 0 -x {1.0 5.0 2 ------- null}
h -t 0.172 -s 3 -d 5 -p cbr -e 500 -c 0 -i 2 -a 0 -x {1.0 5.0 -1 ------- null}
r -t 0.174 -s 1 -d 2 -p cbr -e 500 -c 0 -i 5 -a 0 -x {1.0 5.0 5 ------- null}
+ -t 0.174 -s 2 -d 3 -p cbr -e 500 -c 0 -i 5 -a 0 -x {1.0 5.0 5 ------- null}
- -t 0.174 -s 2 -d 3 -p cbr -e 500 -c 0 -i 5 -a 0 -x {1.0 5.0 5 ------- null}
h -t 0.174 -s 2 -d 3 -p cbr -e 500 -c 0 -i 5 -a 0 -x {1.0 5.0 -1 ------- null}
r -t 0.176 -s 3 -d 5 -p cbr -e 500 -c 0 -i 0 -a 0 -x {1.0 5.0 0 ------- null}
+ -t 0.18 -s 1 -d 2 -p cbr -e 500 -c 0 -i 8 -a 0 -x {1.0 5.0 8 ------- null}
- -t 0.18 -s 1 -d 2 -p cbr -e 500 -c 0 -i 8 -a 0 -x {1.0 5.0 8 ------- null}
h -t 0.18 -s 1 -d 2 -p cbr -e 500 -c 0 -i 8 -a 0 -x {1.0 5.0 -1 ------- null}
r -t 0.182 -s 2 -d 3 -p cbr -e 500 -c 0 -i 3 -a 0 -x {1.0 5.0 3 ------- null}
+ -t 0.182 -s 3 -d 5 -p cbr -e 500 -c 0 -i 3 -a 0 -x {1.0 5.0 3 ------- null}
- -t 0.182 -s 3 -d 5 -p cbr -e 500 -c 0 -i 3 -a 0 -x {1.0 5.0 3 ------- null}
h -t 0.182 -s 3 -d 5 -p cbr -e 500 -c 0 -i 3 -a 0 -x {1.0 5.0 -1 ------- null}
r -t 0.184 -s 1 -d 2 -p cbr -e 500 -c 0 -i 6 -a 0 -x {1.0 5.0 6 ------- null}
+ -t 0.184 -s 2 -d 3 -p cbr -e 500 -c 0 -i 6 -a 0 -x {1.0 5.0 6 ------- null}
- -t 0.184 -s 2 -d 3 -p cbr -e 500 -c 0 -i 6 -a 0 -x {1.0 5.0 6 ------- null}
h -t 0.184 -s 2 -d 3 -p cbr -e 500 -c 0 -i 6 -a 0 -x {1.0 5.0 -1 ------- null}
r -t 0.186 -s 3 -d 5 -p cbr -e 500 -c 0 -i 1 -a 0 -x {1.0 5.0 1 ------- null}
+ -t 0.19 -s 1 -d 2 -p cbr -e 500 -c 0 -i 9 -a 0 -x {1.0 5.0 9 ------- null}
- -t 0.19 -s 1 -d 2 -p cbr -e 500 -c 0 -i 9 -a 0 -x {1.0 5.0 9 ------- null}
h -t 0.19 -s 1 -d 2 -p cbr -e 500 -c 0 -i 9 -a 0 -x {1.0 5.0 -1 ------- null}
r -t 0.192 -s 2 -d 3 -p cbr -e 500 -c 0 -i 4 -a 0 -x {1.0 5.0 4 ------- null}
+ -t 0.192 -s 3 -d 5 -p cbr -e 500 -c 0 -i 4 -a 0 -x {1.0 5.0 4 ------- null}
- -t 0.192 -s 3 -d 5 -p cbr -e 500 -c 0 -i 4 -a 0 -x {1.0 5.0 4 ------- null}
h -t 0.192 -s 3 -d 5 -p cbr -e 500 -c 0 -i 4 -a 0 -x {1.0 5.0 -1 ------- null}
r -t 0.194 -s 1 -d 2 -p cbr -e 500 -c 0 -i 7 -a 0 -x {1.0 5.0 7 ------- null}
+ -t 0.194 -s 2 -d 3 -p cbr -e 500 -c 0 -i 7 -a 0 -x {1.0 5.0 7 ------- null}
- -t 0.194 -s 2 -d 3 -p cbr -e 500 -c 0 -i 7 -a 0 -x {1.0 5.0 7 ------- null}
h -t 0.194 -s 2 -d 3 -p cbr -e 500 -c 0 -i 7 -a 0 -x {1.0 5.0 -1 ------- null}
r -t 0.196 -s 3 -d 5 -p cbr -e 500 -c 0 -i 2 -a 0 -x {1.0 5.0 2 ------- null}
+ -t 0.2 -s 0 -d 2 -p tcp -e 1000 -c 0 -i 10 -a 0 -x {0.0 4.0 0 ------- null}
- -t 0.2 -s 0 -d 2 -p tcp -e 1000 -c 0 -i 10 -a 0 -x {0.0 4.0 0 ------- null}
h -t 0.2 -s 0 -d 2 -p tcp -e 1000 -c 0 -i 10 -a 0 -x {0.0 4.0 -1 ------- null}
+ -t 0.2 -s 1 -d 2 -p cbr -e 500 -c 0 -i 11 -a 0 -x {1.0 5.0 10 ------- null}
- -t 0.2 -s 1 -d 2 -p cbr -e 500 -c 0 -i 11 -a 0 -x {1.0 5.0 10 ------- null}
h -t 0.2 -s 1 -d 2 -p cbr -e 500 -c 0 -i 11 -a 0 -x {1.0 5.0 -1 ------- null}
r -t 0.202 -s 2 -d 3 -p cbr -e 500 -c 0 -i 5 -a 0 -x {1.0 5.0 5 ------- null}
+ -t 0.202 -s 3 -d 5 -p cbr -e 500 -c 0 -i 5 -a 0 -x {1.0 5.0 5 ------- null}
- -t 0.202 -s 3 -d 5 -p cbr -e 500 -c 0 -i 5 -a 0 -x {1.0 5.0 5 ------- null}
h -t 0.202 -s 3 -d 5 -p cbr -e 500 -c 0 -i 5 -a 0 -x {1.0 5.0 -1 ------- null}
r -t 0.204 -s 1 -d 2 -p cbr -e 500 -c 0 -i 8 -a 0 -x {1.0 5.0 8 ------- null}
+ -t 0.204 -s 2 -d 3 -p cbr -e 500 -c 0 -i 8 -a 0 -x {1.0 5.0 8 ------- null}
- -t 0.204 -s 2 -d 3 -p cbr -e 500 -c 0 -i 8 -a 0 -x {1.0 5.0 8 ------- null}
h -t 0.204 -s 2 -d 3 -p cbr -e 500 -c 0 -i 8 -a 0 -x {1.0 5.0 -1 ------- null}
r -t 0.206 -s 3 -d 5 -p cbr -e 500 -c 0 -i 3 -a 0 -x {1.0 5.0 3 ------- null}
+ -t 0.21 -s 1 -d 2 -p cbr -e 500 -c 0 -i 12 -a 0 -x {1.0 5.0 11 ------- null}
- -t 0.21 -s 1 -d 2 -p cbr -e 500 -c 0 -i 12 -a 0 -x {1.0 5.0 11 ------- null}
h -t 0.21 -s 1 -d 2 -p cbr -e 500 -c 0 -i 12 -a 0 -x {1.0 5.0 -1 ------- null}
r -t 0.212 -s 2 -d 3 -p cbr -e 500 -c 0 -i 6 -a 0 -x {1.0 5.0 6 ------- null}
+ -t 0.212 -s 3 -d 5 -p cbr -e 500 -c 0 -i 6 -a 0 -x {1.0 5.0 6 ------- null}
- -t 0.212 -s 3 -d 5 -p cbr -e 500 -c 0 -i 6 -a 0 -x {1.0 5.0 6 ------- null}
h -t 0.212 -s 3 -d 5 -p cbr -e 500 -c 0 -i 6 -a 0 -x {1.0 5.0 -1 ------- null}
r -t 0.214 -s 1 -d 2 -p cbr -e 500 -c 0 -i 9 -a 0 -x {1.0 5.0 9 ------- null}
+ -t 0.214 -s 2 -d 3 -p cbr -e 500 -c 0 -i 9 -a 0 -x {1.0 5.0 9 ------- null}
- -t 0.214 -s 2 -d 3 -p cbr -e 500 -c 0 -i 9 -a 0 -x {1.0 5.0 9 ------- null}
h -t 0.214 -s 2 -d 3 -p cbr -e 500 -c 0 -i 9 -a 0 -x {1.0 5.0 -1 ------- null}
r -t 0.216 -s 3 -d 5 -p cbr -e 500 -c 0 -i 4 -a 0 -x {1.0 5.0 4 ------- null}
+ -t 0.22 -s 1 -d 2 -p cbr -e 500 -c 0 -i 13 -a 0 -x {1.0 5.0 12 ------- null}
- -t 0.22 -s 1 -d 2 -p cbr -e 500 -c 0 -i 13 -a 0 -x {1.0 5.0 12 ------- null}
h -t 0.22 -s 1 -d 2 -p cbr -e 500 -c 0 -i 13 -a 0 -x {1.0 5.0 -1 ------- null}
r -t 0.222 -s 2 -d 3 -p cbr -e 500 -c 0 -i 7 -a 0 -x {1.0 5.0 7 ------- null}
+ -t 0.222 -s 3 -d 5 -p cbr -e 500 -c 0 -i 7 -a 0 -x {1.0 5.0 7 ------- null}
- -t 0.222 -s 3 -d 5 -p cbr -e 500 -c 0 -i 7 -a 0 -x {1.0 5.0 7 ------- null}
h -t 0.222 -s 3 -d 5 -p cbr -e 500 -c 0 -i 7 -a 0 -x {1.0 5.0 -1 ------- null}
r -t 0.224 -s 1 -d 2 -p cbr -e 500 -c 0 -i 11 -a 0 -x {1.0 5.0 10 ------- null}
+ -t 0.224 -s 2 -d 3 -p cbr -e 500 -c 0 -i 11 -a 0 -x {1.0 5.0 10 ------- null}
- -t 0.224 -s 2 -d 3 -p cbr -e 500 -c 0 -i 11 -a 0 -x {1.0 5.0 10 ------- null}
h -t 0.224 -s 2 -d 3 -p cbr -e 500 -c 0 -i 11 -a 0 -x {1.0 5.0 -1 ------- null}
r -t 0.226 -s 3 -d 5 -p cbr -e 500 -c 0 -i 5 -a 0 -x {1.0 5.0 5 ------- null}
r -t 0.228 -s 0 -d 2 -p tcp -e 1000 -c 0 -i 10 -a 0 -x {0.0 4.0 0 ------- null}
+ -t 0.228 -s 2 -d 3 -p tcp -e 1000 -c 0 -i 10 -a 0 -x {0.0 4.0 0 ------- null}
+ -t 0.23 -s 1 -d 2 -p cbr -e 500 -c 0 -i 14 -a 0 -x {1.0 5.0 13 ------- null}
- -t 0.23 -s 1 -d 2 -p cbr -e 500 -c 0 -i 14 -a 0 -x {1.0 5.0 13 ------- null}
h -t 0.23 -s 1 -d 2 -p cbr -e 500 -c 0 -i 14 -a 0 -x {1.0 5.0 -1 ------- null}
r -t 0.232 -s 2 -d 3 -p cbr -e 500 -c 0 -i 8 -a 0 -x {1.0 5.0 8 ------- null}
+ -t 0.232 -s 3 -d 5 -p cbr -e 500 -c 0 -i 8 -a 0 -x {1.0 5.0 8 ------- null}
- -t 0.232 -s 3 -d 5 -p cbr -e 500 -c 0 -i 8 -a 0 -x {1.0 5.0 8 ------- null}
h -t 0.232 -s 3 -d 5 -p cbr -e 500 -c 0 -i 8 -a 0 -x {1.0 5.0 -1 ------- null}
- -t 0.232 -s 2 -d 3 -p tcp -e 1000 -c 0 -i 10 -a 0 -x {0.0 4.0 0 ------- null}
h -t 0.232 -s 2 -d 3 -p tcp -e 1000 -c 0 -i 10 -a 0 -x {0.0 4.0 -1 ------- null}
r -t 0.234 -s 1 -d 2 -p cbr -e 500 -c 0 -i 12 -a 0 -x {1.0 5.0 11 ------- null}
+ -t 0.234 -s 2 -d 3 -p cbr -e 500 -c 0 -i 12 -a 0 -x {1.0 5.0 11 ------- null}
r -t 0.236 -s 3 -d 5 -p cbr -e 500 -c 0 -i 6 -a 0 -x {1.0 5.0 6 ------- null}
+ -t 0.24 -s 1 -d 2 -p cbr -e 500 -c 0 -i 15 -a 0 -x {1.0 5.0 14 ------- null}
- -t 0.24 -s 1 -d 2 -p cbr -e 500 -c 0 -i 15 -a 0 -x {1.0 5.0 14 ------- null}
h -t 0.24 -s 1 -d 2 -p cbr -e 500 -c 0 -i 15 -a 0 -x {1.0 5.0 -1 ------- null}
r -t 0.242 -s 2 -d 3 -p cbr -e 500 -c 0 -i 9 -a 0 -x {1.0 5.0 9 ------- null}
+ -t 0.242 -s 3 -d 5 -p cbr -e 500 -c 0 -i 9 -a 0 -x {1.0 5.0 9 ------- null}
- -t 0.242 -s 3 -d 5 -p cbr -e 500 -c 0 -i 9 -a 0 -x {1.0 5.0 9 ------- null}
h -t 0.242 -s 3 -d 5 -p cbr -e 500 -c 0 -i 9 -a 0 -x {1.0 5.0 -1 ------- null}
r -t 0.244 -s 1 -d 2 -p cbr -e 500 -c 0 -i 13 -a 0 -x {1.0 5.0 12 ------- null}
+ -t 0.244 -s 2 -d 3 -p cbr -e 500 -c 0 -i 13 -a 0 -x {1.0 5.0 12 ------- null}
r -t 0.246 -s 3 -d 5 -p cbr -e 500 -c 0 -i 7 -a 0 -x {1.0 5.0 7 ------- null}
- -t 0.248 -s 2 -d 3 -p cbr -e 500 -c 0 -i 12 -a 0 -x {1.0 5.0 11 ------- null}
h -t 0.248 -s 2 -d 3 -p cbr -e 500 -c 0 -i 12 -a 0 -x {1.0 5.0 -1 ------- null}
+ -t 0.25 -s 1 -d 2 -p cbr -e 500 -c 0 -i 16 -a 0 -x {1.0 5.0 15 ------- null}
- -t 0.25 -s 1 -d 2 -p cbr -e 500 -c 0 -i 16 -a 0 -x {1.0 5.0 15 ------- null}
h -t 0.25 -s 1 -d 2 -p cbr -e 500 -c 0 -i 16 -a 0 -x {1.0 5.0 -1 ------- null}
r -t 0.252 -s 2 -d 3 -p cbr -e 500 -c 0 -i 11 -a 0 -x {1.0 5.0 10 ------- null}
+ -t 0.252 -s 3 -d 5 -p cbr -e 500 -c 0 -i 11 -a 0 -x {1.0 5.0 10 ------- null}
- -t 0.252 -s 3 -d 5 -p cbr -e 500 -c 0 -i 11 -a 0 -x {1.0 5.0 10 ------- null}
h -t 0.252 -s 3 -d 5 -p cbr -e 500 -c 0 -i 11 -a 0 -x {1.0 5.0 -1 ------- null}
r -t 0.254 -s 1 -d 2 -p cbr -e 500 -c 0 -i 14 -a 0 -x {1.0 5.0 13 ------- null}
+ -t 0.254 -s 2 -d 3 -p cbr -e 500 -c 0 -i 14 -a 0 -x {1.0 5.0 13 ------- null}
r -t 0.256 -s 3 -d 5 -p cbr -e 500 -c 0 -i 8 -a 0 -x {1.0 5.0 8 ------- null}
- -t 0.256 -s 2 -d 3 -p cbr -e 500 -c 0 -i 13 -a 0 -x {1.0 5.0 12 ------- null}
h -t 0.256 -s 2 -d 3 -p cbr -e 500 -c 0 -i 13 -a 0 -x {1.0 5.0 -1 ------- null}
+ -t 0.26 -s 1 -d 2 -p cbr -e 500 -c 0 -i 17 -a 0 -x {1.0 5.0 16 ------- null}
- -t 0.26 -s 1 -d 2 -p cbr -e 500 -c 0 -i 17 -a 0 -x {1.0 5.0 16 ------- null}
h -t 0.26 -s 1 -d 2 -p cbr -e 500 -c 0 -i 17 -a 0 -x {1.0 5.0 -1 ------- null}
- -t 0.264 -s 2 -d 3 -p cbr -e 500 -c 0 -i 14 -a 0 -x {1.0 5.0 13 ------- null}
h -t 0.264 -s 2 -d 3 -p cbr -e 500 -c 0 -i 14 -a 0 -x {1.0 5.0 -1 ------- null}
r -t 0.264 -s 1 -d 2 -p cbr -e 500 -c 0 -i 15 -a 0 -x {1.0 5.0 14 ------- null}
+ -t 0.264 -s 2 -d 3 -p cbr -e 500 -c 0 -i 15 -a 0 -x {1.0 5.0 14 ------- null}
r -t 0.266 -s 3 -d 5 -p cbr -e 500 -c 0 -i 9 -a 0 -x {1.0 5.0 9 ------- null}
r -t 0.268 -s 2 -d 3 -p tcp -e 1000 -c 0 -i 10 -a 0 -x {0.0 4.0 0 ------- null}
+ -t 0.268 -s 3 -d 4 -p tcp -e 1000 -c 0 -i 10 -a 0 -x {0.0 4.0 0 ------- null}
- -t 0.268 -s 3 -d 4 -p tcp -e 1000 -c 0 -i 10 -a 0 -x {0.0 4.0 0 ------- null}
h -t 0.268 -s 3 -d 4 -p tcp -e 1000 -c 0 -i 10 -a 0 -x {0.0 4.0 -1 ------- null}
+ -t 0.27 -s 1 -d 2 -p cbr -e 500 -c 0 -i 18 -a 0 -x {1.0 5.0 17 ------- null}
- -t 0.27 -s 1 -d 2 -p cbr -e 500 -c 0 -i 18 -a 0 -x {1.0 5.0 17 ------- null}
h -t 0.27 -s 1 -d 2 -p cbr -e 500 -c 0 -i 18 -a 0 -x {1.0 5.0 -1 ------- null}
- -t 0.272 -s 2 -d 3 -p cbr -e 500 -c 0 -i 15 -a 0 -x {1.0 5.0 14 ------- null}
h -t 0.272 -s 2 -d 3 -p cbr -e 500 -c 0 -i 15 -a 0 -x {1.0 5.0 -1 ------- null}
r -t 0.274 -s 1 -d 2 -p cbr -e 500 -c 0 -i 16 -a 0 -x {1.0 5.0 15 ------- null}
+ -t 0.274 -s 2 -d 3 -p cbr -e 500 -c 0 -i 16 -a 0 -x {1.0 5.0 15 ------- null}
r -t 0.276 -s 2 -d 3 -p cbr -e 500 -c 0 -i 12 -a 0 -x {1.0 5.0 11 ------- null}
+ -t 0.276 -s 3 -d 5 -p cbr -e 500 -c 0 -i 12 -a 0 -x {1.0 5.0 11 ------- null}
- -t 0.276 -s 3 -d 5 -p cbr -e 500 -c 0 -i 12 -a 0 -x {1.0 5.0 11 ------- null}
h -t 0.276 -s 3 -d 5 -p cbr -e 500 -c 0 -i 12 -a 0 -x {1.0 5.0 -1 ------- null}
r -t 0.276 -s 3 -d 5 -p cbr -e 500 -c 0 -i 11 -a 0 -x {1.0 5.0 10 ------- null}
- -t 0.28 -s 2 -d 3 -p cbr -e 500 -c 0 -i 16 -a 0 -x {1.0 5.0 15 ------- null}
h -t 0.28 -s 2 -d 3 -p cbr -e 500 -c 0 -i 16 -a 0 -x {1.0 5.0 -1 ------- null}
+ -t 0.28 -s 1 -d 2 -p cbr -e 500 -c 0 -i 19 -a 0 -x {1.0 5.0 18 ------- null}
- -t 0.28 -s 1 -d 2 -p cbr -e 500 -c 0 -i 19 -a 0 -x {1.0 5.0 18 ------- null}
h -t 0.28 -s 1 -d 2 -p cbr -e 500 -c 0 -i 19 -a 0 -x {1.0 5.0 -1 ------- null}
r -t 0.284 -s 2 -d 3 -p cbr -e 500 -c 0 -i 13 -a 0 -x {1.0 5.0 12 ------- null}
+ -t 0.284 -s 3 -d 5 -p cbr -e 500 -c 0 -i 13 -a 0 -x {1.0 5.0 12 ------- null}
- -t 0.284 -s 3 -d 5 -p cbr -e 500 -c 0 -i 13 -a 0 -x {1.0 5.0 12 ------- null}
h -t 0.284 -s 3 -d 5 -p cbr -e 500 -c 0 -i 13 -a 0 -x {1.0 5.0 -1 ------- null}
r -t 0.284 -s 1 -d 2 -p cbr -e 500 -c 0 -i 17 -a 0 -x {1.0 5.0 16 ------- null}
+ -t 0.284 -s 2 -d 3 -p cbr -e 500 -c 0 -i 17 -a 0 -x {1.0 5.0 16 ------- null}
- -t 0.288 -s 2 -d 3 -p cbr -e 500 -c 0 -i 17 -a 0 -x {1.0 5.0 16 ------- null}
h -t 0.288 -s 2 -d 3 -p cbr -e 500 -c 0 -i 17 -a 0 -x {1.0 5.0 -1 ------- null}
+ -t 0.29 -s 1 -d 2 -p cbr -e 500 -c 0 -i 20 -a 0 -x {1.0 5.0 19 ------- null}
- -t 0.29 -s 1 -d 2 -p cbr -e 500 -c 0 -i 20 -a 0 -x {1.0 5.0 19 ------- null}
h -t 0.29 -s 1 -d 2 -p cbr -e 500 -c 0 -i 20 -a 0 -x {1.0 5.0 -1 ------- null}
r -t 0.292 -s 2 -d 3 -p cbr -e 500 -c 0 -i 14 -a 0 -x {1.0 5.0 13 ------- null}
+ -t 0.292 -s 3 -d 5 -p cbr -e 500 -c 0 -i 14 -a 0 -x {1.0 5.0 13 ------- null}
- -t 0.292 -s 3 -d 5 -p cbr -e 500 -c 0 -i 14 -a 0 -x {1.0 5.0 13 ------- null}
h -t 0.292 -s 3 -d 5 -p cbr -e 500 -c 0 -i 14 -a 0 -x {1.0 5.0 -1 ------- null}
r -t 0.294 -s 1 -d 2 -p cbr -e 500 -c 0 -i 18 -a 0 -x {1.0 5.0 17 ------- null}
+ -t 0.294 -s 2 -d 3 -p cbr -e 500 -c 0 -i 18 -a 0 -x {1.0 5.0 17 ------- null}
r -t 0.296 -s 3 -d 4 -p tcp -e 1000 -c 0 -i 10 -a 0 -x {0.0 4.0 0 ------- null}
+ -t 0.296 -s 4 -d 3 -p ack -e 40 -c 0 -i 21 -a 0 -x {4.0 0.0 0 ------- null}
- -t 0.296 -s 4 -d 3 -p ack -e 40 -c 0 -i 21 -a 0 -x {4.0 0.0 0 ------- null}
h -t 0.296 -s 4 -d 3 -p ack -e 40 -c 0 -i 21 -a 0 -x {4.0 0.0 -1 ------- null}
- -t 0.296 -s 2 -d 3 -p cbr -e 500 -c 0 -i 18 -a 0 -x {1.0 5.0 17 ------- null}
h -t 0.296 -s 2 -d 3 -p cbr -e 500 -c 0 -i 18 -a 0 -x {1.0 5.0 -1 ------- null}
r -t 0.3 -s 2 -d 3 -p cbr -e 500 -c 0 -i 15 -a 0 -x {1.0 5.0 14 ------- null}
+ -t 0.3 -s 3 -d 5 -p cbr -e 500 -c 0 -i 15 -a 0 -x {1.0 5.0 14 ------- null}
- -t 0.3 -s 3 -d 5 -p cbr -e 500 -c 0 -i 15 -a 0 -x {1.0 5.0 14 ------- null}
h -t 0.3 -s 3 -d 5 -p cbr -e 500 -c 0 -i 15 -a 0 -x {1.0 5.0 -1 ------- null}
r -t 0.3 -s 3 -d 5 -p cbr -e 500 -c 0 -i 12 -a 0 -x {1.0 5.0 11 ------- null}
+ -t 0.3 -s 1 -d 2 -p cbr -e 500 -c 0 -i 22 -a 0 -x {1.0 5.0 20 ------- null}
- -t 0.3 -s 1 -d 2 -p cbr -e 500 -c 0 -i 22 -a 0 -x {1.0 5.0 20 ------- null}
h -t 0.3 -s 1 -d 2 -p cbr -e 500 -c 0 -i 22 -a 0 -x {1.0 5.0 -1 ------- null}
r -t 0.304 -s 1 -d 2 -p cbr -e 500 -c 0 -i 19 -a 0 -x {1.0 5.0 18 ------- null}
+ -t 0.304 -s 2 -d 3 -p cbr -e 500 -c 0 -i 19 -a 0 -x {1.0 5.0 18 ------- null}
- -t 0.304 -s 2 -d 3 -p cbr -e 500 -c 0 -i 19 -a 0 -x {1.0 5.0 18 ------- null}
h -t 0.304 -s 2 -d 3 -p cbr -e 500 -c 0 -i 19 -a 0 -x {1.0 5.0 -1 ------- null}
r -t 0.308 -s 2 -d 3 -p cbr -e 500 -c 0 -i 16 -a 0 -x {1.0 5.0 15 ------- null}
+ -t 0.308 -s 3 -d 5 -p cbr -e 500 -c 0 -i 16 -a 0 -x {1.0 5.0 15 ------- null}
- -t 0.308 -s 3 -d 5 -p cbr -e 500 -c 0 -i 16 -a 0 -x {1.0 5.0 15 ------- null}
h -t 0.308 -s 3 -d 5 -p cbr -e 500 -c 0 -i 16 -a 0 -x {1.0 5.0 -1 ------- null}
r -t 0.308 -s 3 -d 5 -p cbr -e 500 -c 0 -i 13 -a 0 -x {1.0 5.0 12 ------- null}
+ -t 0.31 -s 1 -d 2 -p cbr -e 500 -c 0 -i 23 -a 0 -x {1.0 5.0 21 ------- null}
- -t 0.31 -s 1 -d 2 -p cbr -e 500 -c 0 -i 23 -a 0 -x {1.0 5.0 21 ------- null}
h -t 0.31 -s 1 -d 2 -p cbr -e 500 -c 0 -i 23 -a 0 -x {1.0 5.0 -1 ------- null}
r -t 0.314 -s 1 -d 2 -p cbr -e 500 -c 0 -i 20 -a 0 -x {1.0 5.0 19 ------- null}
+ -t 0.314 -s 2 -d 3 -p cbr -e 500 -c 0 -i 20 -a 0 -x {1.0 5.0 19 ------- null}
- -t 0.314 -s 2 -d 3 -p cbr -e 500 -c 0 -i 20 -a 0 -x {1.0 5.0 19 ------- null}
h -t 0.314 -s 2 -d 3 -p cbr -e 500 -c 0 -i 20 -a 0 -x {1.0 5.0 -1 ------- null}
r -t 0.316 -s 2 -d 3 -p cbr -e 500 -c 0 -i 17 -a 0 -x {1.0 5.0 16 ------- null}
+ -t 0.316 -s 3 -d 5 -p cbr -e 500 -c 0 -i 17 -a 0 -x {1.0 5.0 16 ------- null}
- -t 0.316 -s 3 -d 5 -p cbr -e 500 -c 0 -i 17 -a 0 -x {1.0 5.0 16 ------- null}
h -t 0.316 -s 3 -d 5 -p cbr -e 500 -c 0 -i 17 -a 0 -x {1.0 5.0 -1 ------- null}
r -t 0.316 -s 3 -d 5 -p cbr -e 500 -c 0 -i 14 -a 0 -x {1.0 5.0 13 ------- null}
r -t 0.31632 -s 4 -d 3 -p ack -e 40 -c 0 -i 21 -a 0 -x {4.0 0.0 0 ------- null}
+ -t 0.31632 -s 3 -d 2 -p ack -e 40 -c 0 -i 21 -a 0 -x {4.0 0.0 0 ------- null}
- -t 0.31632 -s 3 -d 2 -p ack -e 40 -c 0 -i 21 -a 0 -x {4.0 0.0 0 ------- null}
h -t 0.31632 -s 3 -d 2 -p ack -e 40 -c 0 -i 21 -a 0 -x {4.0 0.0 -1 ------- null}
+ -t 0.32 -s 1 -d 2 -p cbr -e 500 -c 0 -i 24 -a 0 -x {1.0 5.0 22 ------- null}
- -t 0.32 -s 1 -d 2 -p cbr -e 500 -c 0 -i 24 -a 0 -x {1.0 5.0 22 ------- null}
h -t 0.32 -s 1 -d 2 -p cbr -e 500 -c 0 -i 24 -a 0 -x {1.0 5.0 -1 ------- null}
r -t 0.324 -s 2 -d 3 -p cbr -e 500 -c 0 -i 18 -a 0 -x {1.0 5.0 17 ------- null}
+ -t 0.324 -s 3 -d 5 -p cbr -e 500 -c 0 -i 18 -a 0 -x {1.0 5.0 17 ------- null}
- -t 0.324 -s 3 -d 5 -p cbr -e 500 -c 0 -i 18 -a 0 -x {1.0 5.0 17 ------- null}
h -t 0.324 -s 3 -d 5 -p cbr -e 500 -c 0 -i 18 -a 0 -x {1.0 5.0 -1 ------- null}
r -t 0.324 -s 3 -d 5 -p cbr -e 500 -c 0 -i 15 -a 0 -x {1.0 5.0 14 ------- null}
r -t 0.324 -s 1 -d 2 -p cbr -e 500 -c 0 -i 22 -a 0 -x {1.0 5.0 20 ------- null}
+ -t 0.324 -s 2 -d 3 -p cbr -e 500 -c 0 -i 22 -a 0 -x {1.0 5.0 20 ------- null}
- -t 0.324 -s 2 -d 3 -p cbr -e 500 -c 0 -i 22 -a 0 -x {1.0 5.0 20 ------- null}
h -t 0.324 -s 2 -d 3 -p cbr -e 500 -c 0 -i 22 -a 0 -x {1.0 5.0 -1 ------- null}
+ -t 0.33 -s 1 -d 2 -p cbr -e 500 -c 0 -i 25 -a 0 -x {1.0 5.0 23 ------- null}
- -t 0.33 -s 1 -d 2 -p cbr -e 500 -c 0 -i 25 -a 0 -x {1.0 5.0 23 ------- null}
h -t 0.33 -s 1 -d 2 -p cbr -e 500 -c 0 -i 25 -a 0 -x {1.0 5.0 -1 ------- null}
r -t 0.332 -s 3 -d 5 -p cbr -e 500 -c 0 -i 16 -a 0 -x {1.0 5.0 15 ------- null}
r -t 0.332 -s 2 -d 3 -p cbr -e 500 -c 0 -i 19 -a 0 -x {1.0 5.0 18 ------- null}
+ -t 0.332 -s 3 -d 5 -p cbr -e 500 -c 0 -i 19 -a 0 -x {1.0 5.0 18 ------- null}
- -t 0.332 -s 3 -d 5 -p cbr -e 500 -c 0 -i 19 -a 0 -x {1.0 5.0 18 ------- null}
h -t 0.332 -s 3 -d 5 -p cbr -e 500 -c 0 -i 19 -a 0 -x {1.0 5.0 -1 ------- null}
r -t 0.334 -s 1 -d 2 -p cbr -e 500 -c 0 -i 23 -a 0 -x {1.0 5.0 21 ------- null}
+ -t 0.334 -s 2 -d 3 -p cbr -e 500 -c 0 -i 23 -a 0 -x {1.0 5.0 21 ------- null}
- -t 0.334 -s 2 -d 3 -p cbr -e 500 -c 0 -i 23 -a 0 -x {1.0 5.0 21 ------- null}
h -t 0.334 -s 2 -d 3 -p cbr -e 500 -c 0 -i 23 -a 0 -x {1.0 5.0 -1 ------- null}
r -t 0.33696 -s 3 -d 2 -p ack -e 40 -c 0 -i 21 -a 0 -x {4.0 0.0 0 ------- null}
+ -t 0.33696 -s 2 -d 0 -p ack -e 40 -c 0 -i 21 -a 0 -x {4.0 0.0 0 ------- null}
- -t 0.33696 -s 2 -d 0 -p ack -e 40 -c 0 -i 21 -a 0 -x {4.0 0.0 0 ------- null}
h -t 0.33696 -s 2 -d 0 -p ack -e 40 -c 0 -i 21 -a 0 -x {4.0 0.0 -1 ------- null}
r -t 0.34 -s 3 -d 5 -p cbr -e 500 -c 0 -i 17 -a 0 -x {1.0 5.0 16 ------- null}
+ -t 0.34 -s 1 -d 2 -p cbr -e 500 -c 0 -i 26 -a 0 -x {1.0 5.0 24 ------- null}
- -t 0.34 -s 1 -d 2 -p cbr -e 500 -c 0 -i 26 -a 0 -x {1.0 5.0 24 ------- null}
h -t 0.34 -s 1 -d 2 -p cbr -e 500 -c 0 -i 26 -a 0 -x {1.0 5.0 -1 ------- null}
r -t 0.342 -s 2 -d 3 -p cbr -e 500 -c 0 -i 20 -a 0 -x {1.0 5.0 19 ------- null}
+ -t 0.342 -s 3 -d 5 -p cbr -e 500 -c 0 -i 20 -a 0 -x {1.0 5.0 19 ------- null}
- -t 0.342 -s 3 -d 5 -p cbr -e 500 -c 0 -i 20 -a 0 -x {1.0 5.0 19 ------- null}
h -t 0.342 -s 3 -d 5 -p cbr -e 500 -c 0 -i 20 -a 0 -x {1.0 5.0 -1 ------- null}
r -t 0.344 -s 1 -d 2 -p cbr -e 500 -c 0 -i 24 -a 0 -x {1.0 5.0 22 ------- null}
+ -t 0.344 -s 2 -d 3 -p cbr -e 500 -c 0 -i 24 -a 0 -x {1.0 5.0 22 ------- null}
- -t 0.344 -s 2 -d 3 -p cbr -e 500 -c 0 -i 24 -a 0 -x {1.0 5.0 22 ------- null}
h -t 0.344 -s 2 -d 3 -p cbr -e 500 -c 0 -i 24 -a 0 -x {1.0 5.0 -1 ------- null}
r -t 0.348 -s 3 -d 5 -p cbr -e 500 -c 0 -i 18 -a 0 -x {1.0 5.0 17 ------- null}
+ -t 0.35 -s 1 -d 2 -p cbr -e 500 -c 0 -i 27 -a 0 -x {1.0 5.0 25 ------- null}
- -t 0.35 -s 1 -d 2 -p cbr -e 500 -c 0 -i 27 -a 0 -x {1.0 5.0 25 ------- null}
h -t 0.35 -s 1 -d 2 -p cbr -e 500 -c 0 -i 27 -a 0 -x {1.0 5.0 -1 ------- null}
r -t 0.352 -s 2 -d 3 -p cbr -e 500 -c 0 -i 22 -a 0 -x {1.0 5.0 20 ------- null}
+ -t 0.352 -s 3 -d 5 -p cbr -e 500 -c 0 -i 22 -a 0 -x {1.0 5.0 20 ------- null}
- -t 0.352 -s 3 -d 5 -p cbr -e 500 -c 0 -i 22 -a 0 -x {1.0 5.0 20 ------- null}
h -t 0.352 -s 3 -d 5 -p cbr -e 500 -c 0 -i 22 -a 0 -x {1.0 5.0 -1 ------- null}
r -t 0.354 -s 1 -d 2 -p cbr -e 500 -c 0 -i 25 -a 0 -x {1.0 5.0 23 ------- null}
+ -t 0.354 -s 2 -d 3 -p cbr -e 500 -c 0 -i 25 -a 0 -x {1.0 5.0 23 ------- null}
- -t 0.354 -s 2 -d 3 -p cbr -e 500 -c 0 -i 25 -a 0 -x {1.0 5.0 23 ------- null}
h -t 0.354 -s 2 -d 3 -p cbr -e 500 -c 0 -i 25 -a 0 -x {1.0 5.0 -1 ------- null}
r -t 0.356 -s 3 -d 5 -p cbr -e 500 -c 0 -i 19 -a 0 -x {1.0 5.0 18 ------- null}
r -t 0.35728 -s 2 -d 0 -p ack -e 40 -c 0 -i 21 -a 0 -x {4.0 0.0 0 ------- null}
+ -t 0.35728 -s 0 -d 2 -p tcp -e 1000 -c 0 -i 28 -a 0 -x {0.0 4.0 1 ------- null}
- -t 0.35728 -s 0 -d 2 -p tcp -e 1000 -c 0 -i 28 -a 0 -x {0.0 4.0 1 ------- null}
h -t 0.35728 -s 0 -d 2 -p tcp -e 1000 -c 0 -i 28 -a 0 -x {0.0 4.0 -1 ------- null}
+ -t 0.35728 -s 0 -d 2 -p tcp -e 1000 -c 0 -i 29 -a 0 -x {0.0 4.0 2 ------- null}
+ -t 0.36 -s 1 -d 2 -p cbr -e 500 -c 0 -i 30 -a 0 -x {1.0 5.0 26 ------- null}
- -t 0.36 -s 1 -d 2 -p cbr -e 500 -c 0 -i 30 -a 0 -x {1.0 5.0 26 ------- null}
h -t 0.36 -s 1 -d 2 -p cbr -e 500 -c 0 -i 30 -a 0 -x {1.0 5.0 -1 ------- null}
r -t 0.362 -s 2 -d 3 -p cbr -e 500 -c 0 -i 23 -a 0 -x {1.0 5.0 21 ------- null}
+ -t 0.362 -s 3 -d 5 -p cbr -e 500 -c 0 -i 23 -a 0 -x {1.0 5.0 21 ------- null}
- -t 0.362 -s 3 -d 5 -p cbr -e 500 -c 0 -i 23 -a 0 -x {1.0 5.0 21 ------- null}
h -t 0.362 -s 3 -d 5 -p cbr -e 500 -c 0 -i 23 -a 0 -x {1.0 5.0 -1 ------- null}
r -t 0.364 -s 1 -d 2 -p cbr -e 500 -c 0 -i 26 -a 0 -x {1.0 5.0 24 ------- null}
+ -t 0.364 -s 2 -d 3 -p cbr -e 500 -c 0 -i 26 -a 0 -x {1.0 5.0 24 ------- null}
- -t 0.364 -s 2 -d 3 -p cbr -e 500 -c 0 -i 26 -a 0 -x {1.0 5.0 24 ------- null}
h -t 0.364 -s 2 -d 3 -p cbr -e 500 -c 0 -i 26 -a 0 -x {1.0 5.0 -1 ------- null}
- -t 0.36528 -s 0 -d 2 -p tcp -e 1000 -c 0 -i 29 -a 0 -x {0.0 4.0 2 ------- null}
h -t 0.36528 -s 0 -d 2 -p tcp -e 1000 -c 0 -i 29 -a 0 -x {0.0 4.0 -1 ------- null}
r -t 0.366 -s 3 -d 5 -p cbr -e 500 -c 0 -i 20 -a 0 -x {1.0 5.0 19 ------- null}
+ -t 0.37 -s 1 -d 2 -p cbr -e 500 -c 0 -i 31 -a 0 -x {1.0 5.0 27 ------- null}
- -t 0.37 -s 1 -d 2 -p cbr -e 500 -c 0 -i 31 -a 0 -x {1.0 5.0 27 ------- null}
h -t 0.37 -s 1 -d 2 -p cbr -e 500 -c 0 -i 31 -a 0 -x {1.0 5.0 -1 ------- null}
r -t 0.372 -s 2 -d 3 -p cbr -e 500 -c 0 -i 24 -a 0 -x {1.0 5.0 22 ------- null}
+ -t 0.372 -s 3 -d 5 -p cbr -e 500 -c 0 -i 24 -a 0 -x {1.0 5.0 22 ------- null}
- -t 0.372 -s 3 -d 5 -p cbr -e 500 -c 0 -i 24 -a 0 -x {1.0 5.0 22 ------- null}
h -t 0.372 -s 3 -d 5 -p cbr -e 500 -c 0 -i 24 -a 0 -x {1.0 5.0 -1 ------- null}
r -t 0.374 -s 1 -d 2 -p cbr -e 500 -c 0 -i 27 -a 0 -x {1.0 5.0 25 ------- null}
+ -t 0.374 -s 2 -d 3 -p cbr -e 500 -c 0 -i 27 -a 0 -x {1.0 5.0 25 ------- null}
- -t 0.374 -s 2 -d 3 -p cbr -e 500 -c 0 -i 27 -a 0 -x {1.0 5.0 25 ------- null}
h -t 0.374 -s 2 -d 3 -p cbr -e 500 -c 0 -i 27 -a 0 -x {1.0 5.0 -1 ------- null}
r -t 0.376 -s 3 -d 5 -p cbr -e 500 -c 0 -i 22 -a 0 -x {1.0 5.0 20 ------- null}
+ -t 0.38 -s 1 -d 2 -p cbr -e 500 -c 0 -i 32 -a 0 -x {1.0 5.0 28 ------- null}
- -t 0.38 -s 1 -d 2 -p cbr -e 500 -c 0 -i 32 -a 0 -x {1.0 5.0 28 ------- null}
h -t 0.38 -s 1 -d 2 -p cbr -e 500 -c 0 -i 32 -a 0 -x {1.0 5.0 -1 ------- null}
r -t 0.382 -s 2 -d 3 -p cbr -e 500 -c 0 -i 25 -a 0 -x {1.0 5.0 23 ------- null}
+ -t 0.382 -s 3 -d 5 -p cbr -e 500 -c 0 -i 25 -a 0 -x {1.0 5.0 23 ------- null}
- -t 0.382 -s 3 -d 5 -p cbr -e 500 -c 0 -i 25 -a 0 -x {1.0 5.0 23 ------- null}
h -t 0.382 -s 3 -d 5 -p cbr -e 500 -c 0 -i 25 -a 0 -x {1.0 5.0 -1 ------- null}
r -t 0.384 -s 1 -d 2 -p cbr -e 500 -c 0 -i 30 -a 0 -x {1.0 5.0 26 ------- null}
+ -t 0.384 -s 2 -d 3 -p cbr -e 500 -c 0 -i 30 -a 0 -x {1.0 5.0 26 ------- null}
- -t 0.384 -s 2 -d 3 -p cbr -e 500 -c 0 -i 30 -a 0 -x {1.0 5.0 26 ------- null}
h -t 0.384 -s 2 -d 3 -p cbr -e 500 -c 0 -i 30 -a 0 -x {1.0 5.0 -1 ------- null}
r -t 0.38528 -s 0 -d 2 -p tcp -e 1000 -c 0 -i 28 -a 0 -x {0.0 4.0 1 ------- null}
+ -t 0.38528 -s 2 -d 3 -p tcp -e 1000 -c 0 -i 28 -a 0 -x {0.0 4.0 1 ------- null}
r -t 0.386 -s 3 -d 5 -p cbr -e 500 -c 0 -i 23 -a 0 -x {1.0 5.0 21 ------- null}
+ -t 0.39 -s 1 -d 2 -p cbr -e 500 -c 0 -i 33 -a 0 -x {1.0 5.0 29 ------- null}
- -t 0.39 -s 1 -d 2 -p cbr -e 500 -c 0 -i 33 -a 0 -x {1.0 5.0 29 ------- null}
h -t 0.39 -s 1 -d 2 -p cbr -e 500 -c 0 -i 33 -a 0 -x {1.0 5.0 -1 ------- null}
r -t 0.392 -s 2 -d 3 -p cbr -e 500 -c 0 -i 26 -a 0 -x {1.0 5.0 24 ------- null}
+ -t 0.392 -s 3 -d 5 -p cbr -e 500 -c 0 -i 26 -a 0 -x {1.0 5.0 24 ------- null}
- -t 0.392 -s 3 -d 5 -p cbr -e 500 -c 0 -i 26 -a 0 -x {1.0 5.0 24 ------- null}
h -t 0.392 -s 3 -d 5 -p cbr -e 500 -c 0 -i 26 -a 0 -x {1.0 5.0 -1 ------- null}
- -t 0.392 -s 2 -d 3 -p tcp -e 1000 -c 0 -i 28 -a 0 -x {0.0 4.0 1 ------- null}
h -t 0.392 -s 2 -d 3 -p tcp -e 1000 -c 0 -i 28 -a 0 -x {0.0 4.0 -1 ------- null}
r -t 0.39328 -s 0 -d 2 -p tcp -e 1000 -c 0 -i 29 -a 0 -x {0.0 4.0 2 ------- null}
+ -t 0.39328 -s 2 -d 3 -p tcp -e 1000 -c 0 -i 29 -a 0 -x {0.0 4.0 2 ------- null}
r -t 0.394 -s 1 -d 2 -p cbr -e 500 -c 0 -i 31 -a 0 -x {1.0 5.0 27 ------- null}
+ -t 0.394 -s 2 -d 3 -p cbr -e 500 -c 0 -i 31 -a 0 -x {1.0 5.0 27 ------- null}
r -t 0.396 -s 3 -d 5 -p cbr -e 500 -c 0 -i 24 -a 0 -x {1.0 5.0 22 ------- null}
+ -t 0.4 -s 1 -d 2 -p cbr -e 500 -c 0 -i 34 -a 0 -x {1.0 5.0 30 ------- null}
- -t 0.4 -s 1 -d 2 -p cbr -e 500 -c 0 -i 34 -a 0 -x {1.0 5.0 30 ------- null}
h -t 0.4 -s 1 -d 2 -p cbr -e 500 -c 0 -i 34 -a 0 -x {1.0 5.0 -1 ------- null}
r -t 0.402 -s 2 -d 3 -p cbr -e 500 -c 0 -i 27 -a 0 -x {1.0 5.0 25 ------- null}
+ -t 0.402 -s 3 -d 5 -p cbr -e 500 -c 0 -i 27 -a 0 -x {1.0 5.0 25 ------- null}
- -t 0.402 -s 3 -d 5 -p cbr -e 500 -c 0 -i 27 -a 0 -x {1.0 5.0 25 ------- null}
h -t 0.402 -s 3 -d 5 -p cbr -e 500 -c 0 -i 27 -a 0 -x {1.0 5.0 -1 ------- null}
r -t 0.404 -s 1 -d 2 -p cbr -e 500 -c 0 -i 32 -a 0 -x {1.0 5.0 28 ------- null}
+ -t 0.404 -s 2 -d 3 -p cbr -e 500 -c 0 -i 32 -a 0 -x {1.0 5.0 28 ------- null}
r -t 0.406 -s 3 -d 5 -p cbr -e 500 -c 0 -i 25 -a 0 -x {1.0 5.0 23 ------- null}