+ 0.009626 3 2 tcp 40 C--A--- 0 4.0 0.0 0 0 -1 0xca 40 0
- 0.009626 3 2 tcp 40 C--A--- 0 4.0 0.0 0 0 -1 0xca 40 0
r 0.010629 3 2 tcp 40 C--A--- 0 4.0 0.0 0 0 -1 0xca 40 0
+ 0.109984 2 3 ack 40 C-----N 0 0.0 4.0 0 1 1 0x5a 40 0
- 0.109984 2 3 ack 40 C---E-N 0 0.0 4.0 0 1 1 0x5a 40 0
r 0.110987 2 3 ack 40 C---E-N 0 0.0 4.0 0 1 1 0x5a 40 0
+ 0.130239 3 2 tcp 40 C------ 0 4.0 0.0 1 2 1 0x10 40 0
- 0.130239 3 2 tcp 40 C------ 0 4.0 0.0 1 2 1 0x10 40 0
+ 0.130285 3 2 tcp 576 C-----N 0 4.0 0.0 1 3 1 0x50 40 0
- 0.130285 3 2 tcp 576 C-----N 0 4.0 0.0 1 3 1 0x50 40 0
r 0.131243 3 2 tcp 40 C------ 0 4.0 0.0 1 2 1 0x10 40 0
r 0.131332 3 2 tcp 576 C-----N 0 4.0 0.0 1 3 1 0x50 40 0
+ 0.149852 3 2 tcp 40 C--A--- 1 4.1 0.1 0 4 -1 0xca 40 0
- 0.149852 3 2 tcp 40 C--A--- 1 4.1 0.1 0 4 -1 0xca 40 0
r 0.150855 3 2 tcp 40 C--A--- 1 4.1 0.1 0 4 -1 0xca 40 0
+ 0.212842 2 3 ack 40 C-----N 1 0.1 4.1 0 6 1 0x5a 40 0
- 0.212842 2 3 ack 40 C-----N 1 0.1 4.1 0 6 1 0x5a 40 0
r 0.213845 2 3 ack 40 C-----N 1 0.1 4.1 0 6 1 0x5a 40 0
+ 0.224423 3 2 tcp 40 C--A--- 2 4.2 0.2 0 7 -1 0xca 40 0
- 0.224423 3 2 tcp 40 C--A--- 2 4.2 0.2 0 7 -1 0xca 40 0
r 0.225426 3 2 tcp 40 C--A--- 2 4.2 0.2 0 7 -1 0xca 40 0
+ 0.227778 3 2 tcp 40 C--A--- 3 4.3 0.3 0 8 -1 0xca 40 0
- 0.227778 3 2 tcp 40 C--A--- 3 4.3 0.3 0 8 -1 0xca 40 0
r 0.228782 3 2 tcp 40 C--A--- 3 4.3 0.3 0 8 -1 0xca 40 0
+ 0.230729 2 3 ack 40 ---A--- 0 0.0 4.0 1 5 537 0x98 40 0
- 0.230729 2 3 ack 40 ---A--- 0 0.0 4.0 1 5 537 0x98 40 0
r 0.231732 2 3 ack 40 ---A--- 0 0.0 4.0 1 5 537 0x98 40 0
+ 0.243139 3 2 tcp 40 ------- 1 4.1 0.1 1 9 1 0x10 40 0
- 0.243139 3 2 tcp 40 ------- 1 4.1 0.1 1 9 1 0x10 40 0
+ 0.243164 3 2 tcp 321 ------N 1 4.1 0.1 1 10 1 0x18 40 0
- 0.243164 3 2 tcp 321 ------N 1 4.1 0.1 1 10 1 0x18 40 0
r 0.244142 3 2 tcp 40 ------- 1 4.1 0.1 1 9 1 0x10 40 0
r 0.24419 3 2 tcp 321 ------N 1 4.1 0.1 1 10 1 0x18 40 0
+ 0.251011 3 2 tcp 372 ------N 0 4.0 0.0 537 11 1 0x18 40 0
- 0.251011 3 2 tcp 372 ------N 0 4.0 0.0 537 11 1 0x18 40 0
r 0.252041 3 2 tcp 372 ------N 0 4.0 0.0 537 11 1 0x18 40 0
+ 0.292248 3 2 tcp 40 C--A--- 5 4.5 0.5 0 15 -1 0xca 40 0
- 0.292248 3 2 tcp 40 C--A--- 5 4.5 0.5 0 15 -1 0xca 40 0
+ 0.292996 2 3 ack 40 C-----N 2 0.2 4.2 0 12 1 0x5a 40 0
- 0.292996 2 3 ack 40 C-----N 2 0.2 4.2 0 12 1 0x5a 40 0
r 0.293252 3 2 tcp 40 C--A--- 5 4.5 0.5 0 15 -1 0xca 40 0
+ 0.29389 3 2 tcp 40 C--A--- 4 4.4 0.4 0 14 -1 0xca 40 0
- 0.29389 3 2 tcp 40 C--A--- 4 4.4 0.4 0 14 -1 0xca 40 0
r 0.293999 2 3 ack 40 C-----N 2 0.2 4.2 0 12 1 0x5a 40 0
r 0.294893 3 2 tcp 40 C--A--- 4 4.4 0.4 0 14 -1 0xca 40 0
+ 0.307229 2 3 ack 40 C-----N 3 0.3 4.3 0 13 1 0x5a 40 0
- 0.307229 2 3 ack 40 C-----N 3 0.3 4.3 0 13 1 0x5a 40 0
r 0.308232 2 3 ack 40 C-----N 3 0.3 4.3 0 13 1 0x5a 40 0
+ 0.324439 3 2 tcp 40 C--A--- 6 4.6 0.6 0 18 -1 0xca 40 0
- 0.324439 3 2 tcp 40 C--A--- 6 4.6 0.6 0 18 -1 0xca 40 0
+ 0.324675 3 2 tcp 40 ------- 2 4.2 0.2 1 19 1 0x10 40 0
- 0.324675 3 2 tcp 40 ------- 2 4.2 0.2 1 19 1 0x10 40 0
+ 0.324715 3 2 tcp 502 ------N 2 4.2 0.2 1 20 1 0x18 40 0
- 0.324715 3 2 tcp 502 ------N 2 4.2 0.2 1 20 1 0x18 40 0
r 0.325442 3 2 tcp 40 C--A--- 6 4.6 0.6 0 18 -1 0xca 40 0
r 0.325678 3 2 tcp 40 ------- 2 4.2 0.2 1 19 1 0x10 40 0
r 0.325756 3 2 tcp 502 ------N 2 4.2 0.2 1 20 1 0x18 40 0
+ 0.330993 2 3 ack 40 ------- 1 0.1 4.1 1 16 282 0x18 40 0
- 0.330993 2 3 ack 40 ------- 1 0.1 4.1 1 16 282 0x18 40 0
+ 0.331441 3 2 tcp 40 ------- 3 4.3 0.3 1 22 1 0x10 40 0
- 0.331441 3 2 tcp 40 ------- 3 4.3 0.3 1 22 1 0x10 40 0
+ 0.331482 3 2 tcp 516 ------N 3 4.3 0.3 1 23 1 0x18 40 0
- 0.331482 3 2 tcp 516 ------N 3 4.3 0.3 1 23 1 0x18 40 0
r 0.331997 2 3 ack 40 ------- 1 0.1 4.1 1 16 282 0x18 40 0
r 0.332444 3 2 tcp 40 ------- 3 4.3 0.3 1 22 1 0x10 40 0
r 0.332523 3 2 tcp 516 ------N 3 4.3 0.3 1 23 1 0x18 40 0
+ 0.341695 2 3 ack 40 C-----N 5 0.5 4.5 0 21 1 0x5a 40 0
- 0.341695 2 3 ack 40 C-----N 5 0.5 4.5 0 21 1 0x5a 40 0
r 0.342698 2 3 ack 40 C-----N 5 0.5 4.5 0 21 1 0x5a 40 0
+ 0.352356 2 3 ack 460 ------N 0 0.0 4.0 1 17 869 0x19 40 0
- 0.352356 2 3 ack 460 ------N 0 0.0 4.0 1 17 869 0x19 40 0
r 0.353393 2 3 ack 460 ------N 0 0.0 4.0 1 17 869 0x19 40 0
+ 0.365793 2 3 ack 576 ------N 1 0.1 4.1 1 24 282 0x10 40 0
- 0.365793 2 3 ack 576 ------N 1 0.1 4.1 1 24 282 0x10 40 0
+ 0.36626 2 3 ack 576 ------N 1 0.1 4.1 537 25 282 0x10 40 0
- 0.36626 2 3 ack 576 ------N 1 0.1 4.1 537 25 282 0x10 40 0
r 0.366839 2 3 ack 576 ------N 1 0.1 4.1 1 24 282 0x10 40 0
r 0.367306 2 3 ack 576 ------N 1 0.1 4.1 537 25 282 0x10 40 0
+ 0.372679 3 2 tcp 40 ------- 0 4.0 0.0 869 29 422 0x18 40 0
- 0.372679 3 2 tcp 40 ------- 0 4.0 0.0 869 29 422 0x18 40 0
+ 0.372682 3 2 tcp 40 ------- 0 4.0 0.0 869 30 422 0x19 40 0
- 0.372682 3 2 tcp 40 ------- 0 4.0 0.0 869 30 422 0x19 40 0
r 0.373682 3 2 tcp 40 ------- 0 4.0 0.0 869 29 422 0x18 40 0
r 0.373685 3 2 tcp 40 ------- 0 4.0 0.0 869 30 422 0x19 40 0
+ 0.37434 3 2 tcp 40 ------- 5 4.5 0.5 1 27 1 0x10 40 0
- 0.37434 3 2 tcp 40 ------- 5 4.5 0.5 1 27 1 0x10 40 0
+ 0.37438 3 2 tcp 501 ------N 5 4.5 0.5 1 28 1 0x18 40 0
- 0.37438 3 2 tcp 501 ------N 5 4.5 0.5 1 28 1 0x18 40 0
r 0.375343 3 2 tcp 40 ------- 5 4.5 0.5 1 27 1 0x10 40 0
r 0.37542 3 2 tcp 501 ------N 5 4.5 0.5 1 28 1 0x18 40 0
+ 0.391772 2 3 ack 40 C-----N 4 0.4 4.4 0 26 1 0x5a 40 0
- 0.391772 2 3 ack 40 C-----N 4 0.4 4.4 0 26 1 0x5a 40 0
r 0.392775 2 3 ack 40 C-----N 4 0.4 4.4 0 26 1 0x5a 40 0
+ 0.396176 3 2 tcp 40 ------- 1 4.1 0.1 282 32 537 0x18 40 0
- 0.396176 3 2 tcp 40 ------- 1 4.1 0.1 282 32 537 0x18 40 0
+ 0.396642 3 2 tcp 40 ------- 1 4.1 0.1 282 33 1073 0x18 40 0
- 0.396642 3 2 tcp 40 ------- 1 4.1 0.1 282 33 1073 0x18 40 0
r 0.397179 3 2 tcp 40 ------- 1 4.1 0.1 282 32 537 0x18 40 0
r 0.397646 3 2 tcp 40 ------- 1 4.1 0.1 282 33 1073 0x18 40 0
+ 0.41487 2 3 ack 40 C-----N 6 0.6 4.6 0 31 1 0x5a 40 0
- 0.41487 2 3 ack 40 C-----N 6 0.6 4.6 0 31 1 0x5a 40 0
r 0.415873 2 3 ack 40 C-----N 6 0.6 4.6 0 31 1 0x5a 40 0
+ 0.424225 2 3 ack 40 ------- 5 0.5 4.5 1 37 462 0x18 40 0
- 0.424225 2 3 ack 40 ------- 5 0.5 4.5 1 37 462 0x18 40 0
+ 0.424413 2 3 ack 40 ------- 0 0.0 4.0 422 41 870 0x18 40 0
- 0.424413 2 3 ack 40 ------- 0 0.0 4.0 422 41 870 0x18 40 0
+ 0.424897 2 3 ack 576 ------N 3 0.3 4.3 1 34 477 0x10 40 0
- 0.424897 2 3 ack 576 ------N 3 0.3 4.3 1 34 477 0x10 40 0
r 0.425228 2 3 ack 40 ------- 5 0.5 4.5 1 37 462 0x18 40 0
+ 0.425307 2 3 ack 576 ------N 3 0.3 4.3 537 35 477 0x10 40 0
- 0.425307 2 3 ack 576 ------N 3 0.3 4.3 537 35 477 0x10 40 0
r 0.425416 2 3 ack 40 ------- 0 0.0 4.0 422 41 870 0x18 40 0
r 0.425943 2 3 ack 576 ------N 3 0.3 4.3 1 34 477 0x10 40 0
r 0.426353 2 3 ack 576 ------N 3 0.3 4.3 537 35 477 0x10 40 0
+ 0.427977 3 2 tcp 40 ------- 4 4.4 0.4 1 39 1 0x10 40 0
- 0.427977 3 2 tcp 40 ------- 4 4.4 0.4 1 39 1 0x10 40 0
+ 0.428023 3 2 tcp 576 ------N 4 4.4 0.4 1 40 1 0x10 40 0
- 0.428023 3 2 tcp 576 ------N 4 4.4 0.4 1 40 1 0x10 40 0
r 0.42898 3 2 tcp 40 ------- 4 4.4 0.4 1 39 1 0x10 40 0
r 0.429069 3 2 tcp 576 ------N 4 4.4 0.4 1 40 1 0x10 40 0
+ 0.429355 2 3 ack 439 ------N 5 0.5 4.5 1 38 462 0x19 40 0
- 0.429355 2 3 ack 439 ------N 5 0.5 4.5 1 38 462 0x19 40 0
r 0.430391 2 3 ack 439 ------N 5 0.5 4.5 1 38 462 0x19 40 0
+ 0.433785 2 3 ack 40 ------- 2 0.2 4.2 1 36 463 0x18 40 0
- 0.433785 2 3 ack 40 ------- 2 0.2 4.2 1 36 463 0x18 40 0
r 0.434788 2 3 ack 40 ------- 2 0.2 4.2 1 36 463 0x18 40 0
+ 0.447633 3 2 tcp 40 ------- 6 4.6 0.6 1 46 1 0x10 40 0
- 0.447633 3 2 tcp 40 ------- 6 4.6 0.6 1 46 1 0x10 40 0
+ 0.447668 3 2 tcp 435 ------N 6 4.6 0.6 1 47 1 0x18 40 0
- 0.447668 3 2 tcp 435 ------N 6 4.6 0.6 1 47 1 0x18 40 0
r 0.448636 3 2 tcp 40 ------- 6 4.6 0.6 1 46 1 0x10 40 0
r 0.448703 3 2 tcp 435 ------N 6 4.6 0.6 1 47 1 0x18 40 0
+ 0.449194 3 2 tcp 40 ------- 3 4.3 0.3 477 48 537 0x18 40 0
- 0.449194 3 2 tcp 40 ------- 3 4.3 0.3 477 48 537 0x18 40 0
+ 0.449604 3 2 tcp 40 ------- 3 4.3 0.3 477 49 1073 0x18 40 0
- 0.449604 3 2 tcp 40 ------- 3 4.3 0.3 477 49 1073 0x18 40 0
r 0.450197 3 2 tcp 40 ------- 3 4.3 0.3 477 48 537 0x18 40 0
r 0.450607 3 2 tcp 40 ------- 3 4.3 0.3 477 49 1073 0x18 40 0
+ 0.459209 2 3 ack 576 ------N 1 0.1 4.1 1073 42 282 0x10 40 0
- 0.459209 2 3 ack 576 ------N 1 0.1 4.1 1073 42 282 0x10 40 0
+ 0.459675 2 3 ack 576 ------N 1 0.1 4.1 1609 43 282 0x10 40 0
- 0.459675 2 3 ack 576 ------N 1 0.1 4.1 1609 43 282 0x10 40 0
+ 0.460142 2 3 ack 576 ------N 1 0.1 4.1 2145 44 282 0x10 40 0
- 0.460142 2 3 ack 576 ------N 1 0.1 4.1 2145 44 282 0x10 40 0
r 0.460255 2 3 ack 576 ------N 1 0.1 4.1 1073 42 282 0x10 40 0
+ 0.460608 2 3 ack 576 ------N 1 0.1 4.1 2681 45 282 0x10 40 0
- 0.460608 2 3 ack 576 ------N 1 0.1 4.1 2681 45 282 0x10 40 0
r 0.460721 2 3 ack 576 ------N 1 0.1 4.1 1609 43 282 0x10 40 0
r 0.461188 2 3 ack 576 ------N 1 0.1 4.1 2145 44 282 0x10 40 0
r 0.461654 2 3 ack 576 ------N 1 0.1 4.1 2681 45 282 0x10 40 0
+ 0.462064 3 2 tcp 40 ------- 5 4.5 0.5 462 50 401 0x18 40 0
- 0.462064 3 2 tcp 40 ------- 5 4.5 0.5 462 50 401 0x18 40 0
+ 0.462067 3 2 tcp 40 ------- 5 4.5 0.5 462 51 401 0x19 40 0
- 0.462067 3 2 tcp 40 ------- 5 4.5 0.5 462 51 401 0x19 40 0
r 0.463067 3 2 tcp 40 ------- 5 4.5 0.5 462 50 401 0x18 40 0
r 0.46307 3 2 tcp 40 ------- 5 4.5 0.5 462 51 401 0x19 40 0
+ 0.488399 2 3 ack 40 ------- 5 0.5 4.5 401 58 463 0x18 40 0
- 0.488399 2 3 ack 40 ------- 5 0.5 4.5 401 58 463 0x18 40 0
r 0.489402 2 3 ack 40 ------- 5 0.5 4.5 401 58 463 0x18 40 0
+ 0.489591 3 2 tcp 40 ------- 1 4.1 0.1 282 53 1609 0x18 40 0
- 0.489591 3 2 tcp 40 ------- 1 4.1 0.1 282 53 1609 0x18 40 0
+ 0.490058 3 2 tcp 40 ------- 1 4.1 0.1 282 54 2145 0x18 40 0
- 0.490058 3 2 tcp 40 ------- 1 4.1 0.1 282 54 2145 0x18 40 0
+ 0.490524 3 2 tcp 40 ------- 1 4.1 0.1 282 55 2681 0x18 40 0
- 0.490524 3 2 tcp 40 ------- 1 4.1 0.1 282 55 2681 0x18 40 0
r 0.490594 3 2 tcp 40 ------- 1 4.1 0.1 282 53 1609 0x18 40 0
+ 0.490991 3 2 tcp 40 ------- 1 4.1 0.1 282 56 3217 0x18 40 0
- 0.490991 3 2 tcp 40 ------- 1 4.1 0.1 282 56 3217 0x18 40 0
r 0.491061 3 2 tcp 40 ------- 1 4.1 0.1 282 54 2145 0x18 40 0
r 0.491527 3 2 tcp 40 ------- 1 4.1 0.1 282 55 2681 0x18 40 0
r 0.491994 3 2 tcp 40 ------- 1 4.1 0.1 282 56 3217 0x18 40 0
+ 0.493374 2 3 ack 179 ------N 2 0.2 4.2 1 52 463 0x19 40 0
- 0.493374 2 3 ack 179 ------N 2 0.2 4.2 1 52 463 0x19 40 0
r 0.494388 2 3 ack 179 ------N 2 0.2 4.2 1 52 463 0x19 40 0
+ 0.525075 3 2 tcp 40 ------- 2 4.2 0.2 463 64 141 0x18 40 0
- 0.525075 3 2 tcp 40 ------- 2 4.2 0.2 463 64 141 0x18 40 0
+ 0.525078 3 2 tcp 40 ------- 2 4.2 0.2 463 65 141 0x19 40 0
- 0.525078 3 2 tcp 40 ------- 2 4.2 0.2 463 65 141 0x19 40 0
+ 0.526038 2 3 ack 40 ------- 4 0.4 4.4 1 57 537 0x18 40 0
- 0.526038 2 3 ack 40 ------- 4 0.4 4.4 1 57 537 0x18 40 0
r 0.526078 3 2 tcp 40 ------- 2 4.2 0.2 463 64 141 0x18 40 0
r 0.526082 3 2 tcp 40 ------- 2 4.2 0.2 463 65 141 0x19 40 0
r 0.527041 2 3 ack 40 ------- 4 0.4 4.4 1 57 537 0x18 40 0
+ 0.528687 2 3 ack 576 ------N 3 0.3 4.3 1073 59 477 0x10 40 0
- 0.528687 2 3 ack 576 ------N 3 0.3 4.3 1073 59 477 0x10 40 0
+ 0.529098 2 3 ack 576 ------N 3 0.3 4.3 1609 60 477 0x10 40 0
- 0.529098 2 3 ack 576 ------N 3 0.3 4.3 1609 60 477 0x10 40 0
+ 0.529508 2 3 ack 576 ------N 3 0.3 4.3 2145 61 477 0x10 40 0
- 0.529508 2 3 ack 576 ------N 3 0.3 4.3 2145 61 477 0x10 40 0
r 0.529734 2 3 ack 576 ------N 3 0.3 4.3 1073 59 477 0x10 40 0
r 0.530144 2 3 ack 576 ------N 3 0.3 4.3 1609 60 477 0x10 40 0
r 0.530554 2 3 ack 576 ------N 3 0.3 4.3 2145 61 477 0x10 40 0
+ 0.541818 2 3 ack 576 ------N 6 0.6 4.6 1 62 396 0x10 40 0
- 0.541818 2 3 ack 576 ------N 6 0.6 4.6 1 62 396 0x10 40 0
+ 0.542777 2 3 ack 576 ------N 6 0.6 4.6 537 63 396 0x10 40 0
- 0.542777 2 3 ack 576 ------N 6 0.6 4.6 537 63 396 0x10 40 0
r 0.542864 2 3 ack 576 ------N 6 0.6 4.6 1 62 396 0x10 40 0
r 0.543823 2 3 ack 576 ------N 6 0.6 4.6 537 63 396 0x10 40 0
+ 0.546894 3 2 tcp 40 C--A--- 7 4.7 0.7 0 74 -1 0xca 40 0
- 0.546894 3 2 tcp 40 C--A--- 7 4.7 0.7 0 74 -1 0xca 40 0
r 0.547898 3 2 tcp 40 C--A--- 7 4.7 0.7 0 74 -1 0xca 40 0
+ 0.552624 2 3 ack 576 ------N 1 0.1 4.1 3217 66 282 0x10 40 0
- 0.552624 2 3 ack 576 ------N 1 0.1 4.1 3217 66 282 0x10 40 0
+ 0.552985 3 2 tcp 40 ------- 3 4.3 0.3 477 75 1609 0x18 40 0
- 0.552985 3 2 tcp 40 ------- 3 4.3 0.3 477 75 1609 0x18 40 0
+ 0.55309 2 3 ack 576 ------N 1 0.1 4.1 4289 68 282 0x10 40 0
- 0.55309 2 3 ack 576 ------N 1 0.1 4.1 4289 68 282 0x10 40 0
+ 0.553395 3 2 tcp 40 ------- 3 4.3 0.3 477 76 2145 0x18 40 0
- 0.553395 3 2 tcp 40 ------- 3 4.3 0.3 477 76 2145 0x18 40 0
+ 0.553557 2 3 ack 576 ------N 1 0.1 4.1 4825 69 282 0x10 40 0
- 0.553557 2 3 ack 576 ------N 1 0.1 4.1 4825 69 282 0x10 40 0
r 0.55367 2 3 ack 576 ------N 1 0.1 4.1 3217 66 282 0x10 40 0
+ 0.553805 3 2 tcp 40 ------- 3 4.3 0.3 477 77 2681 0x18 40 0
- 0.553805 3 2 tcp 40 ------- 3 4.3 0.3 477 77 2681 0x18 40 0
r 0.553988 3 2 tcp 40 ------- 3 4.3 0.3 477 75 1609 0x18 40 0
+ 0.554023 2 3 ack 576 ------N 1 0.1 4.1 5361 70 282 0x10 40 0
- 0.554023 2 3 ack 576 ------N 1 0.1 4.1 5361 70 282 0x10 40 0
r 0.554136 2 3 ack 576 ------N 1 0.1 4.1 4289 68 282 0x10 40 0
r 0.554398 3 2 tcp 40 ------- 3 4.3 0.3 477 76 2145 0x18 40 0
+ 0.55449 2 3 ack 576 ------N 1 0.1 4.1 5897 71 282 0x10 40 0
- 0.55449 2 3 ack 576 ------N 1 0.1 4.1 5897 71 282 0x10 40 0
r 0.554603 2 3 ack 576 ------N 1 0.1 4.1 4825 69 282 0x10 40 0
r 0.554808 3 2 tcp 40 ------- 3 4.3 0.3 477 77 2681 0x18 40 0
+ 0.554957 2 3 ack 576 ------N 1 0.1 4.1 6433 72 282 0x10 40 0
- 0.554957 2 3 ack 576 ------N 1 0.1 4.1 6433 72 282 0x10 40 0
r 0.55507 2 3 ack 576 ------N 1 0.1 4.1 5361 70 282 0x10 40 0
+ 0.555423 2 3 ack 576 ------N 1 0.1 4.1 6969 73 282 0x10 40 0
- 0.555423 2 3 ack 576 ------N 1 0.1 4.1 6969 73 282 0x10 40 0
r 0.555536 2 3 ack 576 ------N 1 0.1 4.1 5897 71 282 0x10 40 0
r 0.556003 2 3 ack 576 ------N 1 0.1 4.1 6433 72 282 0x10 40 0
r 0.556469 2 3 ack 576 ------N 1 0.1 4.1 6969 73 282 0x10 40 0
+ 0.56089 2 3 ack 40 ------- 2 0.2 4.2 141 81 464 0x18 40 0
- 0.56089 2 3 ack 40 ------- 2 0.2 4.2 141 81 464 0x18 40 0
r 0.561894 2 3 ack 40 ------- 2 0.2 4.2 141 81 464 0x18 40 0
+ 0.562244 3 2 tcp 59 ------N 4 4.4 0.4 537 78 1 0x18 40 0
- 0.562244 3 2 tcp 59 ------N 4 4.4 0.4 537 78 1 0x18 40 0
r 0.563249 3 2 tcp 59 ------N 4 4.4 0.4 537 78 1 0x18 40 0
+ 0.574666 3 2 tcp 40 ------- 6 4.6 0.6 396 79 537 0x18 40 0
- 0.574666 3 2 tcp 40 ------- 6 4.6 0.6 396 79 537 0x18 40 0
+ 0.575625 3 2 tcp 40 ------- 6 4.6 0.6 396 80 1073 0x18 40 0
- 0.575625 3 2 tcp 40 ------- 6 4.6 0.6 396 80 1073 0x18 40 0
r 0.57567 3 2 tcp 40 ------- 6 4.6 0.6 396 79 537 0x18 40 0
r 0.576628 3 2 tcp 40 ------- 6 4.6 0.6 396 80 1073 0x18 40 0
+ 0.583006 3 2 tcp 40 ------- 1 4.1 0.1 282 82 3753 0x18 40 0
- 0.583006 3 2 tcp 40 ------- 1 4.1 0.1 282 82 3753 0x18 40 0
+ 0.583473 3 2 tcp 40 ------- 1 4.1 0.1 282 83 3753 0x18 40 0
- 0.583473 3 2 tcp 40 ------- 1 4.1 0.1 282 83 3753 0x18 40 0
+ 0.58394 3 2 tcp 40 ------- 1 4.1 0.1 282 84 3753 0x18 40 0
- 0.58394 3 2 tcp 40 ------- 1 4.1 0.1 282 84 3753 0x18 40 0
r 0.58401 3 2 tcp 40 ------- 1 4.1 0.1 282 82 3753 0x18 40 0
+ 0.584406 3 2 tcp 40 ------- 1 4.1 0.1 282 85 3753 0x18 40 0
- 0.584406 3 2 tcp 40 ------- 1 4.1 0.1 282 85 3753 0x18 40 0
r 0.584476 3 2 tcp 40 ------- 1 4.1 0.1 282 83 3753 0x18 40 0
+ 0.584873 3 2 tcp 40 ------- 1 4.1 0.1 282 86 3753 0x18 40 0
- 0.584873 3 2 tcp 40 ------- 1 4.1 0.1 282 86 3753 0x18 40 0
r 0.584943 3 2 tcp 40 ------- 1 4.1 0.1 282 84 3753 0x18 40 0
+ 0.585339 3 2 tcp 40 ------- 1 4.1 0.1 282 87 3753 0x18 40 0
- 0.585339 3 2 tcp 40 ------- 1 4.1 0.1 282 87 3753 0x18 40 0
r 0.585409 3 2 tcp 40 ------- 1 4.1 0.1 282 85 3753 0x18 40 0
+ 0.585806 3 2 tcp 40 ------- 1 4.1 0.1 282 88 3753 0x18 40 0
- 0.585806 3 2 tcp 40 ------- 1 4.1 0.1 282 88 3753 0x18 40 0
r 0.585876 3 2 tcp 40 ------- 1 4.1 0.1 282 86 3753 0x18 40 0
r 0.586342 3 2 tcp 40 ------- 1 4.1 0.1 282 87 3753 0x18 40 0
r 0.586809 3 2 tcp 40 ------- 1 4.1 0.1 282 88 3753 0x18 40 0
+ 0.603616 2 3 ack 40 C-----N 7 0.7 4.7 0 89 1 0x5a 40 0
- 0.603616 2 3 ack 40 C-----N 7 0.7 4.7 0 89 1 0x5a 40 0
r 0.60462 2 3 ack 40 C-----N 7 0.7 4.7 0 89 1 0x5a 40 0
+ 0.616283 3 2 tcp 40 ------- 7 4.7 0.7 1 91 1 0x10 40 0
- 0.616283 3 2 tcp 40 ------- 7 4.7 0.7 1 91 1 0x10 40 0
+ 0.616303 3 2 tcp 249 ------N 7 4.7 0.7 1 92 1 0x18 40 0
- 0.616303 3 2 tcp 249 ------N 7 4.7 0.7 1 92 1 0x18 40 0
r 0.617286 3 2 tcp 40 ------- 7 4.7 0.7 1 91 1 0x10 40 0
r 0.617323 3 2 tcp 249 ------N 7 4.7 0.7 1 92 1 0x18 40 0
+ 0.633285 2 3 ack 403 ------N 3 0.3 4.3 2681 90 477 0x19 40 0
- 0.633285 2 3 ack 403 ------N 3 0.3 4.3 2681 90 477 0x19 40 0
r 0.634317 2 3 ack 403 ------N 3 0.3 4.3 2681 90 477 0x19 40 0
+ 0.646039 2 3 ack 576 ------N 1 0.1 4.1 7505 93 282 0x10 40 0
- 0.646039 2 3 ack 576 ------N 1 0.1 4.1 7505 93 282 0x10 40 0
+ 0.646506 2 3 ack 576 ------N 1 0.1 4.1 8041 94 282 0x10 40 0
- 0.646506 2 3 ack 576 ------N 1 0.1 4.1 8041 94 282 0x10 40 0
r 0.647085 2 3 ack 576 ------N 1 0.1 4.1 7505 93 282 0x10 40 0
+ 0.647439 2 3 ack 576 ---A--N 1 0.1 4.1 3753 95 282 0x90 40 0
- 0.647439 2 3 ack 576 ---A--N 1 0.1 4.1 3753 95 282 0x90 40 0
r 0.647552 2 3 ack 576 ------N 1 0.1 4.1 8041 94 282 0x10 40 0
r 0.648485 2 3 ack 576 ---A--N 1 0.1 4.1 3753 95 282 0x90 40 0
+ 0.648838 2 3 ack 576 ------N 1 0.1 4.1 8577 96 282 0x10 40 0
- 0.648838 2 3 ack 576 ------N 1 0.1 4.1 8577 96 282 0x10 40 0
r 0.649884 2 3 ack 576 ------N 1 0.1 4.1 8577 96 282 0x10 40 0
+ 0.657554 3 2 tcp 40 ------- 3 4.3 0.3 477 102 3045 0x18 40 0
- 0.657554 3 2 tcp 40 ------- 3 4.3 0.3 477 102 3045 0x18 40 0
r 0.658558 3 2 tcp 40 ------- 3 4.3 0.3 477 102 3045 0x18 40 0
+ 0.66514 2 3 ack 576 ------N 6 0.6 4.6 1073 97 396 0x10 40 0
- 0.66514 2 3 ack 576 ------N 6 0.6 4.6 1073 97 396 0x10 40 0
+ 0.666099 2 3 ack 576 ------N 6 0.6 4.6 1609 98 396 0x10 40 0
- 0.666099 2 3 ack 576 ------N 6 0.6 4.6 1609 98 396 0x10 40 0
r 0.666186 2 3 ack 576 ------N 6 0.6 4.6 1073 97 396 0x10 40 0
+ 0.667058 2 3 ack 576 ------N 6 0.6 4.6 2145 99 396 0x10 40 0
- 0.667058 2 3 ack 576 ------N 6 0.6 4.6 2145 99 396 0x10 40 0
r 0.667145 2 3 ack 576 ------N 6 0.6 4.6 1609 98 396 0x10 40 0
r 0.668104 2 3 ack 576 ------N 6 0.6 4.6 2145 99 396 0x10 40 0
+ 0.674363 2 3 ack 192 ------N 7 0.7 4.7 1 104 210 0x19 40 0
- 0.674363 2 3 ack 192 ------N 7 0.7 4.7 1 104 210 0x19 40 0
r 0.675378 2 3 ack 192 ------N 7 0.7 4.7 1 104 210 0x19 40 0
+ 0.676422 3 2 tcp 40 ------- 1 4.1 0.1 282 105 3753 0x18 40 0
- 0.676422 3 2 tcp 40 ------- 1 4.1 0.1 282 105 3753 0x18 40 0
+ 0.676888 3 2 tcp 40 ------- 1 4.1 0.1 282 106 3753 0x18 40 0
- 0.676888 3 2 tcp 40 ------- 1 4.1 0.1 282 106 3753 0x18 40 0
r 0.677425 3 2 tcp 40 ------- 1 4.1 0.1 282 105 3753 0x18 40 0
+ 0.677821 3 2 tcp 40 ------- 1 4.1 0.1 282 107 8577 0x18 40 0
- 0.677821 3 2 tcp 40 ------- 1 4.1 0.1 282 107 8577 0x18 40 0
r 0.677891 3 2 tcp 40 ------- 1 4.1 0.1 282 106 3753 0x18 40 0
r 0.678825 3 2 tcp 40 ------- 1 4.1 0.1 282 107 8577 0x18 40 0
+ 0.679221 3 2 tcp 40 ------- 1 4.1 0.1 282 108 9113 0x18 40 0
- 0.679221 3 2 tcp 40 ------- 1 4.1 0.1 282 108 9113 0x18 40 0
r 0.680224 3 2 tcp 40 ------- 1 4.1 0.1 282 108 9113 0x18 40 0
+ 0.687054 3 2 tcp 40 ------- 7 4.7 0.7 210 109 154 0x18 40 0
- 0.687054 3 2 tcp 40 ------- 7 4.7 0.7 210 109 154 0x18 40 0
+ 0.687057 3 2 tcp 40 ------- 7 4.7 0.7 210 110 154 0x19 40 0
- 0.687057 3 2 tcp 40 ------- 7 4.7 0.7 210 110 154 0x19 40 0
r 0.688057 3 2 tcp 40 ------- 7 4.7 0.7 210 109 154 0x18 40 0
r 0.68806 3 2 tcp 40 ------- 7 4.7 0.7 210 110 154 0x19 40 0
+ 0.691264 2 3 ack 576 ------N 4 0.4 4.4 1 100 556 0x10 40 0
- 0.691264 2 3 ack 576 ------N 4 0.4 4.4 1 100 556 0x10 40 0
r 0.69231 2 3 ack 576 ------N 4 0.4 4.4 1 100 556 0x10 40 0
+ 0.69323 2 3 ack 576 ------N 4 0.4 4.4 537 101 556 0x10 40 0
- 0.69323 2 3 ack 576 ------N 4 0.4 4.4 537 101 556 0x10 40 0
r 0.694276 2 3 ack 576 ------N 4 0.4 4.4 537 101 556 0x10 40 0
+ 0.697989 3 2 tcp 40 ------- 6 4.6 0.6 396 111 1609 0x18 40 0
- 0.697989 3 2 tcp 40 ------- 6 4.6 0.6 396 111 1609 0x18 40 0
+ 0.698948 3 2 tcp 40 ------- 6 4.6 0.6 396 112 2145 0x18 40 0
- 0.698948 3 2 tcp 40 ------- 6 4.6 0.6 396 112 2145 0x18 40 0
r 0.698992 3 2 tcp 40 ------- 6 4.6 0.6 396 111 1609 0x18 40 0
+ 0.699906 3 2 tcp 40 ------- 6 4.6 0.6 396 113 2681 0x18 40 0
- 0.699906 3 2 tcp 40 ------- 6 4.6 0.6 396 113 2681 0x18 40 0
r 0.699951 3 2 tcp 40 ------- 6 4.6 0.6 396 112 2145 0x18 40 0
r 0.70091 3 2 tcp 40 ------- 6 4.6 0.6 396 113 2681 0x18 40 0
+ 0.717017 2 3 ack 40 ------- 7 0.7 4.7 154 120 211 0x18 40 0
- 0.717017 2 3 ack 40 ------- 7 0.7 4.7 154 120 211 0x18 40 0
r 0.718021 2 3 ack 40 ------- 7 0.7 4.7 154 120 211 0x18 40 0
+ 0.727555 3 2 tcp 40 ------- 4 4.4 0.4 556 117 537 0x18 40 0
- 0.727555 3 2 tcp 40 ------- 4 4.4 0.4 556 117 537 0x18 40 0
r 0.728558 3 2 tcp 40 ------- 4 4.4 0.4 556 117 537 0x18 40 0
+ 0.729521 3 2 tcp 40 ------- 4 4.4 0.4 556 119 1073 0x18 40 0
- 0.729521 3 2 tcp 40 ------- 4 4.4 0.4 556 119 1073 0x18 40 0
r 0.730524 3 2 tcp 40 ------- 4 4.4 0.4 556 119 1073 0x18 40 0
+ 0.739454 2 3 ack 576 ------N 1 0.1 4.1 9113 114 282 0x10 40 0
- 0.739454 2 3 ack 576 ------N 1 0.1 4.1 9113 114 282 0x10 40 0
+ 0.739921 2 3 ack 576 ------N 1 0.1 4.1 9649 115 282 0x10 40 0
- 0.739921 2 3 ack 576 ------N 1 0.1 4.1 9649 115 282 0x10 40 0
r 0.7405 2 3 ack 576 ------N 1 0.1 4.1 9113 114 282 0x10 40 0
+ 0.740854 2 3 ack 576 ------N 1 0.1 4.1 10185 116 282 0x10 40 0
- 0.740854 2 3 ack 576 ------N 1 0.1 4.1 10185 116 282 0x10 40 0
r 0.740967 2 3 ack 576 ------N 1 0.1 4.1 9649 115 282 0x10 40 0
r 0.7419 2 3 ack 576 ------N 1 0.1 4.1 10185 116 282 0x10 40 0
+ 0.742254 2 3 ack 576 ------N 1 0.1 4.1 10721 118 282 0x10 40 0
- 0.742254 2 3 ack 576 ------N 1 0.1 4.1 10721 118 282 0x10 40 0
r 0.7433 2 3 ack 576 ------N 1 0.1 4.1 10721 118 282 0x10 40 0
+ 0.769837 3 2 tcp 40 ------- 1 4.1 0.1 282 122 9649 0x18 40 0
- 0.769837 3 2 tcp 40 ------- 1 4.1 0.1 282 122 9649 0x18 40 0
+ 0.770304 3 2 tcp 40 ------- 1 4.1 0.1 282 123 10185 0x18 40 0
- 0.770304 3 2 tcp 40 ------- 1 4.1 0.1 282 123 10185 0x18 40 0
r 0.77084 3 2 tcp 40 ------- 1 4.1 0.1 282 122 9649 0x18 40 0
+ 0.771237 3 2 tcp 40 ------- 1 4.1 0.1 282 124 10721 0x18 40 0
- 0.771237 3 2 tcp 40 ------- 1 4.1 0.1 282 124 10721 0x18 40 0
r 0.771307 3 2 tcp 40 ------- 1 4.1 0.1 282 123 10185 0x18 40 0
r 0.77224 3 2 tcp 40 ------- 1 4.1 0.1 282 124 10721 0x18 40 0
+ 0.772636 3 2 tcp 40 ------- 1 4.1 0.1 282 125 11257 0x18 40 0
- 0.772636 3 2 tcp 40 ------- 1 4.1 0.1 282 125 11257 0x18 40 0
r 0.773639 3 2 tcp 40 ------- 1 4.1 0.1 282 125 11257 0x18 40 0
+ 0.790358 2 3 ack 295 ------N 6 0.6 4.6 2681 121 396 0x19 40 0
- 0.790358 2 3 ack 295 ------N 6 0.6 4.6 2681 121 396 0x19 40 0
r 0.791381 2 3 ack 295 ------N 6 0.6 4.6 2681 121 396 0x19 40 0
+ 0.823161 3 2 tcp 40 ------- 6 4.6 0.6 396 135 2937 0x18 40 0
- 0.823161 3 2 tcp 40 ------- 6 4.6 0.6 396 135 2937 0x18 40 0
+ 0.823164 3 2 tcp 40 ------- 6 4.6 0.6 396 136 2937 0x19 40 0
- 0.823164 3 2 tcp 40 ------- 6 4.6 0.6 396 136 2937 0x19 40 0
r 0.824164 3 2 tcp 40 ------- 6 4.6 0.6 396 135 2937 0x18 40 0
r 0.824168 3 2 tcp 40 ------- 6 4.6 0.6 396 136 2937 0x19 40 0
+ 0.82548 2 3 ack 576 ------N 4 0.4 4.4 1073 126 556 0x10 40 0
- 0.82548 2 3 ack 576 ------N 4 0.4 4.4 1073 126 556 0x10 40 0
r 0.826526 2 3 ack 576 ------N 4 0.4 4.4 1073 126 556 0x10 40 0
+ 0.827445 2 3 ack 576 ------N 4 0.4 4.4 1609 127 556 0x10 40 0
- 0.827445 2 3 ack 576 ------N 4 0.4 4.4 1609 127 556 0x10 40 0
r 0.828491 2 3 ack 576 ------N 4 0.4 4.4 1609 127 556 0x10 40 0
+ 0.829411 2 3 ack 576 ------N 4 0.4 4.4 2145 128 556 0x10 40 0
- 0.829411 2 3 ack 576 ------N 4 0.4 4.4 2145 128 556 0x10 40 0
r 0.830457 2 3 ack 576 ------N 4 0.4 4.4 2145 128 556 0x10 40 0
+ 0.831377 2 3 ack 576 ------N 4 0.4 4.4 2681 129 556 0x10 40 0
- 0.831377 2 3 ack 576 ------N 4 0.4 4.4 2681 129 556 0x10 40 0
r 0.832423 2 3 ack 576 ------N 4 0.4 4.4 2681 129 556 0x10 40 0
+ 0.83287 2 3 ack 576 ------N 1 0.1 4.1 11257 130 282 0x10 40 0
- 0.83287 2 3 ack 576 ------N 1 0.1 4.1 11257 130 282 0x10 40 0
+ 0.833336 2 3 ack 576 ------N 1 0.1 4.1 11793 131 282 0x10 40 0
- 0.833336 2 3 ack 576 ------N 1 0.1 4.1 11793 131 282 0x10 40 0
r 0.833916 2 3 ack 576 ------N 1 0.1 4.1 11257 130 282 0x10 40 0
+ 0.834269 2 3 ack 576 ------N 1 0.1 4.1 12329 132 282 0x10 40 0
- 0.834269 2 3 ack 576 ------N 1 0.1 4.1 12329 132 282 0x10 40 0
r 0.834382 2 3 ack 576 ------N 1 0.1 4.1 11793 131 282 0x10 40 0
+ 0.834736 2 3 ack 576 ------N 1 0.1 4.1 12865 133 282 0x10 40 0
- 0.834736 2 3 ack 576 ------N 1 0.1 4.1 12865 133 282 0x10 40 0
r 0.835315 2 3 ack 576 ------N 1 0.1 4.1 12329 132 282 0x10 40 0
+ 0.835669 2 3 ack 576 ------N 1 0.1 4.1 13401 134 282 0x10 40 0
- 0.835669 2 3 ack 576 ------N 1 0.1 4.1 13401 134 282 0x10 40 0
r 0.835782 2 3 ack 576 ------N 1 0.1 4.1 12865 133 282 0x10 40 0
r 0.836715 2 3 ack 576 ------N 1 0.1 4.1 13401 134 282 0x10 40 0
+ 0.861771 3 2 tcp 40 ------- 4 4.4 0.4 556 137 1609 0x18 40 0
- 0.861771 3 2 tcp 40 ------- 4 4.4 0.4 556 137 1609 0x18 40 0
r 0.862774 3 2 tcp 40 ------- 4 4.4 0.4 556 137 1609 0x18 40 0
+ 0.863252 3 2 tcp 40 ------- 1 4.1 0.1 282 139 11793 0x18 40 0
- 0.863252 3 2 tcp 40 ------- 1 4.1 0.1 282 139 11793 0x18 40 0
+ 0.863719 3 2 tcp 40 ------- 1 4.1 0.1 282 140 12329 0x18 40 0
- 0.863719 3 2 tcp 40 ------- 1 4.1 0.1 282 140 12329 0x18 40 0
r 0.864255 3 2 tcp 40 ------- 1 4.1 0.1 282 139 11793 0x18 40 0
+ 0.864652 3 2 tcp 40 ------- 1 4.1 0.1 282 141 12865 0x18 40 0
- 0.864652 3 2 tcp 40 ------- 1 4.1 0.1 282 141 12865 0x18 40 0
r 0.864722 3 2 tcp 40 ------- 1 4.1 0.1 282 140 12329 0x18 40 0
+ 0.865118 3 2 tcp 40 ------- 1 4.1 0.1 282 143 13401 0x18 40 0
- 0.865118 3 2 tcp 40 ------- 1 4.1 0.1 282 143 13401 0x18 40 0
r 0.865655 3 2 tcp 40 ------- 1 4.1 0.1 282 141 12865 0x18 40 0
+ 0.865702 3 2 tcp 40 ------- 4 4.4 0.4 556 138 1609 0x18 40 0
- 0.865702 3 2 tcp 40 ------- 4 4.4 0.4 556 138 1609 0x18 40 0
+ 0.866051 3 2 tcp 40 ------- 1 4.1 0.1 282 144 13937 0x18 40 0
- 0.866051 3 2 tcp 40 ------- 1 4.1 0.1 282 144 13937 0x18 40 0
r 0.866122 3 2 tcp 40 ------- 1 4.1 0.1 282 143 13401 0x18 40 0
r 0.866705 3 2 tcp 40 ------- 4 4.4 0.4 556 138 1609 0x18 40 0
r 0.867055 3 2 tcp 40 ------- 1 4.1 0.1 282 144 13937 0x18 40 0
+ 0.867668 3 2 tcp 40 ------- 4 4.4 0.4 556 142 1609 0x18 40 0
- 0.867668 3 2 tcp 40 ------- 4 4.4 0.4 556 142 1609 0x18 40 0
r 0.868671 3 2 tcp 40 ------- 4 4.4 0.4 556 142 1609 0x18 40 0
+ 0.869948 2 3 ack 40 ------- 6 0.6 4.6 2937 145 397 0x18 40 0
- 0.869948 2 3 ack 40 ------- 6 0.6 4.6 2937 145 397 0x18 40 0
r 0.870951 2 3 ack 40 ------- 6 0.6 4.6 2937 145 397 0x18 40 0
+ 0.926285 2 3 ack 576 ------N 1 0.1 4.1 13937 146 282 0x10 40 0
- 0.926285 2 3 ack 576 ------N 1 0.1 4.1 13937 146 282 0x10 40 0
+ 0.926751 2 3 ack 576 ------N 1 0.1 4.1 14473 147 282 0x10 40 0
- 0.926751 2 3 ack 576 ------N 1 0.1 4.1 14473 147 282 0x10 40 0
r 0.927331 2 3 ack 576 ------N 1 0.1 4.1 13937 146 282 0x10 40 0
+ 0.927685 2 3 ack 576 ------N 1 0.1 4.1 15009 148 282 0x10 40 0
- 0.927685 2 3 ack 576 ------N 1 0.1 4.1 15009 148 282 0x10 40 0
r 0.927798 2 3 ack 576 ------N 1 0.1 4.1 14473 147 282 0x10 40 0
+ 0.928151 2 3 ack 576 ------N 1 0.1 4.1 15545 149 282 0x10 40 0
- 0.928151 2 3 ack 576 ------N 1 0.1 4.1 15545 149 282 0x10 40 0
+ 0.928618 2 3 ack 576 ------N 1 0.1 4.1 16081 150 282 0x10 40 0
- 0.928618 2 3 ack 576 ------N 1 0.1 4.1 16081 150 282 0x10 40 0
r 0.928731 2 3 ack 576 ------N 1 0.1 4.1 15009 148 282 0x10 40 0
+ 0.929084 2 3 ack 576 ------N 1 0.1 4.1 16617 151 282 0x10 40 0
- 0.929084 2 3 ack 576 ------N 1 0.1 4.1 16617 151 282 0x10 40 0
r 0.929197 2 3 ack 576 ------N 1 0.1 4.1 15545 149 282 0x10 40 0
r 0.929664 2 3 ack 576 ------N 1 0.1 4.1 16081 150 282 0x10 40 0
r 0.93013 2 3 ack 576 ------N 1 0.1 4.1 16617 151 282 0x10 40 0
+ 0.956667 3 2 tcp 40 ------- 1 4.1 0.1 282 154 14473 0x18 40 0
- 0.956667 3 2 tcp 40 ------- 1 4.1 0.1 282 154 14473 0x18 40 0
+ 0.957134 3 2 tcp 40 ------- 1 4.1 0.1 282 155 15009 0x18 40 0
- 0.957134 3 2 tcp 40 ------- 1 4.1 0.1 282 155 15009 0x18 40 0
r 0.957671 3 2 tcp 40 ------- 1 4.1 0.1 282 154 14473 0x18 40 0
+ 0.958067 3 2 tcp 40 ------- 1 4.1 0.1 282 156 15545 0x18 40 0
- 0.958067 3 2 tcp 40 ------- 1 4.1 0.1 282 156 15545 0x18 40 0
r 0.958137 3 2 tcp 40 ------- 1 4.1 0.1 282 155 15009 0x18 40 0
+ 0.958534 3 2 tcp 40 ------- 1 4.1 0.1 282 157 16081 0x18 40 0
- 0.958534 3 2 tcp 40 ------- 1 4.1 0.1 282 157 16081 0x18 40 0
+ 0.959 3 2 tcp 40 ------- 1 4.1 0.1 282 158 16617 0x18 40 0
- 0.959 3 2 tcp 40 ------- 1 4.1 0.1 282 158 16617 0x18 40 0
r 0.95907 3 2 tcp 40 ------- 1 4.1 0.1 282 156 15545 0x18 40 0
+ 0.959467 3 2 tcp 40 ------- 1 4.1 0.1 282 159 17153 0x18 40 0
- 0.959467 3 2 tcp 40 ------- 1 4.1 0.1 282 159 17153 0x18 40 0
r 0.959537 3 2 tcp 40 ------- 1 4.1 0.1 282 157 16081 0x18 40 0
+ 0.959695 2 3 ack 576 ------N 4 0.4 4.4 3217 152 556 0x10 40 0
- 0.959695 2 3 ack 576 ------N 4 0.4 4.4 3217 152 556 0x10 40 0
r 0.960003 3 2 tcp 40 ------- 1 4.1 0.1 282 158 16617 0x18 40 0
r 0.96047 3 2 tcp 40 ------- 1 4.1 0.1 282 159 17153 0x18 40 0
r 0.960741 2 3 ack 576 ------N 4 0.4 4.4 3217 152 556 0x10 40 0
+ 0.961661 2 3 ack 576 ------N 4 0.4 4.4 3753 153 556 0x10 40 0
- 0.961661 2 3 ack 576 ------N 4 0.4 4.4 3753 153 556 0x10 40 0
r 0.962707 2 3 ack 576 ------N 4 0.4 4.4 3753 153 556 0x10 40 0
+ 0.995986 3 2 tcp 40 ------- 4 4.4 0.4 556 160 1609 0x18 40 0
- 0.995986 3 2 tcp 40 ------- 4 4.4 0.4 556 160 1609 0x18 40 0
r 0.996989 3 2 tcp 40 ------- 4 4.4 0.4 556 160 1609 0x18 40 0
+ 0.997952 3 2 tcp 40 ------- 4 4.4 0.4 556 161 1609 0x18 40 0
- 0.997952 3 2 tcp 40 ------- 4 4.4 0.4 556 161 1609 0x18 40 0
r 0.998955 3 2 tcp 40 ------- 4 4.4 0.4 556 161 1609 0x18 40 0
+ 1.0197 2 3 ack 576 ------N 1 0.1 4.1 17153 162 282 0x10 40 0
- 1.0197 2 3 ack 576 ------N 1 0.1 4.1 17153 162 282 0x10 40 0
+ 1.020167 2 3 ack 576 ------N 1 0.1 4.1 17689 163 282 0x10 40 0
- 1.020167 2 3 ack 576 ------N 1 0.1 4.1 17689 163 282 0x10 40 0
r 1.020746 2 3 ack 576 ------N 1 0.1 4.1 17153 162 282 0x10 40 0
+ 1.0211 2 3 ack 576 ------N 1 0.1 4.1 18225 164 282 0x10 40 0
- 1.0211 2 3 ack 576 ------N 1 0.1 4.1 18225 164 282 0x10 40 0
r 1.021213 2 3 ack 576 ------N 1 0.1 4.1 17689 163 282 0x10 40 0