+ 0.009626 3 2 tcp 40 C--A--- 0 4.0 0.0 0 0 -1 0xca 40 0
- 0.009626 3 2 tcp 40 C--A--- 0 4.0 0.0 0 0 -1 0xca 40 0
r 0.010629 3 2 tcp 40 C--A--- 0 4.0 0.0 0 0 -1 0xca 40 0
+ 0.109984 2 3 ack 40 C-----N 0 0.0 4.0 0 1 1 0x5a 40 0
- 0.109984 2 3 ack 40 C---E-N 0 0.0 4.0 0 1 1 0x5a 40 0
r 0.110987 2 3 ack 40 C---E-N 0 0.0 4.0 0 1 1 0x5a 40 0
+ 0.130239 3 2 tcp 40 C------ 0 4.0 0.0 1 2 -1 0x50 40 0
- 0.130239 3 2 tcp 40 C------ 0 4.0 0.0 1 2 -1 0x50 40 0
r 0.131243 3 2 tcp 40 C------ 0 4.0 0.0 1 2 -1 0x50 40 0
+ 0.149852 3 2 tcp 40 C--A--- 1 4.1 0.1 0 3 -1 0xca 40 0
- 0.149852 3 2 tcp 40 C--A--- 1 4.1 0.1 0 3 -1 0xca 40 0
r 0.150855 3 2 tcp 40 C--A--- 1 4.1 0.1 0 3 -1 0xca 40 0
+ 0.212842 2 3 ack 40 C-----N 1 0.1 4.1 0 5 1 0x5a 40 0
- 0.212842 2 3 ack 40 C-----N 1 0.1 4.1 0 5 1 0x5a 40 0
r 0.213845 2 3 ack 40 C-----N 1 0.1 4.1 0 5 1 0x5a 40 0
+ 0.224423 3 2 tcp 40 C--A--- 2 4.2 0.2 0 6 -1 0xca 40 0
- 0.224423 3 2 tcp 40 C--A--- 2 4.2 0.2 0 6 -1 0xca 40 0
r 0.225426 3 2 tcp 40 C--A--- 2 4.2 0.2 0 6 -1 0xca 40 0
+ 0.227778 3 2 tcp 40 C--A--- 3 4.3 0.3 0 7 -1 0xca 40 0
- 0.227778 3 2 tcp 40 C--A--- 3 4.3 0.3 0 7 -1 0xca 40 0
r 0.228782 3 2 tcp 40 C--A--- 3 4.3 0.3 0 7 -1 0xca 40 0
+ 0.230597 2 3 ack 40 C------ 0 0.0 4.0 0 4 1 0x5a 40 0
- 0.230597 2 3 ack 40 C------ 0 0.0 4.0 0 4 1 0x5a 40 0
r 0.2316 2 3 ack 40 C------ 0 0.0 4.0 0 4 1 0x5a 40 0
+ 0.243139 3 2 tcp 40 ------- 1 4.1 0.1 1 8 1 0x10 40 0
- 0.243139 3 2 tcp 40 ------- 1 4.1 0.1 1 8 1 0x10 40 0
+ 0.243164 3 2 tcp 321 ------N 1 4.1 0.1 1 9 1 0x18 40 0
- 0.243164 3 2 tcp 321 ------N 1 4.1 0.1 1 9 1 0x18 40 0
r 0.244142 3 2 tcp 40 ------- 1 4.1 0.1 1 8 1 0x10 40 0
r 0.24419 3 2 tcp 321 ------N 1 4.1 0.1 1 9 1 0x18 40 0
+ 0.250853 3 2 tcp 40 ------- 0 4.0 0.0 1 10 1 0x10 40 0
- 0.250853 3 2 tcp 40 ------- 0 4.0 0.0 1 10 1 0x10 40 0
+ 0.250899 3 2 tcp 576 ------N 0 4.0 0.0 1 11 1 0x10 40 0
- 0.250899 3 2 tcp 576 ------N 0 4.0 0.0 1 11 1 0x10 40 0
r 0.251856 3 2 tcp 40 ------- 0 4.0 0.0 1 10 1 0x10 40 0
r 0.251945 3 2 tcp 576 ------N 0 4.0 0.0 1 11 1 0x10 40 0
+ 0.292248 3 2 tcp 40 C--A--- 5 4.5 0.5 0 15 -1 0xca 40 0
- 0.292248 3 2 tcp 40 C--A--- 5 4.5 0.5 0 15 -1 0xca 40 0
+ 0.292996 2 3 ack 40 C-----N 2 0.2 4.2 0 12 1 0x5a 40 0
- 0.292996 2 3 ack 40 C-----N 2 0.2 4.2 0 12 1 0x5a 40 0
r 0.293252 3 2 tcp 40 C--A--- 5 4.5 0.5 0 15 -1 0xca 40 0
+ 0.29389 3 2 tcp 40 C--A--- 4 4.4 0.4 0 14 -1 0xca 40 0
- 0.29389 3 2 tcp 40 C--A--- 4 4.4 0.4 0 14 -1 0xca 40 0
r 0.293999 2 3 ack 40 C-----N 2 0.2 4.2 0 12 1 0x5a 40 0
r 0.294893 3 2 tcp 40 C--A--- 4 4.4 0.4 0 14 -1 0xca 40 0
+ 0.307229 2 3 ack 40 C-----N 3 0.3 4.3 0 13 1 0x5a 40 0
- 0.307229 2 3 ack 40 C-----N 3 0.3 4.3 0 13 1 0x5a 40 0
r 0.308232 2 3 ack 40 C-----N 3 0.3 4.3 0 13 1 0x5a 40 0
+ 0.324439 3 2 tcp 40 C--A--- 6 4.6 0.6 0 18 -1 0xca 40 0
- 0.324439 3 2 tcp 40 C--A--- 6 4.6 0.6 0 18 -1 0xca 40 0
+ 0.324675 3 2 tcp 40 ------- 2 4.2 0.2 1 19 1 0x10 40 0
- 0.324675 3 2 tcp 40 ------- 2 4.2 0.2 1 19 1 0x10 40 0
+ 0.324715 3 2 tcp 502 ------N 2 4.2 0.2 1 20 1 0x18 40 0
- 0.324715 3 2 tcp 502 ------N 2 4.2 0.2 1 20 1 0x18 40 0
r 0.325442 3 2 tcp 40 C--A--- 6 4.6 0.6 0 18 -1 0xca 40 0
r 0.325678 3 2 tcp 40 ------- 2 4.2 0.2 1 19 1 0x10 40 0
r 0.325756 3 2 tcp 502 ------N 2 4.2 0.2 1 20 1 0x18 40 0
+ 0.330993 2 3 ack 40 ------- 1 0.1 4.1 1 16 282 0x18 40 0
- 0.330993 2 3 ack 40 ------- 1 0.1 4.1 1 16 282 0x18 40 0
+ 0.331441 3 2 tcp 40 ------- 3 4.3 0.3 1 22 1 0x10 40 0
- 0.331441 3 2 tcp 40 ------- 3 4.3 0.3 1 22 1 0x10 40 0
+ 0.331482 3 2 tcp 516 ------N 3 4.3 0.3 1 23 1 0x18 40 0
- 0.331482 3 2 tcp 516 ------N 3 4.3 0.3 1 23 1 0x18 40 0
r 0.331997 2 3 ack 40 ------- 1 0.1 4.1 1 16 282 0x18 40 0
r 0.332444 3 2 tcp 40 ------- 3 4.3 0.3 1 22 1 0x10 40 0
r 0.332523 3 2 tcp 516 ------N 3 4.3 0.3 1 23 1 0x18 40 0
+ 0.341695 2 3 ack 40 C-----N 5 0.5 4.5 0 21 1 0x5a 40 0
- 0.341695 2 3 ack 40 C-----N 5 0.5 4.5 0 21 1 0x5a 40 0
r 0.342698 2 3 ack 40 C-----N 5 0.5 4.5 0 21 1 0x5a 40 0
+ 0.351342 2 3 ack 40 ------- 0 0.0 4.0 1 17 537 0x18 40 0
- 0.351342 2 3 ack 40 ------- 0 0.0 4.0 1 17 537 0x18 40 0
r 0.352345 2 3 ack 40 ------- 0 0.0 4.0 1 17 537 0x18 40 0
+ 0.365793 2 3 ack 576 ------N 1 0.1 4.1 1 24 282 0x10 40 0
- 0.365793 2 3 ack 576 ------N 1 0.1 4.1 1 24 282 0x10 40 0
+ 0.366055 2 3 ack 576 ------N 1 0.1 4.1 537 25 282 0x10 40 0
- 0.366055 2 3 ack 576 ------N 1 0.1 4.1 537 25 282 0x10 40 0
r 0.366839 2 3 ack 576 ------N 1 0.1 4.1 1 24 282 0x10 40 0
r 0.367101 2 3 ack 576 ------N 1 0.1 4.1 537 25 282 0x10 40 0
+ 0.371624 3 2 tcp 372 ------N 0 4.0 0.0 537 30 1 0x18 40 0
- 0.371624 3 2 tcp 372 ------N 0 4.0 0.0 537 30 1 0x18 40 0
r 0.372654 3 2 tcp 372 ------N 0 4.0 0.0 537 30 1 0x18 40 0
+ 0.37434 3 2 tcp 40 ------- 5 4.5 0.5 1 27 1 0x10 40 0
- 0.37434 3 2 tcp 40 ------- 5 4.5 0.5 1 27 1 0x10 40 0
+ 0.37438 3 2 tcp 501 ------N 5 4.5 0.5 1 28 1 0x18 40 0
- 0.37438 3 2 tcp 501 ------N 5 4.5 0.5 1 28 1 0x18 40 0
r 0.375343 3 2 tcp 40 ------- 5 4.5 0.5 1 27 1 0x10 40 0
r 0.37542 3 2 tcp 501 ------N 5 4.5 0.5 1 28 1 0x18 40 0
+ 0.391772 2 3 ack 40 C-----N 4 0.4 4.4 0 26 1 0x5a 40 0
- 0.391772 2 3 ack 40 C-----N 4 0.4 4.4 0 26 1 0x5a 40 0
r 0.392775 2 3 ack 40 C-----N 4 0.4 4.4 0 26 1 0x5a 40 0
+ 0.394275 2 3 ack 179 ------N 2 0.2 4.2 1 29 463 0x19 40 0
- 0.394275 2 3 ack 179 ------N 2 0.2 4.2 1 29 463 0x19 40 0
r 0.395289 2 3 ack 179 ------N 2 0.2 4.2 1 29 463 0x19 40 0
+ 0.396176 3 2 tcp 40 ------- 1 4.1 0.1 282 32 537 0x18 40 0
- 0.396176 3 2 tcp 40 ------- 1 4.1 0.1 282 32 537 0x18 40 0
+ 0.396438 3 2 tcp 40 ------- 1 4.1 0.1 282 33 1073 0x18 40 0
- 0.396438 3 2 tcp 40 ------- 1 4.1 0.1 282 33 1073 0x18 40 0
r 0.397179 3 2 tcp 40 ------- 1 4.1 0.1 282 32 537 0x18 40 0
r 0.397441 3 2 tcp 40 ------- 1 4.1 0.1 282 33 1073 0x18 40 0
+ 0.41487 2 3 ack 40 C-----N 6 0.6 4.6 0 31 1 0x5a 40 0
- 0.41487 2 3 ack 40 C-----N 6 0.6 4.6 0 31 1 0x5a 40 0
r 0.415873 2 3 ack 40 C-----N 6 0.6 4.6 0 31 1 0x5a 40 0
+ 0.424225 2 3 ack 40 ------- 5 0.5 4.5 1 35 462 0x18 40 0
- 0.424225 2 3 ack 40 ------- 5 0.5 4.5 1 35 462 0x18 40 0
r 0.425228 2 3 ack 40 ------- 5 0.5 4.5 1 35 462 0x18 40 0
+ 0.425976 3 2 tcp 40 ------- 2 4.2 0.2 463 38 141 0x18 40 0
- 0.425976 3 2 tcp 40 ------- 2 4.2 0.2 463 38 141 0x18 40 0
+ 0.425979 3 2 tcp 40 ------- 2 4.2 0.2 463 39 141 0x19 40 0
- 0.425979 3 2 tcp 40 ------- 2 4.2 0.2 463 39 141 0x19 40 0
r 0.426979 3 2 tcp 40 ------- 2 4.2 0.2 463 38 141 0x18 40 0
r 0.426982 3 2 tcp 40 ------- 2 4.2 0.2 463 39 141 0x19 40 0
+ 0.427977 3 2 tcp 40 ------- 4 4.4 0.4 1 36 1 0x10 40 0
- 0.427977 3 2 tcp 40 ------- 4 4.4 0.4 1 36 1 0x10 40 0
+ 0.428023 3 2 tcp 576 ------N 4 4.4 0.4 1 37 1 0x10 40 0
- 0.428023 3 2 tcp 576 ------N 4 4.4 0.4 1 37 1 0x10 40 0
r 0.42898 3 2 tcp 40 ------- 4 4.4 0.4 1 36 1 0x10 40 0
r 0.429069 3 2 tcp 576 ------N 4 4.4 0.4 1 37 1 0x10 40 0
+ 0.437807 2 3 ack 439 ------N 5 0.5 4.5 1 40 462 0x19 40 0
- 0.437807 2 3 ack 439 ------N 5 0.5 4.5 1 40 462 0x19 40 0
r 0.438842 2 3 ack 439 ------N 5 0.5 4.5 1 40 462 0x19 40 0
+ 0.439224 2 3 ack 40 ------- 3 0.3 4.3 1 34 477 0x18 40 0
- 0.439224 2 3 ack 40 ------- 3 0.3 4.3 1 34 477 0x18 40 0
r 0.440227 2 3 ack 40 ------- 3 0.3 4.3 1 34 477 0x18 40 0
+ 0.447633 3 2 tcp 40 ------- 6 4.6 0.6 1 46 1 0x10 40 0
- 0.447633 3 2 tcp 40 ------- 6 4.6 0.6 1 46 1 0x10 40 0
+ 0.447668 3 2 tcp 435 ------N 6 4.6 0.6 1 47 1 0x18 40 0
- 0.447668 3 2 tcp 435 ------N 6 4.6 0.6 1 47 1 0x18 40 0
r 0.448636 3 2 tcp 40 ------- 6 4.6 0.6 1 46 1 0x10 40 0
r 0.448703 3 2 tcp 435 ------N 6 4.6 0.6 1 47 1 0x18 40 0
+ 0.459209 2 3 ack 576 ------N 1 0.1 4.1 1073 42 282 0x10 40 0
- 0.459209 2 3 ack 576 ------N 1 0.1 4.1 1073 42 282 0x10 40 0
+ 0.45947 2 3 ack 576 ------N 1 0.1 4.1 1609 43 282 0x10 40 0
- 0.45947 2 3 ack 576 ------N 1 0.1 4.1 1609 43 282 0x10 40 0
+ 0.459732 2 3 ack 576 ------N 1 0.1 4.1 2145 44 282 0x10 40 0
- 0.459732 2 3 ack 576 ------N 1 0.1 4.1 2145 44 282 0x10 40 0
+ 0.459994 2 3 ack 576 ------N 1 0.1 4.1 2681 45 282 0x10 40 0
- 0.459994 2 3 ack 576 ------N 1 0.1 4.1 2681 45 282 0x10 40 0
r 0.460255 2 3 ack 576 ------N 1 0.1 4.1 1073 42 282 0x10 40 0
r 0.460516 2 3 ack 576 ------N 1 0.1 4.1 1609 43 282 0x10 40 0
r 0.460778 2 3 ack 576 ------N 1 0.1 4.1 2145 44 282 0x10 40 0
r 0.46104 2 3 ack 576 ------N 1 0.1 4.1 2681 45 282 0x10 40 0
+ 0.461789 2 3 ack 40 ------- 2 0.2 4.2 141 50 464 0x18 40 0
- 0.461789 2 3 ack 40 ------- 2 0.2 4.2 141 50 464 0x18 40 0
r 0.462792 2 3 ack 40 ------- 2 0.2 4.2 141 50 464 0x18 40 0
+ 0.470515 3 2 tcp 40 ------- 5 4.5 0.5 462 48 401 0x18 40 0
- 0.470515 3 2 tcp 40 ------- 5 4.5 0.5 462 48 401 0x18 40 0
+ 0.470519 3 2 tcp 40 ------- 5 4.5 0.5 462 49 401 0x19 40 0
- 0.470519 3 2 tcp 40 ------- 5 4.5 0.5 462 49 401 0x19 40 0
r 0.471519 3 2 tcp 40 ------- 5 4.5 0.5 462 48 401 0x18 40 0
r 0.471522 3 2 tcp 40 ------- 5 4.5 0.5 462 49 401 0x19 40 0
+ 0.477462 2 3 ack 460 ------N 0 0.0 4.0 1 41 869 0x19 40 0
- 0.477462 2 3 ack 460 ------N 0 0.0 4.0 1 41 869 0x19 40 0
r 0.478499 2 3 ack 460 ------N 0 0.0 4.0 1 41 869 0x19 40 0
+ 0.489591 3 2 tcp 40 ------- 1 4.1 0.1 282 53 1609 0x18 40 0
- 0.489591 3 2 tcp 40 ------- 1 4.1 0.1 282 53 1609 0x18 40 0
+ 0.489853 3 2 tcp 40 ------- 1 4.1 0.1 282 54 2145 0x18 40 0
- 0.489853 3 2 tcp 40 ------- 1 4.1 0.1 282 54 2145 0x18 40 0
+ 0.490115 3 2 tcp 40 ------- 1 4.1 0.1 282 55 2681 0x18 40 0
- 0.490115 3 2 tcp 40 ------- 1 4.1 0.1 282 55 2681 0x18 40 0
+ 0.490376 3 2 tcp 40 ------- 1 4.1 0.1 282 56 3217 0x18 40 0
- 0.490376 3 2 tcp 40 ------- 1 4.1 0.1 282 56 3217 0x18 40 0
r 0.490594 3 2 tcp 40 ------- 1 4.1 0.1 282 53 1609 0x18 40 0
r 0.490856 3 2 tcp 40 ------- 1 4.1 0.1 282 54 2145 0x18 40 0
r 0.491118 3 2 tcp 40 ------- 1 4.1 0.1 282 55 2681 0x18 40 0
r 0.491379 3 2 tcp 40 ------- 1 4.1 0.1 282 56 3217 0x18 40 0
+ 0.496851 2 3 ack 40 ------- 5 0.5 4.5 401 60 463 0x18 40 0
- 0.496851 2 3 ack 40 ------- 5 0.5 4.5 401 60 463 0x18 40 0
+ 0.497785 3 2 tcp 40 ------- 0 4.0 0.0 869 58 422 0x18 40 0
- 0.497785 3 2 tcp 40 ------- 0 4.0 0.0 869 58 422 0x18 40 0
+ 0.497788 3 2 tcp 40 ------- 0 4.0 0.0 869 59 422 0x19 40 0
- 0.497788 3 2 tcp 40 ------- 0 4.0 0.0 869 59 422 0x19 40 0
r 0.497854 2 3 ack 40 ------- 5 0.5 4.5 401 60 463 0x18 40 0
r 0.498788 3 2 tcp 40 ------- 0 4.0 0.0 869 58 422 0x18 40 0
r 0.498791 3 2 tcp 40 ------- 0 4.0 0.0 869 59 422 0x19 40 0
+ 0.511052 2 3 ack 576 ------N 3 0.3 4.3 1 51 477 0x10 40 0
- 0.511052 2 3 ack 576 ------N 3 0.3 4.3 1 51 477 0x10 40 0
+ 0.51139 2 3 ack 576 ------N 3 0.3 4.3 537 52 477 0x10 40 0
- 0.51139 2 3 ack 576 ------N 3 0.3 4.3 537 52 477 0x10 40 0
r 0.512098 2 3 ack 576 ------N 3 0.3 4.3 1 51 477 0x10 40 0
r 0.512436 2 3 ack 576 ------N 3 0.3 4.3 537 52 477 0x10 40 0
+ 0.526038 2 3 ack 40 ------- 4 0.4 4.4 1 57 537 0x18 40 0
- 0.526038 2 3 ack 40 ------- 4 0.4 4.4 1 57 537 0x18 40 0
r 0.527041 2 3 ack 40 ------- 4 0.4 4.4 1 57 537 0x18 40 0
+ 0.535349 3 2 tcp 40 ------- 3 4.3 0.3 477 71 537 0x18 40 0
- 0.535349 3 2 tcp 40 ------- 3 4.3 0.3 477 71 537 0x18 40 0
+ 0.535687 3 2 tcp 40 ------- 3 4.3 0.3 477 72 1073 0x18 40 0
- 0.535687 3 2 tcp 40 ------- 3 4.3 0.3 477 72 1073 0x18 40 0
r 0.536352 3 2 tcp 40 ------- 3 4.3 0.3 477 71 537 0x18 40 0
r 0.53669 3 2 tcp 40 ------- 3 4.3 0.3 477 72 1073 0x18 40 0
+ 0.541818 2 3 ack 576 ------N 6 0.6 4.6 1 61 396 0x10 40 0
- 0.541818 2 3 ack 576 ------N 6 0.6 4.6 1 61 396 0x10 40 0
+ 0.542777 2 3 ack 576 ------N 6 0.6 4.6 537 62 396 0x10 40 0
- 0.542777 2 3 ack 576 ------N 6 0.6 4.6 537 62 396 0x10 40 0
r 0.542864 2 3 ack 576 ------N 6 0.6 4.6 1 61 396 0x10 40 0
r 0.543823 2 3 ack 576 ------N 6 0.6 4.6 537 62 396 0x10 40 0
+ 0.546894 3 2 tcp 40 C--A--- 7 4.7 0.7 0 73 -1 0xca 40 0
- 0.546894 3 2 tcp 40 C--A--- 7 4.7 0.7 0 73 -1 0xca 40 0
r 0.547898 3 2 tcp 40 C--A--- 7 4.7 0.7 0 73 -1 0xca 40 0
+ 0.549519 2 3 ack 40 ------- 0 0.0 4.0 422 75 870 0x18 40 0
- 0.549519 2 3 ack 40 ------- 0 0.0 4.0 422 75 870 0x18 40 0
r 0.550522 2 3 ack 40 ------- 0 0.0 4.0 422 75 870 0x18 40 0
+ 0.552624 2 3 ack 576 ------N 1 0.1 4.1 3217 63 282 0x10 40 0
- 0.552624 2 3 ack 576 ------N 1 0.1 4.1 3217 63 282 0x10 40 0
+ 0.552886 2 3 ack 576 ------N 1 0.1 4.1 3753 64 282 0x10 40 0
- 0.552886 2 3 ack 576 ------N 1 0.1 4.1 3753 64 282 0x10 40 0
+ 0.553147 2 3 ack 576 ------N 1 0.1 4.1 4825 66 282 0x10 40 0
- 0.553147 2 3 ack 576 ------N 1 0.1 4.1 4825 66 282 0x10 40 0
+ 0.553409 2 3 ack 576 ------N 1 0.1 4.1 5361 67 282 0x10 40 0
- 0.553409 2 3 ack 576 ------N 1 0.1 4.1 5361 67 282 0x10 40 0
r 0.55367 2 3 ack 576 ------N 1 0.1 4.1 3217 63 282 0x10 40 0
+ 0.553671 2 3 ack 576 ------N 1 0.1 4.1 5897 68 282 0x10 40 0
- 0.553671 2 3 ack 576 ------N 1 0.1 4.1 5897 68 282 0x10 40 0
r 0.553932 2 3 ack 576 ------N 1 0.1 4.1 3753 64 282 0x10 40 0
+ 0.553932 2 3 ack 576 ------N 1 0.1 4.1 6433 69 282 0x10 40 0
- 0.553932 2 3 ack 576 ------N 1 0.1 4.1 6433 69 282 0x10 40 0
r 0.554193 2 3 ack 576 ------N 1 0.1 4.1 4825 66 282 0x10 40 0
+ 0.554194 2 3 ack 576 ------N 1 0.1 4.1 6969 70 282 0x10 40 0
- 0.554194 2 3 ack 576 ------N 1 0.1 4.1 6969 70 282 0x10 40 0
r 0.554455 2 3 ack 576 ------N 1 0.1 4.1 5361 67 282 0x10 40 0
r 0.554717 2 3 ack 576 ------N 1 0.1 4.1 5897 68 282 0x10 40 0
r 0.554978 2 3 ack 576 ------N 1 0.1 4.1 6433 69 282 0x10 40 0
r 0.55524 2 3 ack 576 ------N 1 0.1 4.1 6969 70 282 0x10 40 0
+ 0.562244 3 2 tcp 59 ------N 4 4.4 0.4 537 74 1 0x18 40 0
- 0.562244 3 2 tcp 59 ------N 4 4.4 0.4 537 74 1 0x18 40 0
r 0.563249 3 2 tcp 59 ------N 4 4.4 0.4 537 74 1 0x18 40 0
+ 0.574666 3 2 tcp 40 ------- 6 4.6 0.6 396 76 537 0x18 40 0
- 0.574666 3 2 tcp 40 ------- 6 4.6 0.6 396 76 537 0x18 40 0
+ 0.575625 3 2 tcp 40 ------- 6 4.6 0.6 396 77 1073 0x18 40 0
- 0.575625 3 2 tcp 40 ------- 6 4.6 0.6 396 77 1073 0x18 40 0
r 0.57567 3 2 tcp 40 ------- 6 4.6 0.6 396 76 537 0x18 40 0
r 0.576628 3 2 tcp 40 ------- 6 4.6 0.6 396 77 1073 0x18 40 0
+ 0.583006 3 2 tcp 40 ------- 1 4.1 0.1 282 78 3753 0x18 40 0
- 0.583006 3 2 tcp 40 ------- 1 4.1 0.1 282 78 3753 0x18 40 0
+ 0.583268 3 2 tcp 40 ------- 1 4.1 0.1 282 79 4289 0x18 40 0
- 0.583268 3 2 tcp 40 ------- 1 4.1 0.1 282 79 4289 0x18 40 0
+ 0.58353 3 2 tcp 40 ------- 1 4.1 0.1 282 80 4289 0x18 40 0
- 0.58353 3 2 tcp 40 ------- 1 4.1 0.1 282 80 4289 0x18 40 0
+ 0.583791 3 2 tcp 40 ------- 1 4.1 0.1 282 81 4289 0x18 40 0
- 0.583791 3 2 tcp 40 ------- 1 4.1 0.1 282 81 4289 0x18 40 0
r 0.58401 3 2 tcp 40 ------- 1 4.1 0.1 282 78 3753 0x18 40 0
+ 0.584053 3 2 tcp 40 ------- 1 4.1 0.1 282 82 4289 0x18 40 0
- 0.584053 3 2 tcp 40 ------- 1 4.1 0.1 282 82 4289 0x18 40 0
r 0.584271 3 2 tcp 40 ------- 1 4.1 0.1 282 79 4289 0x18 40 0
+ 0.584315 3 2 tcp 40 ------- 1 4.1 0.1 282 83 4289 0x18 40 0
- 0.584315 3 2 tcp 40 ------- 1 4.1 0.1 282 83 4289 0x18 40 0
r 0.584533 3 2 tcp 40 ------- 1 4.1 0.1 282 80 4289 0x18 40 0
+ 0.584577 3 2 tcp 40 ------- 1 4.1 0.1 282 84 4289 0x18 40 0
- 0.584577 3 2 tcp 40 ------- 1 4.1 0.1 282 84 4289 0x18 40 0
r 0.584795 3 2 tcp 40 ------- 1 4.1 0.1 282 81 4289 0x18 40 0
r 0.585056 3 2 tcp 40 ------- 1 4.1 0.1 282 82 4289 0x18 40 0
r 0.585318 3 2 tcp 40 ------- 1 4.1 0.1 282 83 4289 0x18 40 0
r 0.58558 3 2 tcp 40 ------- 1 4.1 0.1 282 84 4289 0x18 40 0
+ 0.603616 2 3 ack 40 C-----N 7 0.7 4.7 0 87 1 0x5a 40 0
- 0.603616 2 3 ack 40 C-----N 7 0.7 4.7 0 87 1 0x5a 40 0
r 0.60462 2 3 ack 40 C-----N 7 0.7 4.7 0 87 1 0x5a 40 0
+ 0.614842 2 3 ack 576 ------N 3 0.3 4.3 1073 85 477 0x10 40 0
- 0.614842 2 3 ack 576 ------N 3 0.3 4.3 1073 85 477 0x10 40 0
+ 0.615181 2 3 ack 576 ------N 3 0.3 4.3 1609 86 477 0x10 40 0
- 0.615181 2 3 ack 576 ------N 3 0.3 4.3 1609 86 477 0x10 40 0
+ 0.615519 2 3 ack 576 ------N 3 0.3 4.3 2145 88 477 0x10 40 0
- 0.615519 2 3 ack 576 ------N 3 0.3 4.3 2145 88 477 0x10 40 0
r 0.615888 2 3 ack 576 ------N 3 0.3 4.3 1073 85 477 0x10 40 0
r 0.616227 2 3 ack 576 ------N 3 0.3 4.3 1609 86 477 0x10 40 0
+ 0.616283 3 2 tcp 40 ------- 7 4.7 0.7 1 89 1 0x10 40 0
- 0.616283 3 2 tcp 40 ------- 7 4.7 0.7 1 89 1 0x10 40 0
+ 0.616303 3 2 tcp 249 ------N 7 4.7 0.7 1 90 1 0x18 40 0
- 0.616303 3 2 tcp 249 ------N 7 4.7 0.7 1 90 1 0x18 40 0
r 0.616565 2 3 ack 576 ------N 3 0.3 4.3 2145 88 477 0x10 40 0
r 0.617286 3 2 tcp 40 ------- 7 4.7 0.7 1 89 1 0x10 40 0
r 0.617323 3 2 tcp 249 ------N 7 4.7 0.7 1 90 1 0x18 40 0
+ 0.63914 3 2 tcp 40 ------- 3 4.3 0.3 477 99 1609 0x18 40 0
- 0.63914 3 2 tcp 40 ------- 3 4.3 0.3 477 99 1609 0x18 40 0
+ 0.639478 3 2 tcp 40 ------- 3 4.3 0.3 477 100 2145 0x18 40 0
- 0.639478 3 2 tcp 40 ------- 3 4.3 0.3 477 100 2145 0x18 40 0
+ 0.639816 3 2 tcp 40 ------- 3 4.3 0.3 477 101 2681 0x18 40 0
- 0.639816 3 2 tcp 40 ------- 3 4.3 0.3 477 101 2681 0x18 40 0
r 0.640143 3 2 tcp 40 ------- 3 4.3 0.3 477 99 1609 0x18 40 0
r 0.640481 3 2 tcp 40 ------- 3 4.3 0.3 477 100 2145 0x18 40 0
r 0.640819 3 2 tcp 40 ------- 3 4.3 0.3 477 101 2681 0x18 40 0
+ 0.646039 2 3 ack 576 ------N 1 0.1 4.1 7505 91 282 0x10 40 0
- 0.646039 2 3 ack 576 ------N 1 0.1 4.1 7505 91 282 0x10 40 0
+ 0.646301 2 3 ack 576 ------N 1 0.1 4.1 8041 92 282 0x10 40 0
- 0.646301 2 3 ack 576 ------N 1 0.1 4.1 8041 92 282 0x10 40 0
+ 0.646563 2 3 ack 576 ------N 1 0.1 4.1 8577 93 282 0x10 40 0
- 0.646563 2 3 ack 576 ------N 1 0.1 4.1 8577 93 282 0x10 40 0
+ 0.646824 2 3 ack 576 ------N 1 0.1 4.1 9113 94 282 0x10 40 0
- 0.646824 2 3 ack 576 ------N 1 0.1 4.1 9113 94 282 0x10 40 0
r 0.647085 2 3 ack 576 ------N 1 0.1 4.1 7505 91 282 0x10 40 0
+ 0.647086 2 3 ack 576 ---A--N 1 0.1 4.1 4289 95 282 0x90 40 0
- 0.647086 2 3 ack 576 ---A--N 1 0.1 4.1 4289 95 282 0x90 40 0
r 0.647347 2 3 ack 576 ------N 1 0.1 4.1 8041 92 282 0x10 40 0
r 0.647609 2 3 ack 576 ------N 1 0.1 4.1 8577 93 282 0x10 40 0
r 0.64787 2 3 ack 576 ------N 1 0.1 4.1 9113 94 282 0x10 40 0
r 0.648132 2 3 ack 576 ---A--N 1 0.1 4.1 4289 95 282 0x90 40 0
+ 0.66514 2 3 ack 576 ------N 6 0.6 4.6 1073 96 396 0x10 40 0
- 0.66514 2 3 ack 576 ------N 6 0.6 4.6 1073 96 396 0x10 40 0
+ 0.666099 2 3 ack 576 ------N 6 0.6 4.6 1609 97 396 0x10 40 0
- 0.666099 2 3 ack 576 ------N 6 0.6 4.6 1609 97 396 0x10 40 0
r 0.666186 2 3 ack 576 ------N 6 0.6 4.6 1073 96 396 0x10 40 0
+ 0.667058 2 3 ack 576 ------N 6 0.6 4.6 2145 98 396 0x10 40 0
- 0.667058 2 3 ack 576 ------N 6 0.6 4.6 2145 98 396 0x10 40 0
r 0.667145 2 3 ack 576 ------N 6 0.6 4.6 1609 97 396 0x10 40 0
r 0.668104 2 3 ack 576 ------N 6 0.6 4.6 2145 98 396 0x10 40 0
+ 0.674353 2 3 ack 192 ------N 7 0.7 4.7 1 104 210 0x19 40 0
- 0.674353 2 3 ack 192 ------N 7 0.7 4.7 1 104 210 0x19 40 0
r 0.675368 2 3 ack 192 ------N 7 0.7 4.7 1 104 210 0x19 40 0
+ 0.676422 3 2 tcp 40 ------- 1 4.1 0.1 282 105 4289 0x18 40 0
- 0.676422 3 2 tcp 40 ------- 1 4.1 0.1 282 105 4289 0x18 40 0
+ 0.676683 3 2 tcp 40 ------- 1 4.1 0.1 282 106 4289 0x18 40 0
- 0.676683 3 2 tcp 40 ------- 1 4.1 0.1 282 106 4289 0x18 40 0
+ 0.676945 3 2 tcp 40 ------- 1 4.1 0.1 282 107 4289 0x18 40 0
- 0.676945 3 2 tcp 40 ------- 1 4.1 0.1 282 107 4289 0x18 40 0
+ 0.677207 3 2 tcp 40 ------- 1 4.1 0.1 282 108 4289 0x18 40 0
- 0.677207 3 2 tcp 40 ------- 1 4.1 0.1 282 108 4289 0x18 40 0
r 0.677425 3 2 tcp 40 ------- 1 4.1 0.1 282 105 4289 0x18 40 0
+ 0.677468 3 2 tcp 40 ------- 1 4.1 0.1 282 109 9649 0x18 40 0
- 0.677468 3 2 tcp 40 ------- 1 4.1 0.1 282 109 9649 0x18 40 0
r 0.677687 3 2 tcp 40 ------- 1 4.1 0.1 282 106 4289 0x18 40 0
r 0.677948 3 2 tcp 40 ------- 1 4.1 0.1 282 107 4289 0x18 40 0
r 0.67821 3 2 tcp 40 ------- 1 4.1 0.1 282 108 4289 0x18 40 0
r 0.678472 3 2 tcp 40 ------- 1 4.1 0.1 282 109 9649 0x18 40 0
+ 0.687043 3 2 tcp 40 ------- 7 4.7 0.7 210 111 154 0x18 40 0
- 0.687043 3 2 tcp 40 ------- 7 4.7 0.7 210 111 154 0x18 40 0
+ 0.687047 3 2 tcp 40 ------- 7 4.7 0.7 210 112 154 0x19 40 0
- 0.687047 3 2 tcp 40 ------- 7 4.7 0.7 210 112 154 0x19 40 0
r 0.688047 3 2 tcp 40 ------- 7 4.7 0.7 210 111 154 0x18 40 0
r 0.68805 3 2 tcp 40 ------- 7 4.7 0.7 210 112 154 0x19 40 0
+ 0.69131 2 3 ack 576 ------N 4 0.4 4.4 537 103 556 0x10 40 0
- 0.69131 2 3 ack 576 ------N 4 0.4 4.4 537 103 556 0x10 40 0
r 0.692356 2 3 ack 576 ------N 4 0.4 4.4 537 103 556 0x10 40 0
+ 0.697989 3 2 tcp 40 ------- 6 4.6 0.6 396 113 1609 0x18 40 0
- 0.697989 3 2 tcp 40 ------- 6 4.6 0.6 396 113 1609 0x18 40 0
+ 0.698948 3 2 tcp 40 ------- 6 4.6 0.6 396 114 2145 0x18 40 0
- 0.698948 3 2 tcp 40 ------- 6 4.6 0.6 396 114 2145 0x18 40 0
r 0.698992 3 2 tcp 40 ------- 6 4.6 0.6 396 113 1609 0x18 40 0
+ 0.699906 3 2 tcp 40 ------- 6 4.6 0.6 396 115 2681 0x18 40 0
- 0.699906 3 2 tcp 40 ------- 6 4.6 0.6 396 115 2681 0x18 40 0
r 0.699951 3 2 tcp 40 ------- 6 4.6 0.6 396 114 2145 0x18 40 0
r 0.70091 3 2 tcp 40 ------- 6 4.6 0.6 396 115 2681 0x18 40 0
+ 0.716997 2 3 ack 40 ------- 7 0.7 4.7 154 122 211 0x18 40 0
- 0.716997 2 3 ack 40 ------- 7 0.7 4.7 154 122 211 0x18 40 0
r 0.718 2 3 ack 40 ------- 7 0.7 4.7 154 122 211 0x18 40 0
+ 0.719296 2 3 ack 403 ------N 3 0.3 4.3 2681 110 477 0x19 40 0
- 0.719296 2 3 ack 403 ------N 3 0.3 4.3 2681 110 477 0x19 40 0
r 0.720328 2 3 ack 403 ------N 3 0.3 4.3 2681 110 477 0x19 40 0
+ 0.727601 3 2 tcp 40 ------- 4 4.4 0.4 556 121 1 0x18 40 0
- 0.727601 3 2 tcp 40 ------- 4 4.4 0.4 556 121 1 0x18 40 0
r 0.728605 3 2 tcp 40 ------- 4 4.4 0.4 556 121 1 0x18 40 0
+ 0.739454 2 3 ack 576 ------N 1 0.1 4.1 9649 116 282 0x10 40 0
- 0.739454 2 3 ack 576 ------N 1 0.1 4.1 9649 116 282 0x10 40 0
+ 0.739716 2 3 ack 576 ------N 1 0.1 4.1 10185 117 282 0x10 40 0
- 0.739716 2 3 ack 576 ------N 1 0.1 4.1 10185 117 282 0x10 40 0
+ 0.739978 2 3 ack 576 ------N 1 0.1 4.1 10721 118 282 0x10 40 0
- 0.739978 2 3 ack 576 ------N 1 0.1 4.1 10721 118 282 0x10 40 0
+ 0.740239 2 3 ack 576 ------N 1 0.1 4.1 11257 119 282 0x10 40 0
- 0.740239 2 3 ack 576 ------N 1 0.1 4.1 11257 119 282 0x10 40 0
r 0.7405 2 3 ack 576 ------N 1 0.1 4.1 9649 116 282 0x10 40 0
+ 0.740501 2 3 ack 576 ------N 1 0.1 4.1 11793 120 282 0x10 40 0
- 0.740501 2 3 ack 576 ------N 1 0.1 4.1 11793 120 282 0x10 40 0
r 0.740762 2 3 ack 576 ------N 1 0.1 4.1 10185 117 282 0x10 40 0
r 0.741024 2 3 ack 576 ------N 1 0.1 4.1 10721 118 282 0x10 40 0
r 0.741286 2 3 ack 576 ------N 1 0.1 4.1 11257 119 282 0x10 40 0
r 0.741547 2 3 ack 576 ------N 1 0.1 4.1 11793 120 282 0x10 40 0
+ 0.743566 3 2 tcp 40 ------- 3 4.3 0.3 477 123 3045 0x18 40 0
- 0.743566 3 2 tcp 40 ------- 3 4.3 0.3 477 123 3045 0x18 40 0
+ 0.743569 3 2 tcp 40 ------- 3 4.3 0.3 477 124 3045 0x19 40 0
- 0.743569 3 2 tcp 40 ------- 3 4.3 0.3 477 124 3045 0x19 40 0
r 0.744569 3 2 tcp 40 ------- 3 4.3 0.3 477 123 3045 0x18 40 0
r 0.744572 3 2 tcp 40 ------- 3 4.3 0.3 477 124 3045 0x19 40 0
+ 0.769837 3 2 tcp 40 ------- 1 4.1 0.1 282 126 10185 0x18 40 0
- 0.769837 3 2 tcp 40 ------- 1 4.1 0.1 282 126 10185 0x18 40 0
+ 0.770099 3 2 tcp 40 ------- 1 4.1 0.1 282 127 10721 0x18 40 0
- 0.770099 3 2 tcp 40 ------- 1 4.1 0.1 282 127 10721 0x18 40 0
+ 0.77036 3 2 tcp 40 ------- 1 4.1 0.1 282 128 11257 0x18 40 0
- 0.77036 3 2 tcp 40 ------- 1 4.1 0.1 282 128 11257 0x18 40 0
+ 0.770622 3 2 tcp 40 ------- 1 4.1 0.1 282 129 11793 0x18 40 0
- 0.770622 3 2 tcp 40 ------- 1 4.1 0.1 282 129 11793 0x18 40 0
r 0.77084 3 2 tcp 40 ------- 1 4.1 0.1 282 126 10185 0x18 40 0
+ 0.770884 3 2 tcp 40 ------- 1 4.1 0.1 282 130 12329 0x18 40 0
- 0.770884 3 2 tcp 40 ------- 1 4.1 0.1 282 130 12329 0x18 40 0
r 0.771102 3 2 tcp 40 ------- 1 4.1 0.1 282 127 10721 0x18 40 0
r 0.771364 3 2 tcp 40 ------- 1 4.1 0.1 282 128 11257 0x18 40 0
r 0.771625 3 2 tcp 40 ------- 1 4.1 0.1 282 129 11793 0x18 40 0
r 0.771887 3 2 tcp 40 ------- 1 4.1 0.1 282 130 12329 0x18 40 0
+ 0.784819 2 3 ack 40 ------- 3 0.3 4.3 3045 131 478 0x18 40 0
- 0.784819 2 3 ack 40 ------- 3 0.3 4.3 3045 131 478 0x18 40 0
r 0.785822 2 3 ack 40 ------- 3 0.3 4.3 3045 131 478 0x18 40 0
+ 0.790358 2 3 ack 295 ------N 6 0.6 4.6 2681 125 396 0x19 40 0
- 0.790358 2 3 ack 295 ------N 6 0.6 4.6 2681 125 396 0x19 40 0
r 0.791381 2 3 ack 295 ------N 6 0.6 4.6 2681 125 396 0x19 40 0
+ 0.823161 3 2 tcp 40 ------- 6 4.6 0.6 396 138 2937 0x18 40 0
- 0.823161 3 2 tcp 40 ------- 6 4.6 0.6 396 138 2937 0x18 40 0
+ 0.823164 3 2 tcp 40 ------- 6 4.6 0.6 396 139 2937 0x19 40 0
- 0.823164 3 2 tcp 40 ------- 6 4.6 0.6 396 139 2937 0x19 40 0
r 0.824164 3 2 tcp 40 ------- 6 4.6 0.6 396 138 2937 0x18 40 0
r 0.824168 3 2 tcp 40 ------- 6 4.6 0.6 396 139 2937 0x19 40 0
+ 0.83287 2 3 ack 576 ------N 1 0.1 4.1 12329 132 282 0x10 40 0
- 0.83287 2 3 ack 576 ------N 1 0.1 4.1 12329 132 282 0x10 40 0
+ 0.833393 2 3 ack 576 ------N 1 0.1 4.1 13401 134 282 0x10 40 0
- 0.833393 2 3 ack 576 ------N 1 0.1 4.1 13401 134 282 0x10 40 0
+ 0.833655 2 3 ack 576 ------N 1 0.1 4.1 13937 135 282 0x10 40 0
- 0.833655 2 3 ack 576 ------N 1 0.1 4.1 13937 135 282 0x10 40 0
r 0.833916 2 3 ack 576 ------N 1 0.1 4.1 12329 132 282 0x10 40 0
+ 0.833916 2 3 ack 576 ------N 1 0.1 4.1 14473 136 282 0x10 40 0
- 0.833916 2 3 ack 576 ------N 1 0.1 4.1 14473 136 282 0x10 40 0
+ 0.834178 2 3 ack 576 ------N 1 0.1 4.1 15009 137 282 0x10 40 0
- 0.834178 2 3 ack 576 ------N 1 0.1 4.1 15009 137 282 0x10 40 0
r 0.834439 2 3 ack 576 ------N 1 0.1 4.1 13401 134 282 0x10 40 0
r 0.834701 2 3 ack 576 ------N 1 0.1 4.1 13937 135 282 0x10 40 0
r 0.834962 2 3 ack 576 ------N 1 0.1 4.1 14473 136 282 0x10 40 0
r 0.835224 2 3 ack 576 ------N 1 0.1 4.1 15009 137 282 0x10 40 0
+ 0.863252 3 2 tcp 40 ------- 1 4.1 0.1 282 140 12865 0x18 40 0
- 0.863252 3 2 tcp 40 ------- 1 4.1 0.1 282 140 12865 0x18 40 0
+ 0.863776 3 2 tcp 40 ------- 1 4.1 0.1 282 141 12865 0x18 40 0
- 0.863776 3 2 tcp 40 ------- 1 4.1 0.1 282 141 12865 0x18 40 0
+ 0.864037 3 2 tcp 40 ------- 1 4.1 0.1 282 142 12865 0x18 40 0
- 0.864037 3 2 tcp 40 ------- 1 4.1 0.1 282 142 12865 0x18 40 0
r 0.864255 3 2 tcp 40 ------- 1 4.1 0.1 282 140 12865 0x18 40 0
+ 0.864299 3 2 tcp 40 ------- 1 4.1 0.1 282 143 12865 0x18 40 0
- 0.864299 3 2 tcp 40 ------- 1 4.1 0.1 282 143 12865 0x18 40 0
+ 0.864561 3 2 tcp 40 ------- 1 4.1 0.1 282 144 12865 0x18 40 0
- 0.864561 3 2 tcp 40 ------- 1 4.1 0.1 282 144 12865 0x18 40 0
r 0.864779 3 2 tcp 40 ------- 1 4.1 0.1 282 141 12865 0x18 40 0
r 0.86504 3 2 tcp 40 ------- 1 4.1 0.1 282 142 12865 0x18 40 0
r 0.865302 3 2 tcp 40 ------- 1 4.1 0.1 282 143 12865 0x18 40 0
r 0.865564 3 2 tcp 40 ------- 1 4.1 0.1 282 144 12865 0x18 40 0
+ 0.869948 2 3 ack 40 ------- 6 0.6 4.6 2937 145 397 0x18 40 0
- 0.869948 2 3 ack 40 ------- 6 0.6 4.6 2937 145 397 0x18 40 0
r 0.870951 2 3 ack 40 ------- 6 0.6 4.6 2937 145 397 0x18 40 0
+ 0.926285 2 3 ack 576 ------N 1 0.1 4.1 15545 146 282 0x10 40 0
- 0.926285 2 3 ack 576 ------N 1 0.1 4.1 15545 146 282 0x10 40 0
r 0.927331 2 3 ack 576 ------N 1 0.1 4.1 15545 146 282 0x10 40 0
+ 0.927332 2 3 ack 576 ---A--N 1 0.1 4.1 12865 147 282 0x90 40 0
- 0.927332 2 3 ack 576 ---A--N 1 0.1 4.1 12865 147 282 0x90 40 0
+ 0.927593 2 3 ack 576 ------N 1 0.1 4.1 16081 148 282 0x10 40 0
- 0.927593 2 3 ack 576 ------N 1 0.1 4.1 16081 148 282 0x10 40 0
r 0.928378 2 3 ack 576 ---A--N 1 0.1 4.1 12865 147 282 0x90 40 0
r 0.928639 2 3 ack 576 ------N 1 0.1 4.1 16081 148 282 0x10 40 0
+ 0.956667 3 2 tcp 40 ------- 1 4.1 0.1 282 149 12865 0x18 40 0
- 0.956667 3 2 tcp 40 ------- 1 4.1 0.1 282 149 12865 0x18 40 0
r 0.957671 3 2 tcp 40 ------- 1 4.1 0.1 282 149 12865 0x18 40 0
+ 0.957714 3 2 tcp 40 ------- 1 4.1 0.1 282 150 16081 0x18 40 0
- 0.957714 3 2 tcp 40 ------- 1 4.1 0.1 282 150 16081 0x18 40 0
+ 0.957976 3 2 tcp 40 ------- 1 4.1 0.1 282 151 16617 0x18 40 0
- 0.957976 3 2 tcp 40 ------- 1 4.1 0.1 282 151 16617 0x18 40 0
r 0.958717 3 2 tcp 40 ------- 1 4.1 0.1 282 150 16081 0x18 40 0
r 0.958979 3 2 tcp 40 ------- 1 4.1 0.1 282 151 16617 0x18 40 0
+ 1.0197 2 3 ack 576 ------N 1 0.1 4.1 16617 152 282 0x10 40 0
- 1.0197 2 3 ack 576 ------N 1 0.1 4.1 16617 152 282 0x10 40 0
r 1.020746 2 3 ack 576 ------N 1 0.1 4.1 16617 152 282 0x10 40 0
+ 1.020747 2 3 ack 576 ------N 1 0.1 4.1 17153 153 282 0x10 40 0
- 1.020747 2 3 ack 576 ------N 1 0.1 4.1 17153 153 282 0x10 40 0
+ 1.021009 2 3 ack 576 ------N 1 0.1 4.1 17689 154 282 0x10 40 0
- 1.021009 2 3 ack 576 ------N 1 0.1 4.1 17689 154 282 0x10 40 0
r 1.021793 2 3 ack 576 ------N 1 0.1 4.1 17153 153 282 0x10 40 0
r 1.022055 2 3 ack 576 ------N 1 0.1 4.1 17689 154 282 0x10 40 0
+ 1.050083 3 2 tcp 40 ------- 1 4.1 0.1 282 155 17153 0x18 40 0
- 1.050083 3 2 tcp 40 ------- 1 4.1 0.1 282 155 17153 0x18 40 0
r 1.051086 3 2 tcp 40 ------- 1 4.1 0.1 282 155 17153 0x18 40 0
+ 1.05113 3 2 tcp 40 ------- 1 4.1 0.1 282 156 17689 0x18 40 0
- 1.05113 3 2 tcp 40 ------- 1 4.1 0.1 282 156 17689 0x18 40 0
+ 1.051391 3 2 tcp 40 ------- 1 4.1 0.1 282 157 18225 0x18 40 0
- 1.051391 3 2 tcp 40 ------- 1 4.1 0.1 282 157 18225 0x18 40 0
r 1.052133 3 2 tcp 40 ------- 1 4.1 0.1 282 156 17689 0x18 40 0
r 1.052394 3 2 tcp 40 ------- 1 4.1 0.1 282 157 18225 0x18 40 0
+ 1.113115 2 3 ack 576 ------N 1 0.1 4.1 18225 158 282 0x10 40 0
- 1.113115 2 3 ack 576 ------N 1 0.1 4.1 18225 158 282 0x10 40 0
r 1.114162 2 3 ack 576 ------N 1 0.1 4.1 18225 158 282 0x10 40 0
+ 1.114162 2 3 ack 576 ------N 1 0.1 4.1 18761 159 282 0x10 40 0
- 1.114162 2 3 ack 576 ------N 1 0.1 4.1 18761 159 282 0x10 40 0
+ 1.114424 2 3 ack 576 ------N 1 0.1 4.1 19297 160 282 0x10 40 0
- 1.114424 2 3 ack 576 ------N 1 0.1 4.1 19297 160 282 0x10 40 0
+ 1.114686 2 3 ack 576 ------N 1 0.1 4.1 19833 161 282 0x10 40 0
- 1.114686 2 3 ack 576 ------N 1 0.1 4.1 19833 161 282 0x10 40 0
r 1.115208 2 3 ack 576 ------N 1 0.1 4.1 18761 159 282 0x10 40 0
r 1.11547 2 3 ack 576 ------N 1 0.1 4.1 19297 160 282 0x10 40 0
r 1.115732 2 3 ack 576 ------N 1 0.1 4.1 19833 161 282 0x10 40 0
+ 1.143498 3 2 tcp 40 ------- 1 4.1 0.1 282 162 18761 0x18 40 0
- 1.143498 3 2 tcp 40 ------- 1 4.1 0.1 282 162 18761 0x18 40 0
r 1.144501 3 2 tcp 40 ------- 1 4.1 0.1 282 162 18761 0x18 40 0
+ 1.144545 3 2 tcp 40 ------- 1 4.1 0.1 282 163 19297 0x18 40 0
- 1.144545 3 2 tcp 40 ------- 1 4.1 0.1 282 163 19297 0x18 40 0
+ 1.144806 3 2 tcp 40 ------- 1 4.1 0.1 282 164 19833 0x18 40 0
- 1.144806 3 2 tcp 40 ------- 1 4.1 0.1 282 164 19833 0x18 40 0
+ 1.145068 3 2 tcp 40 ------- 1 4.1 0.1 282 165 20369 0x18 40 0
- 1.145068 3 2 tcp 40 ------- 1 4.1 0.1 282 165 20369 0x18 40 0
r 1.145548 3 2 tcp 40 ------- 1 4.1 0.1 282 163 19297 0x18 40 0
r 1.14581 3 2 tcp 40 ------- 1 4.1 0.1 282 164 19833 0x18 40 0