+ 0 4 3 tcp 40 ------- 0 4.0 0.0 0 0 -1 0xa 40 0
- 0 4 3 tcp 40 ------- 0 4.0 0.0 0 0 -1 0xa 40 0
r 0.001003 4 3 tcp 40 ------- 0 4.0 0.0 0 0 -1 0xa 40 0
+ 0.009626 3 2 tcp 40 ------- 0 4.0 0.0 0 0 -1 0xa 40 0
- 0.009626 3 2 tcp 40 ------- 0 4.0 0.0 0 0 -1 0xa 40 0
r 0.010629 3 2 tcp 40 ------- 0 4.0 0.0 0 0 -1 0xa 40 0
+ 0.059303 2 0 tcp 40 ------- 0 4.0 0.0 0 0 -1 0xa 40 0
- 0.059303 2 0 tcp 40 ------- 0 4.0 0.0 0 0 -1 0xa 40 0
r 0.060307 2 0 tcp 40 ------- 0 4.0 0.0 0 0 -1 0xa 40 0
+ 0.060307 0 2 ack 40 ------- 0 0.0 4.0 0 1 1 0x1a 40 0
- 0.060307 0 2 ack 40 ------- 0 0.0 4.0 0 1 1 0x1a 40 0
r 0.06131 0 2 ack 40 ------- 0 0.0 4.0 0 1 1 0x1a 40 0
+ 0.073394 4 3 tcp 40 ------- 1 4.1 0.1 0 2 -1 0xa 40 0
- 0.073394 4 3 tcp 40 ------- 1 4.1 0.1 0 2 -1 0xa 40 0
r 0.074397 4 3 tcp 40 ------- 1 4.1 0.1 0 2 -1 0xa 40 0
+ 0.088041 3 2 tcp 40 ------- 1 4.1 0.1 0 2 -1 0xa 40 0
- 0.088041 3 2 tcp 40 ------- 1 4.1 0.1 0 2 -1 0xa 40 0
r 0.089044 3 2 tcp 40 ------- 1 4.1 0.1 0 2 -1 0xa 40 0
+ 0.109984 2 3 ack 40 ------- 0 0.0 4.0 0 1 1 0x1a 40 0
- 0.109984 2 3 ack 40 ------- 0 0.0 4.0 0 1 1 0x1a 40 0
r 0.110987 2 3 ack 40 ------- 0 0.0 4.0 0 1 1 0x1a 40 0
+ 0.119034 2 0 tcp 40 ------- 1 4.1 0.1 0 2 -1 0xa 40 0
- 0.119034 2 0 tcp 40 ------- 1 4.1 0.1 0 2 -1 0xa 40 0
+ 0.11961 3 4 ack 40 ------- 0 0.0 4.0 0 1 1 0x1a 40 0
- 0.11961 3 4 ack 40 ------- 0 0.0 4.0 0 1 1 0x1a 40 0
r 0.120038 2 0 tcp 40 ------- 1 4.1 0.1 0 2 -1 0xa 40 0
+ 0.120038 0 2 ack 40 ------- 1 0.1 4.1 0 3 1 0x1a 40 0
- 0.120038 0 2 ack 40 ------- 1 0.1 4.1 0 3 1 0x1a 40 0
r 0.120613 3 4 ack 40 ------- 0 0.0 4.0 0 1 1 0x1a 40 0
+ 0.120613 4 3 tcp 40 ------- 0 4.0 0.0 1 4 1 0x10 40 0
- 0.120613 4 3 tcp 40 ------- 0 4.0 0.0 1 4 1 0x10 40 0
+ 0.120613 4 3 tcp 576 ------- 0 4.0 0.0 1 5 1 0x10 40 0
- 0.120616 4 3 tcp 576 ------- 0 4.0 0.0 1 5 1 0x10 40 0
r 0.121041 0 2 ack 40 ------- 1 0.1 4.1 0 3 1 0x1a 40 0
r 0.121616 4 3 tcp 40 ------- 0 4.0 0.0 1 4 1 0x10 40 0
r 0.121663 4 3 tcp 576 ------- 0 4.0 0.0 1 5 1 0x10 40 0
+ 0.123692 4 3 tcp 40 ------- 2 4.2 0.2 0 6 -1 0xa 40 0
- 0.123692 4 3 tcp 40 ------- 2 4.2 0.2 0 6 -1 0xa 40 0
r 0.124695 4 3 tcp 40 ------- 2 4.2 0.2 0 6 -1 0xa 40 0
+ 0.130239 3 2 tcp 40 ------- 0 4.0 0.0 1 4 1 0x10 40 0
- 0.130239 3 2 tcp 40 ------- 0 4.0 0.0 1 4 1 0x10 40 0
+ 0.130285 3 2 tcp 576 ------- 0 4.0 0.0 1 5 1 0x10 40 0
- 0.130285 3 2 tcp 576 ------- 0 4.0 0.0 1 5 1 0x10 40 0
+ 0.131132 4 3 tcp 40 ------- 3 4.3 0.3 0 7 -1 0xa 40 0
- 0.131132 4 3 tcp 40 ------- 3 4.3 0.3 0 7 -1 0xa 40 0
r 0.131243 3 2 tcp 40 ------- 0 4.0 0.0 1 4 1 0x10 40 0
r 0.131332 3 2 tcp 576 ------- 0 4.0 0.0 1 5 1 0x10 40 0
r 0.132135 4 3 tcp 40 ------- 3 4.3 0.3 0 7 -1 0xa 40 0
+ 0.139029 3 2 tcp 40 ------- 2 4.2 0.2 0 6 -1 0xa 40 0
- 0.139029 3 2 tcp 40 ------- 2 4.2 0.2 0 6 -1 0xa 40 0
r 0.140033 3 2 tcp 40 ------- 2 4.2 0.2 0 6 -1 0xa 40 0
+ 0.142736 3 2 tcp 40 ------- 3 4.3 0.3 0 7 -1 0xa 40 0
- 0.142736 3 2 tcp 40 ------- 3 4.3 0.3 0 7 -1 0xa 40 0
r 0.143739 3 2 tcp 40 ------- 3 4.3 0.3 0 7 -1 0xa 40 0
+ 0.151031 2 3 ack 40 ------- 1 0.1 4.1 0 3 1 0x1a 40 0
- 0.151031 2 3 ack 40 ------- 1 0.1 4.1 0 3 1 0x1a 40 0
r 0.152034 2 3 ack 40 ------- 1 0.1 4.1 0 3 1 0x1a 40 0
+ 0.165189 4 3 tcp 40 ------- 4 4.4 0.4 0 8 -1 0xa 40 0
- 0.165189 4 3 tcp 40 ------- 4 4.4 0.4 0 8 -1 0xa 40 0
+ 0.165328 4 3 tcp 40 ------- 5 4.5 0.5 0 9 -1 0xa 40 0
- 0.165328 4 3 tcp 40 ------- 5 4.5 0.5 0 9 -1 0xa 40 0
+ 0.165678 3 4 ack 40 ------- 1 0.1 4.1 0 3 1 0x1a 40 0
- 0.165678 3 4 ack 40 ------- 1 0.1 4.1 0 3 1 0x1a 40 0
r 0.166192 4 3 tcp 40 ------- 4 4.4 0.4 0 8 -1 0xa 40 0
r 0.166331 4 3 tcp 40 ------- 5 4.5 0.5 0 9 -1 0xa 40 0
r 0.166681 3 4 ack 40 ------- 1 0.1 4.1 0 3 1 0x1a 40 0
+ 0.166681 4 3 tcp 40 ------- 1 4.1 0.1 1 10 1 0x10 40 0
- 0.166681 4 3 tcp 40 ------- 1 4.1 0.1 1 10 1 0x10 40 0
+ 0.166681 4 3 tcp 315 ------- 1 4.1 0.1 1 11 1 0x18 40 0
- 0.166684 4 3 tcp 315 ------- 1 4.1 0.1 1 11 1 0x18 40 0
r 0.167684 4 3 tcp 40 ------- 1 4.1 0.1 1 10 1 0x10 40 0
r 0.167709 4 3 tcp 315 ------- 1 4.1 0.1 1 11 1 0x18 40 0
+ 0.172815 2 0 tcp 40 ------- 2 4.2 0.2 0 6 -1 0xa 40 0
- 0.172815 2 0 tcp 40 ------- 2 4.2 0.2 0 6 -1 0xa 40 0
r 0.173818 2 0 tcp 40 ------- 2 4.2 0.2 0 6 -1 0xa 40 0
+ 0.173818 0 2 ack 40 ------- 2 0.2 4.2 0 12 1 0x1a 40 0
- 0.173818 0 2 ack 40 ------- 2 0.2 4.2 0 12 1 0x1a 40 0
r 0.174821 0 2 ack 40 ------- 2 0.2 4.2 0 12 1 0x1a 40 0
+ 0.179917 2 0 tcp 40 ------- 0 4.0 0.0 1 4 1 0x10 40 0
- 0.179917 2 0 tcp 40 ------- 0 4.0 0.0 1 4 1 0x10 40 0
+ 0.180006 2 0 tcp 576 ------- 0 4.0 0.0 1 5 1 0x10 40 0
- 0.180006 2 0 tcp 576 ------- 0 4.0 0.0 1 5 1 0x10 40 0
r 0.18092 2 0 tcp 40 ------- 0 4.0 0.0 1 4 1 0x10 40 0
r 0.181052 2 0 tcp 576 ------- 0 4.0 0.0 1 5 1 0x10 40 0
+ 0.181052 0 2 ack 40 ------- 0 0.0 4.0 1 13 537 0x18 40 0
- 0.181052 0 2 ack 40 ------- 0 0.0 4.0 1 13 537 0x18 40 0
+ 0.181148 3 2 tcp 40 ------- 5 4.5 0.5 0 9 -1 0xa 40 0
- 0.181148 3 2 tcp 40 ------- 5 4.5 0.5 0 9 -1 0xa 40 0
+ 0.181328 3 2 tcp 40 ------- 1 4.1 0.1 1 10 1 0x10 40 0
- 0.181328 3 2 tcp 40 ------- 1 4.1 0.1 1 10 1 0x10 40 0
+ 0.181353 3 2 tcp 315 ------- 1 4.1 0.1 1 11 1 0x18 40 0
- 0.181353 3 2 tcp 315 ------- 1 4.1 0.1 1 11 1 0x18 40 0
+ 0.18196 2 0 tcp 40 ------- 3 4.3 0.3 0 7 -1 0xa 40 0
- 0.18196 2 0 tcp 40 ------- 3 4.3 0.3 0 7 -1 0xa 40 0
r 0.182055 0 2 ack 40 ------- 0 0.0 4.0 1 13 537 0x18 40 0
r 0.182152 3 2 tcp 40 ------- 5 4.5 0.5 0 9 -1 0xa 40 0
r 0.182331 3 2 tcp 40 ------- 1 4.1 0.1 1 10 1 0x10 40 0
r 0.182378 3 2 tcp 315 ------- 1 4.1 0.1 1 11 1 0x18 40 0
+ 0.18279 3 2 tcp 40 ------- 4 4.4 0.4 0 8 -1 0xa 40 0
- 0.18279 3 2 tcp 40 ------- 4 4.4 0.4 0 8 -1 0xa 40 0
r 0.182963 2 0 tcp 40 ------- 3 4.3 0.3 0 7 -1 0xa 40 0
+ 0.182963 0 2 ack 40 ------- 3 0.3 4.3 0 14 1 0x1a 40 0
- 0.182963 0 2 ack 40 ------- 3 0.3 4.3 0 14 1 0x1a 40 0
r 0.183793 3 2 tcp 40 ------- 4 4.4 0.4 0 8 -1 0xa 40 0
r 0.183966 0 2 ack 40 ------- 3 0.3 4.3 0 14 1 0x1a 40 0
+ 0.190127 4 3 tcp 40 ------- 6 4.6 0.6 0 15 -1 0xa 40 0
- 0.190127 4 3 tcp 40 ------- 6 4.6 0.6 0 15 -1 0xa 40 0
r 0.19113 4 3 tcp 40 ------- 6 4.6 0.6 0 15 -1 0xa 40 0
+ 0.20537 2 0 tcp 40 ------- 5 4.5 0.5 0 9 -1 0xa 40 0
- 0.20537 2 0 tcp 40 ------- 5 4.5 0.5 0 9 -1 0xa 40 0
+ 0.206006 3 2 tcp 40 ------- 6 4.6 0.6 0 15 -1 0xa 40 0
- 0.206006 3 2 tcp 40 ------- 6 4.6 0.6 0 15 -1 0xa 40 0
r 0.206373 2 0 tcp 40 ------- 5 4.5 0.5 0 9 -1 0xa 40 0
+ 0.206373 0 2 ack 40 ------- 5 0.5 4.5 0 16 1 0x1a 40 0
- 0.206373 0 2 ack 40 ------- 5 0.5 4.5 0 16 1 0x1a 40 0
r 0.20701 3 2 tcp 40 ------- 6 4.6 0.6 0 15 -1 0xa 40 0
r 0.207377 0 2 ack 40 ------- 5 0.5 4.5 0 16 1 0x1a 40 0
+ 0.207603 2 3 ack 40 ------- 2 0.2 4.2 0 12 1 0x1a 40 0
- 0.207603 2 3 ack 40 ------- 2 0.2 4.2 0 12 1 0x1a 40 0
r 0.208606 2 3 ack 40 ------- 2 0.2 4.2 0 12 1 0x1a 40 0
+ 0.212321 2 0 tcp 40 ------- 1 4.1 0.1 1 10 1 0x10 40 0
- 0.212321 2 0 tcp 40 ------- 1 4.1 0.1 1 10 1 0x10 40 0
+ 0.212368 2 0 tcp 315 ------- 1 4.1 0.1 1 11 1 0x18 40 0
- 0.212368 2 0 tcp 315 ------- 1 4.1 0.1 1 11 1 0x18 40 0
r 0.213324 2 0 tcp 40 ------- 1 4.1 0.1 1 10 1 0x10 40 0
r 0.213393 2 0 tcp 315 ------- 1 4.1 0.1 1 11 1 0x18 40 0
+ 0.222187 2 3 ack 40 ------- 3 0.3 4.3 0 14 1 0x1a 40 0
- 0.222187 2 3 ack 40 ------- 3 0.3 4.3 0 14 1 0x1a 40 0
+ 0.222941 3 4 ack 40 ------- 2 0.2 4.2 0 12 1 0x1a 40 0
- 0.222941 3 4 ack 40 ------- 2 0.2 4.2 0 12 1 0x1a 40 0
r 0.22319 2 3 ack 40 ------- 3 0.3 4.3 0 14 1 0x1a 40 0
r 0.223944 3 4 ack 40 ------- 2 0.2 4.2 0 12 1 0x1a 40 0
+ 0.223944 4 3 tcp 40 ------- 2 4.2 0.2 1 17 1 0x10 40 0
- 0.223944 4 3 tcp 40 ------- 2 4.2 0.2 1 17 1 0x10 40 0
+ 0.223944 4 3 tcp 576 ------- 2 4.2 0.2 1 18 1 0x10 40 0
- 0.223947 4 3 tcp 576 ------- 2 4.2 0.2 1 18 1 0x10 40 0
r 0.224947 4 3 tcp 40 ------- 2 4.2 0.2 1 17 1 0x10 40 0
r 0.224994 4 3 tcp 576 ------- 2 4.2 0.2 1 18 1 0x10 40 0
+ 0.230595 2 3 ack 40 ------- 5 0.5 4.5 0 16 1 0x1a 40 0
- 0.230595 2 3 ack 40 ------- 5 0.5 4.5 0 16 1 0x1a 40 0
+ 0.230729 2 3 ack 40 ------- 0 0.0 4.0 1 13 537 0x18 40 0
- 0.230729 2 3 ack 40 ------- 0 0.0 4.0 1 13 537 0x18 40 0
+ 0.231229 2 0 tcp 40 ------- 4 4.4 0.4 0 8 -1 0xa 40 0
- 0.231229 2 0 tcp 40 ------- 4 4.4 0.4 0 8 -1 0xa 40 0
r 0.231598 2 3 ack 40 ------- 5 0.5 4.5 0 16 1 0x1a 40 0
r 0.231732 2 3 ack 40 ------- 0 0.0 4.0 1 13 537 0x18 40 0
r 0.232232 2 0 tcp 40 ------- 4 4.4 0.4 0 8 -1 0xa 40 0
+ 0.232232 0 2 ack 40 ------- 4 0.4 4.4 0 19 1 0x1a 40 0
- 0.232232 0 2 ack 40 ------- 4 0.4 4.4 0 19 1 0x1a 40 0
r 0.233236 0 2 ack 40 ------- 4 0.4 4.4 0 19 1 0x1a 40 0
+ 0.233791 3 4 ack 40 ------- 3 0.3 4.3 0 14 1 0x1a 40 0
- 0.233791 3 4 ack 40 ------- 3 0.3 4.3 0 14 1 0x1a 40 0
r 0.234794 3 4 ack 40 ------- 3 0.3 4.3 0 14 1 0x1a 40 0
+ 0.234794 4 3 tcp 40 ------- 3 4.3 0.3 1 20 1 0x10 40 0
- 0.234794 4 3 tcp 40 ------- 3 4.3 0.3 1 20 1 0x10 40 0
+ 0.234794 4 3 tcp 576 ------- 3 4.3 0.3 1 21 1 0x10 40 0
- 0.234797 4 3 tcp 576 ------- 3 4.3 0.3 1 21 1 0x10 40 0
r 0.235797 4 3 tcp 40 ------- 3 4.3 0.3 1 20 1 0x10 40 0
r 0.235843 4 3 tcp 576 ------- 3 4.3 0.3 1 21 1 0x10 40 0
+ 0.239282 3 2 tcp 40 ------- 2 4.2 0.2 1 17 1 0x10 40 0
- 0.239282 3 2 tcp 40 ------- 2 4.2 0.2 1 17 1 0x10 40 0
+ 0.239328 3 2 tcp 576 ------- 2 4.2 0.2 1 18 1 0x10 40 0
- 0.239328 3 2 tcp 576 ------- 2 4.2 0.2 1 18 1 0x10 40 0
r 0.240285 3 2 tcp 40 ------- 2 4.2 0.2 1 17 1 0x10 40 0
+ 0.240355 3 4 ack 40 ------- 0 0.0 4.0 1 13 537 0x18 40 0
- 0.240355 3 4 ack 40 ------- 0 0.0 4.0 1 13 537 0x18 40 0
r 0.240374 3 2 tcp 576 ------- 2 4.2 0.2 1 18 1 0x10 40 0
r 0.241358 3 4 ack 40 ------- 0 0.0 4.0 1 13 537 0x18 40 0
+ 0.241358 4 3 tcp 485 ------- 0 4.0 0.0 537 22 1 0x18 40 0
- 0.241358 4 3 tcp 485 ------- 0 4.0 0.0 537 22 1 0x18 40 0
r 0.242397 4 3 tcp 485 ------- 0 4.0 0.0 537 22 1 0x18 40 0
+ 0.246398 3 2 tcp 40 ------- 3 4.3 0.3 1 20 1 0x10 40 0
- 0.246398 3 2 tcp 40 ------- 3 4.3 0.3 1 20 1 0x10 40 0
+ 0.246416 3 4 ack 40 ------- 5 0.5 4.5 0 16 1 0x1a 40 0
- 0.246416 3 4 ack 40 ------- 5 0.5 4.5 0 16 1 0x1a 40 0
+ 0.246444 3 2 tcp 576 ------- 3 4.3 0.3 1 21 1 0x10 40 0
- 0.246444 3 2 tcp 576 ------- 3 4.3 0.3 1 21 1 0x10 40 0
r 0.247401 3 2 tcp 40 ------- 3 4.3 0.3 1 20 1 0x10 40 0
r 0.247419 3 4 ack 40 ------- 5 0.5 4.5 0 16 1 0x1a 40 0
+ 0.247419 4 3 tcp 40 ------- 5 4.5 0.5 1 23 1 0x10 40 0
- 0.247419 4 3 tcp 40 ------- 5 4.5 0.5 1 23 1 0x10 40 0
+ 0.247419 4 3 tcp 483 ------- 5 4.5 0.5 1 24 1 0x18 40 0
- 0.247422 4 3 tcp 483 ------- 5 4.5 0.5 1 24 1 0x18 40 0
r 0.24749 3 2 tcp 576 ------- 3 4.3 0.3 1 21 1 0x10 40 0
r 0.248422 4 3 tcp 40 ------- 5 4.5 0.5 1 23 1 0x10 40 0
r 0.248461 4 3 tcp 483 ------- 5 4.5 0.5 1 24 1 0x18 40 0
+ 0.25072 2 0 tcp 40 ------- 6 4.6 0.6 0 15 -1 0xa 40 0
- 0.25072 2 0 tcp 40 ------- 6 4.6 0.6 0 15 -1 0xa 40 0
+ 0.25102 3 2 tcp 485 ------- 0 4.0 0.0 537 22 1 0x18 40 0
- 0.25102 3 2 tcp 485 ------- 0 4.0 0.0 537 22 1 0x18 40 0
r 0.251723 2 0 tcp 40 ------- 6 4.6 0.6 0 15 -1 0xa 40 0
+ 0.251723 0 2 ack 40 ------- 6 0.6 4.6 0 25 1 0x1a 40 0
- 0.251723 0 2 ack 40 ------- 6 0.6 4.6 0 25 1 0x1a 40 0
r 0.252059 3 2 tcp 485 ------- 0 4.0 0.0 537 22 1 0x18 40 0
r 0.252727 0 2 ack 40 ------- 6 0.6 4.6 0 25 1 0x1a 40 0
+ 0.26324 3 2 tcp 40 ------- 5 4.5 0.5 1 23 1 0x10 40 0
- 0.26324 3 2 tcp 40 ------- 5 4.5 0.5 1 23 1 0x10 40 0
+ 0.263278 3 2 tcp 483 ------- 5 4.5 0.5 1 24 1 0x18 40 0
- 0.263278 3 2 tcp 483 ------- 5 4.5 0.5 1 24 1 0x18 40 0
r 0.264243 3 2 tcp 40 ------- 5 4.5 0.5 1 23 1 0x10 40 0
r 0.264317 3 2 tcp 483 ------- 5 4.5 0.5 1 24 1 0x18 40 0
+ 0.272945 0 2 ack 576 ------- 1 0.1 4.1 1 26 276 0x10 40 0
- 0.272945 0 2 ack 576 ------- 1 0.1 4.1 1 26 276 0x10 40 0
+ 0.272945 0 2 ack 576 ------- 1 0.1 4.1 537 27 276 0x10 40 0
- 0.272991 0 2 ack 576 ------- 1 0.1 4.1 537 27 276 0x10 40 0
+ 0.273067 2 0 tcp 40 ------- 2 4.2 0.2 1 17 1 0x10 40 0
- 0.273067 2 0 tcp 40 ------- 2 4.2 0.2 1 17 1 0x10 40 0
+ 0.273156 2 0 tcp 576 ------- 2 4.2 0.2 1 18 1 0x10 40 0
- 0.273156 2 0 tcp 576 ------- 2 4.2 0.2 1 18 1 0x10 40 0
r 0.273991 0 2 ack 576 ------- 1 0.1 4.1 1 26 276 0x10 40 0
r 0.274037 0 2 ack 576 ------- 1 0.1 4.1 537 27 276 0x10 40 0
r 0.274071 2 0 tcp 40 ------- 2 4.2 0.2 1 17 1 0x10 40 0
r 0.274202 2 0 tcp 576 ------- 2 4.2 0.2 1 18 1 0x10 40 0
+ 0.274202 0 2 ack 40 ------- 2 0.2 4.2 1 28 537 0x18 40 0
- 0.274202 0 2 ack 40 ------- 2 0.2 4.2 1 28 537 0x18 40 0
r 0.275206 0 2 ack 40 ------- 2 0.2 4.2 1 28 537 0x18 40 0
+ 0.280672 2 3 ack 40 ------- 4 0.4 4.4 0 19 1 0x1a 40 0
- 0.280672 2 3 ack 40 ------- 4 0.4 4.4 0 19 1 0x1a 40 0
r 0.281675 2 3 ack 40 ------- 4 0.4 4.4 0 19 1 0x1a 40 0
+ 0.285622 2 0 tcp 40 ------- 3 4.3 0.3 1 20 1 0x10 40 0
- 0.285622 2 0 tcp 40 ------- 3 4.3 0.3 1 20 1 0x10 40 0
+ 0.285711 2 0 tcp 576 ------- 3 4.3 0.3 1 21 1 0x10 40 0
- 0.285711 2 0 tcp 576 ------- 3 4.3 0.3 1 21 1 0x10 40 0
r 0.286625 2 0 tcp 40 ------- 3 4.3 0.3 1 20 1 0x10 40 0
r 0.286757 2 0 tcp 576 ------- 3 4.3 0.3 1 21 1 0x10 40 0
+ 0.286757 0 2 ack 40 ------- 3 0.3 4.3 1 29 537 0x18 40 0
- 0.286757 0 2 ack 40 ------- 3 0.3 4.3 1 29 537 0x18 40 0
+ 0.287461 2 0 tcp 40 ------- 5 4.5 0.5 1 23 1 0x10 40 0
- 0.287461 2 0 tcp 40 ------- 5 4.5 0.5 1 23 1 0x10 40 0
+ 0.287535 2 0 tcp 483 ------- 5 4.5 0.5 1 24 1 0x18 40 0
- 0.287535 2 0 tcp 483 ------- 5 4.5 0.5 1 24 1 0x18 40 0
r 0.28776 0 2 ack 40 ------- 3 0.3 4.3 1 29 537 0x18 40 0
r 0.288465 2 0 tcp 40 ------- 5 4.5 0.5 1 23 1 0x10 40 0
r 0.288574 2 0 tcp 483 ------- 5 4.5 0.5 1 24 1 0x18 40 0
+ 0.289475 0 2 ack 439 ------- 5 0.5 4.5 1 30 444 0x19 40 0
- 0.289475 0 2 ack 439 ------- 5 0.5 4.5 1 30 444 0x19 40 0
r 0.29051 0 2 ack 439 ------- 5 0.5 4.5 1 30 444 0x19 40 0
+ 0.296437 2 3 ack 40 ------- 6 0.6 4.6 0 25 1 0x1a 40 0
- 0.296437 2 3 ack 40 ------- 6 0.6 4.6 0 25 1 0x1a 40 0
r 0.297441 2 3 ack 40 ------- 6 0.6 4.6 0 25 1 0x1a 40 0
+ 0.298273 3 4 ack 40 ------- 4 0.4 4.4 0 19 1 0x1a 40 0
- 0.298273 3 4 ack 40 ------- 4 0.4 4.4 0 19 1 0x1a 40 0
r 0.299276 3 4 ack 40 ------- 4 0.4 4.4 0 19 1 0x1a 40 0
+ 0.299276 4 3 tcp 40 ------- 4 4.4 0.4 1 31 1 0x10 40 0
- 0.299276 4 3 tcp 40 ------- 4 4.4 0.4 1 31 1 0x10 40 0
+ 0.299276 4 3 tcp 576 ------- 4 4.4 0.4 1 32 1 0x10 40 0
- 0.299279 4 3 tcp 576 ------- 4 4.4 0.4 1 32 1 0x10 40 0
r 0.300279 4 3 tcp 40 ------- 4 4.4 0.4 1 31 1 0x10 40 0
r 0.300325 4 3 tcp 576 ------- 4 4.4 0.4 1 32 1 0x10 40 0
+ 0.300733 2 0 tcp 485 ------- 0 4.0 0.0 537 22 1 0x18 40 0
- 0.300733 2 0 tcp 485 ------- 0 4.0 0.0 537 22 1 0x18 40 0
r 0.301772 2 0 tcp 485 ------- 0 4.0 0.0 537 22 1 0x18 40 0
+ 0.302573 4 3 tcp 40 ------- 7 4.7 0.7 0 33 -1 0xa 40 0
- 0.302573 4 3 tcp 40 ------- 7 4.7 0.7 0 33 -1 0xa 40 0
r 0.303577 4 3 tcp 40 ------- 7 4.7 0.7 0 33 -1 0xa 40 0
+ 0.303981 2 3 ack 576 ------- 1 0.1 4.1 1 26 276 0x10 40 0
- 0.303981 2 3 ack 576 ------- 1 0.1 4.1 1 26 276 0x10 40 0
+ 0.30423 2 3 ack 576 ------- 1 0.1 4.1 537 27 276 0x10 40 0
- 0.30423 2 3 ack 576 ------- 1 0.1 4.1 537 27 276 0x10 40 0
r 0.305027 2 3 ack 576 ------- 1 0.1 4.1 1 26 276 0x10 40 0
r 0.305276 2 3 ack 576 ------- 1 0.1 4.1 537 27 276 0x10 40 0
+ 0.307988 2 3 ack 40 ------- 2 0.2 4.2 1 28 537 0x18 40 0
- 0.307988 2 3 ack 40 ------- 2 0.2 4.2 1 28 537 0x18 40 0
+ 0.308405 3 2 tcp 40 ------- 7 4.7 0.7 0 33 -1 0xa 40 0
- 0.308405 3 2 tcp 40 ------- 7 4.7 0.7 0 33 -1 0xa 40 0
r 0.308991 2 3 ack 40 ------- 2 0.2 4.2 1 28 537 0x18 40 0
r 0.309408 3 2 tcp 40 ------- 7 4.7 0.7 0 33 -1 0xa 40 0
+ 0.312317 3 4 ack 40 ------- 6 0.6 4.6 0 25 1 0x1a 40 0
- 0.312317 3 4 ack 40 ------- 6 0.6 4.6 0 25 1 0x1a 40 0
r 0.31332 3 4 ack 40 ------- 6 0.6 4.6 0 25 1 0x1a 40 0
+ 0.31332 4 3 tcp 40 ------- 6 4.6 0.6 1 34 1 0x10 40 0
- 0.31332 4 3 tcp 40 ------- 6 4.6 0.6 1 34 1 0x10 40 0
+ 0.31332 4 3 tcp 420 ------- 6 4.6 0.6 1 35 1 0x18 40 0
- 0.313323 4 3 tcp 420 ------- 6 4.6 0.6 1 35 1 0x18 40 0
+ 0.313728 2 3 ack 439 ------- 5 0.5 4.5 1 30 444 0x19 40 0
- 0.313728 2 3 ack 439 ------- 5 0.5 4.5 1 30 444 0x19 40 0
r 0.314323 4 3 tcp 40 ------- 6 4.6 0.6 1 34 1 0x10 40 0
r 0.314357 4 3 tcp 420 ------- 6 4.6 0.6 1 35 1 0x18 40 0
r 0.314764 2 3 ack 439 ------- 5 0.5 4.5 1 30 444 0x19 40 0
+ 0.316877 3 2 tcp 40 ------- 4 4.4 0.4 1 31 1 0x10 40 0
- 0.316877 3 2 tcp 40 ------- 4 4.4 0.4 1 31 1 0x10 40 0
+ 0.316923 3 2 tcp 576 ------- 4 4.4 0.4 1 32 1 0x10 40 0
- 0.316923 3 2 tcp 576 ------- 4 4.4 0.4 1 32 1 0x10 40 0
r 0.31788 3 2 tcp 40 ------- 4 4.4 0.4 1 31 1 0x10 40 0
r 0.317969 3 2 tcp 576 ------- 4 4.4 0.4 1 32 1 0x10 40 0
+ 0.31867 3 4 ack 576 ------- 1 0.1 4.1 1 26 276 0x10 40 0
- 0.31867 3 4 ack 576 ------- 1 0.1 4.1 1 26 276 0x10 40 0
+ 0.318919 3 4 ack 576 ------- 1 0.1 4.1 537 27 276 0x10 40 0
- 0.318919 3 4 ack 576 ------- 1 0.1 4.1 537 27 276 0x10 40 0
r 0.319717 3 4 ack 576 ------- 1 0.1 4.1 1 26 276 0x10 40 0
+ 0.319717 4 3 tcp 40 ------- 1 4.1 0.1 276 36 537 0x18 40 0
- 0.319717 4 3 tcp 40 ------- 1 4.1 0.1 276 36 537 0x18 40 0
r 0.319966 3 4 ack 576 ------- 1 0.1 4.1 537 27 276 0x10 40 0
+ 0.319966 4 3 tcp 40 ------- 1 4.1 0.1 276 37 1073 0x18 40 0
- 0.319966 4 3 tcp 40 ------- 1 4.1 0.1 276 37 1073 0x18 40 0
r 0.32072 4 3 tcp 40 ------- 1 4.1 0.1 276 36 537 0x18 40 0
r 0.320969 4 3 tcp 40 ------- 1 4.1 0.1 276 37 1073 0x18 40 0
+ 0.323326 3 4 ack 40 ------- 2 0.2 4.2 1 28 537 0x18 40 0
- 0.323326 3 4 ack 40 ------- 2 0.2 4.2 1 28 537 0x18 40 0
r 0.324329 3 4 ack 40 ------- 2 0.2 4.2 1 28 537 0x18 40 0
+ 0.324329 4 3 tcp 91 ------- 2 4.2 0.2 537 38 1 0x18 40 0
- 0.324329 4 3 tcp 91 ------- 2 4.2 0.2 537 38 1 0x18 40 0
r 0.325336 4 3 tcp 91 ------- 2 4.2 0.2 537 38 1 0x18 40 0
+ 0.325981 2 3 ack 40 ------- 3 0.3 4.3 1 29 537 0x18 40 0
- 0.325981 2 3 ack 40 ------- 3 0.3 4.3 1 29 537 0x18 40 0
r 0.326984 2 3 ack 40 ------- 3 0.3 4.3 1 29 537 0x18 40 0
+ 0.3292 3 2 tcp 40 ------- 6 4.6 0.6 1 34 1 0x10 40 0
- 0.3292 3 2 tcp 40 ------- 6 4.6 0.6 1 34 1 0x10 40 0
+ 0.329234 3 2 tcp 420 ------- 6 4.6 0.6 1 35 1 0x18 40 0
- 0.329234 3 2 tcp 420 ------- 6 4.6 0.6 1 35 1 0x18 40 0
+ 0.329581 3 4 ack 439 ------- 5 0.5 4.5 1 30 444 0x19 40 0
- 0.329581 3 4 ack 439 ------- 5 0.5 4.5 1 30 444 0x19 40 0
r 0.330203 3 2 tcp 40 ------- 6 4.6 0.6 1 34 1 0x10 40 0
r 0.330267 3 2 tcp 420 ------- 6 4.6 0.6 1 35 1 0x18 40 0
r 0.330616 3 4 ack 439 ------- 5 0.5 4.5 1 30 444 0x19 40 0
+ 0.330616 4 3 tcp 40 ------- 5 4.5 0.5 444 39 401 0x18 40 0
- 0.330616 4 3 tcp 40 ------- 5 4.5 0.5 444 39 401 0x18 40 0
+ 0.330616 4 3 tcp 40 ------- 5 4.5 0.5 444 40 401 0x19 40 0
- 0.330619 4 3 tcp 40 ------- 5 4.5 0.5 444 40 401 0x19 40 0
r 0.331619 4 3 tcp 40 ------- 5 4.5 0.5 444 39 401 0x18 40 0
r 0.331622 4 3 tcp 40 ------- 5 4.5 0.5 444 40 401 0x19 40 0
+ 0.334363 3 2 tcp 40 ------- 1 4.1 0.1 276 36 537 0x18 40 0
- 0.334363 3 2 tcp 40 ------- 1 4.1 0.1 276 36 537 0x18 40 0
+ 0.334612 3 2 tcp 40 ------- 1 4.1 0.1 276 37 1073 0x18 40 0
- 0.334612 3 2 tcp 40 ------- 1 4.1 0.1 276 37 1073 0x18 40 0
r 0.335367 3 2 tcp 40 ------- 1 4.1 0.1 276 36 537 0x18 40 0
r 0.335616 3 2 tcp 40 ------- 1 4.1 0.1 276 37 1073 0x18 40 0
+ 0.336264 2 0 tcp 40 ------- 7 4.7 0.7 0 33 -1 0xa 40 0
- 0.336264 2 0 tcp 40 ------- 7 4.7 0.7 0 33 -1 0xa 40 0
r 0.337268 2 0 tcp 40 ------- 7 4.7 0.7 0 33 -1 0xa 40 0
+ 0.337268 0 2 ack 40 ------- 7 0.7 4.7 0 41 1 0x1a 40 0
- 0.337268 0 2 ack 40 ------- 7 0.7 4.7 0 41 1 0x1a 40 0
+ 0.337585 3 4 ack 40 ------- 3 0.3 4.3 1 29 537 0x18 40 0
- 0.337585 3 4 ack 40 ------- 3 0.3 4.3 1 29 537 0x18 40 0
r 0.338271 0 2 ack 40 ------- 7 0.7 4.7 0 41 1 0x1a 40 0
r 0.338588 3 4 ack 40 ------- 3 0.3 4.3 1 29 537 0x18 40 0
+ 0.338588 4 3 tcp 140 ------- 3 4.3 0.3 537 42 1 0x18 40 0
- 0.338588 4 3 tcp 140 ------- 3 4.3 0.3 537 42 1 0x18 40 0
r 0.339599 4 3 tcp 140 ------- 3 4.3 0.3 537 42 1 0x18 40 0
+ 0.339671 3 2 tcp 91 ------- 2 4.2 0.2 537 38 1 0x18 40 0
- 0.339671 3 2 tcp 91 ------- 2 4.2 0.2 537 38 1 0x18 40 0
r 0.340678 3 2 tcp 91 ------- 2 4.2 0.2 537 38 1 0x18 40 0
+ 0.346437 3 2 tcp 40 ------- 5 4.5 0.5 444 39 401 0x18 40 0
- 0.346437 3 2 tcp 40 ------- 5 4.5 0.5 444 39 401 0x18 40 0
+ 0.34644 3 2 tcp 40 ------- 5 4.5 0.5 444 40 401 0x19 40 0
- 0.34644 3 2 tcp 40 ------- 5 4.5 0.5 444 40 401 0x19 40 0
r 0.34744 3 2 tcp 40 ------- 5 4.5 0.5 444 39 401 0x18 40 0
r 0.347443 3 2 tcp 40 ------- 5 4.5 0.5 444 40 401 0x19 40 0
+ 0.3502 3 2 tcp 140 ------- 3 4.3 0.3 537 42 1 0x18 40 0
- 0.3502 3 2 tcp 140 ------- 3 4.3 0.3 537 42 1 0x18 40 0
r 0.351211 3 2 tcp 140 ------- 3 4.3 0.3 537 42 1 0x18 40 0
+ 0.365127 2 3 ack 40 ------- 7 0.7 4.7 0 41 1 0x1a 40 0
- 0.365127 2 3 ack 40 ------- 7 0.7 4.7 0 41 1 0x1a 40 0
+ 0.365316 2 0 tcp 40 ------- 4 4.4 0.4 1 31 1 0x10 40 0
- 0.365316 2 0 tcp 40 ------- 4 4.4 0.4 1 31 1 0x10 40 0
+ 0.365357 2 0 tcp 40 ------- 1 4.1 0.1 276 36 537 0x18 40 0
- 0.365357 2 0 tcp 40 ------- 1 4.1 0.1 276 36 537 0x18 40 0
+ 0.365405 2 0 tcp 576 ------- 4 4.4 0.4 1 32 1 0x10 40 0
- 0.365405 2 0 tcp 576 ------- 4 4.4 0.4 1 32 1 0x10 40 0
+ 0.365606 2 0 tcp 40 ------- 1 4.1 0.1 276 37 1073 0x18 40 0
- 0.365606 2 0 tcp 40 ------- 1 4.1 0.1 276 37 1073 0x18 40 0
r 0.36613 2 3 ack 40 ------- 7 0.7 4.7 0 41 1 0x1a 40 0
r 0.366319 2 0 tcp 40 ------- 4 4.4 0.4 1 31 1 0x10 40 0
r 0.36636 2 0 tcp 40 ------- 1 4.1 0.1 276 36 537 0x18 40 0
+ 0.36636 0 2 ack 576 ------- 1 0.1 4.1 1073 43 276 0x10 40 0
- 0.36636 0 2 ack 576 ------- 1 0.1 4.1 1073 43 276 0x10 40 0
+ 0.36636 0 2 ack 576 ------- 1 0.1 4.1 1609 44 276 0x10 40 0
- 0.366406 0 2 ack 576 ------- 1 0.1 4.1 1609 44 276 0x10 40 0
r 0.366451 2 0 tcp 576 ------- 4 4.4 0.4 1 32 1 0x10 40 0
+ 0.366451 0 2 ack 40 ------- 4 0.4 4.4 1 45 537 0x18 40 0
- 0.366452 0 2 ack 40 ------- 4 0.4 4.4 1 45 537 0x18 40 0
r 0.366609 2 0 tcp 40 ------- 1 4.1 0.1 276 37 1073 0x18 40 0
+ 0.366609 0 2 ack 576 ------- 1 0.1 4.1 2145 46 276 0x10 40 0
- 0.366609 0 2 ack 576 ------- 1 0.1 4.1 2145 46 276 0x10 40 0
+ 0.366609 0 2 ack 576 ------- 1 0.1 4.1 2681 47 276 0x10 40 0
- 0.366655 0 2 ack 576 ------- 1 0.1 4.1 2681 47 276 0x10 40 0
r 0.367406 0 2 ack 576 ------- 1 0.1 4.1 1073 43 276 0x10 40 0
r 0.367452 0 2 ack 576 ------- 1 0.1 4.1 1609 44 276 0x10 40 0
r 0.367455 0 2 ack 40 ------- 4 0.4 4.4 1 45 537 0x18 40 0
r 0.367655 0 2 ack 576 ------- 1 0.1 4.1 2145 46 276 0x10 40 0
r 0.367701 0 2 ack 576 ------- 1 0.1 4.1 2681 47 276 0x10 40 0
+ 0.370658 2 0 tcp 40 ------- 5 4.5 0.5 444 39 401 0x18 40 0
- 0.370658 2 0 tcp 40 ------- 5 4.5 0.5 444 39 401 0x18 40 0
+ 0.370688 2 0 tcp 40 ------- 5 4.5 0.5 444 40 401 0x19 40 0
- 0.370688 2 0 tcp 40 ------- 5 4.5 0.5 444 40 401 0x19 40 0
+ 0.370959 3 4 ack 40 ------- 7 0.7 4.7 0 41 1 0x1a 40 0
- 0.370959 3 4 ack 40 ------- 7 0.7 4.7 0 41 1 0x1a 40 0
r 0.371662 2 0 tcp 40 ------- 5 4.5 0.5 444 39 401 0x18 40 0
r 0.371691 2 0 tcp 40 ------- 5 4.5 0.5 444 40 401 0x19 40 0
+ 0.371691 0 2 ack 40 ------- 5 0.5 4.5 401 48 445 0x18 40 0
- 0.371691 0 2 ack 40 ------- 5 0.5 4.5 401 48 445 0x18 40 0
r 0.371962 3 4 ack 40 ------- 7 0.7 4.7 0 41 1 0x1a 40 0
+ 0.371962 4 3 tcp 40 ------- 7 4.7 0.7 1 49 1 0x10 40 0
- 0.371962 4 3 tcp 40 ------- 7 4.7 0.7 1 49 1 0x10 40 0
+ 0.371962 4 3 tcp 244 ------- 7 4.7 0.7 1 50 1 0x18 40 0
- 0.371965 4 3 tcp 244 ------- 7 4.7 0.7 1 50 1 0x18 40 0
r 0.372694 0 2 ack 40 ------- 5 0.5 4.5 401 48 445 0x18 40 0
+ 0.372694 2 3 ack 40 ------- 5 0.5 4.5 401 48 445 0x18 40 0
- 0.372694 2 3 ack 40 ------- 5 0.5 4.5 401 48 445 0x18 40 0
r 0.372965 4 3 tcp 40 ------- 7 4.7 0.7 1 49 1 0x10 40 0
r 0.372984 4 3 tcp 244 ------- 7 4.7 0.7 1 50 1 0x18 40 0
+ 0.37346 2 0 tcp 91 ------- 2 4.2 0.2 537 38 1 0x18 40 0
- 0.37346 2 0 tcp 91 ------- 2 4.2 0.2 537 38 1 0x18 40 0
r 0.373697 2 3 ack 40 ------- 5 0.5 4.5 401 48 445 0x18 40 0
+ 0.373697 3 4 ack 40 ------- 5 0.5 4.5 401 48 445 0x18 40 0
- 0.373697 3 4 ack 40 ------- 5 0.5 4.5 401 48 445 0x18 40 0
+ 0.373914 2 0 tcp 40 ------- 6 4.6 0.6 1 34 1 0x10 40 0
- 0.373914 2 0 tcp 40 ------- 6 4.6 0.6 1 34 1 0x10 40 0
+ 0.373989 2 0 tcp 420 ------- 6 4.6 0.6 1 35 1 0x18 40 0
- 0.373989 2 0 tcp 420 ------- 6 4.6 0.6 1 35 1 0x18 40 0
r 0.374467 2 0 tcp 91 ------- 2 4.2 0.2 537 38 1 0x18 40 0
r 0.3747 3 4 ack 40 ------- 5 0.5 4.5 401 48 445 0x18 40 0
r 0.374917 2 0 tcp 40 ------- 6 4.6 0.6 1 34 1 0x10 40 0
r 0.375023 2 0 tcp 420 ------- 6 4.6 0.6 1 35 1 0x18 40 0
+ 0.377793 3 2 tcp 40 ------- 7 4.7 0.7 1 49 1 0x10 40 0
- 0.377793 3 2 tcp 40 ------- 7 4.7 0.7 1 49 1 0x10 40 0
+ 0.377813 3 2 tcp 244 ------- 7 4.7 0.7 1 50 1 0x18 40 0
- 0.377813 3 2 tcp 244 ------- 7 4.7 0.7 1 50 1 0x18 40 0
r 0.378796 3 2 tcp 40 ------- 7 4.7 0.7 1 49 1 0x10 40 0
r 0.378832 3 2 tcp 244 ------- 7 4.7 0.7 1 50 1 0x18 40 0
+ 0.380416 0 2 ack 576 ------- 6 0.6 4.6 1 51 381 0x10 40 0
- 0.380416 0 2 ack 576 ------- 6 0.6 4.6 1 51 381 0x10 40 0
+ 0.380416 0 2 ack 576 ------- 6 0.6 4.6 537 52 381 0x10 40 0
- 0.380462 0 2 ack 576 ------- 6 0.6 4.6 537 52 381 0x10 40 0
r 0.381462 0 2 ack 576 ------- 6 0.6 4.6 1 51 381 0x10 40 0
r 0.381508 0 2 ack 576 ------- 6 0.6 4.6 537 52 381 0x10 40 0
+ 0.388312 0 2 ack 179 ------- 2 0.2 4.2 1 53 588 0x19 40 0
- 0.388312 0 2 ack 179 ------- 2 0.2 4.2 1 53 588 0x19 40 0
r 0.389327 0 2 ack 179 ------- 2 0.2 4.2 1 53 588 0x19 40 0
+ 0.389432 2 0 tcp 140 ------- 3 4.3 0.3 537 42 1 0x18 40 0
- 0.389432 2 0 tcp 140 ------- 3 4.3 0.3 537 42 1 0x18 40 0
r 0.390443 2 0 tcp 140 ------- 3 4.3 0.3 537 42 1 0x18 40 0
+ 0.394056 0 2 ack 576 ------- 3 0.3 4.3 1 54 637 0x10 40 0
- 0.394056 0 2 ack 576 ------- 3 0.3 4.3 1 54 637 0x10 40 0
+ 0.394056 0 2 ack 576 ------- 3 0.3 4.3 537 55 637 0x10 40 0
- 0.394102 0 2 ack 576 ------- 3 0.3 4.3 537 55 637 0x10 40 0
r 0.395102 0 2 ack 576 ------- 3 0.3 4.3 1 54 637 0x10 40 0
r 0.395148 0 2 ack 576 ------- 3 0.3 4.3 537 55 637 0x10 40 0
+ 0.397396 2 3 ack 576 ------- 1 0.1 4.1 1073 43 276 0x10 40 0
- 0.397396 2 3 ack 576 ------- 1 0.1 4.1 1073 43 276 0x10 40 0
+ 0.397645 2 3 ack 576 ------- 1 0.1 4.1 1609 44 276 0x10 40 0
- 0.397645 2 3 ack 576 ------- 1 0.1 4.1 1609 44 276 0x10 40 0
+ 0.397894 2 3 ack 576 ------- 1 0.1 4.1 2145 46 276 0x10 40 0
- 0.397894 2 3 ack 576 ------- 1 0.1 4.1 2145 46 276 0x10 40 0
+ 0.398143 2 3 ack 576 ------- 1 0.1 4.1 2681 47 276 0x10 40 0
- 0.398143 2 3 ack 576 ------- 1 0.1 4.1 2681 47 276 0x10 40 0
r 0.398442 2 3 ack 576 ------- 1 0.1 4.1 1073 43 276 0x10 40 0
r 0.398691 2 3 ack 576 ------- 1 0.1 4.1 1609 44 276 0x10 40 0
r 0.39894 2 3 ack 576 ------- 1 0.1 4.1 2145 46 276 0x10 40 0
r 0.399189 2 3 ack 576 ------- 1 0.1 4.1 2681 47 276 0x10 40 0
+ 0.4 0 2 ack 40 ------- 0 0.0 4.0 1 56 982 0x18 40 0
- 0.4 0 2 ack 40 ------- 0 0.0 4.0 1 56 982 0x18 40 0
r 0.401003 0 2 ack 40 ------- 0 0.0 4.0 1 56 982 0x18 40 0
+ 0.401772 0 2 ack 460 ------- 0 0.0 4.0 1 57 982 0x19 40 0
- 0.401772 0 2 ack 460 ------- 0 0.0 4.0 1 57 982 0x19 40 0
r 0.402809 0 2 ack 460 ------- 0 0.0 4.0 1 57 982 0x19 40 0
+ 0.405653 2 0 tcp 40 ------- 7 4.7 0.7 1 49 1 0x10 40 0
- 0.405653 2 0 tcp 40 ------- 7 4.7 0.7 1 49 1 0x10 40 0
+ 0.405688 2 0 tcp 244 ------- 7 4.7 0.7 1 50 1 0x18 40 0
- 0.405688 2 0 tcp 244 ------- 7 4.7 0.7 1 50 1 0x18 40 0
r 0.406656 2 0 tcp 40 ------- 7 4.7 0.7 1 49 1 0x10 40 0
r 0.406708 2 0 tcp 244 ------- 7 4.7 0.7 1 50 1 0x18 40 0
+ 0.412086 3 4 ack 576 ------- 1 0.1 4.1 1073 43 276 0x10 40 0
- 0.412086 3 4 ack 576 ------- 1 0.1 4.1 1073 43 276 0x10 40 0
+ 0.412335 3 4 ack 576 ------- 1 0.1 4.1 1609 44 276 0x10 40 0
- 0.412335 3 4 ack 576 ------- 1 0.1 4.1 1609 44 276 0x10 40 0
+ 0.412584 3 4 ack 576 ------- 1 0.1 4.1 2145 46 276 0x10 40 0
- 0.412584 3 4 ack 576 ------- 1 0.1 4.1 2145 46 276 0x10 40 0
+ 0.412833 3 4 ack 576 ------- 1 0.1 4.1 2681 47 276 0x10 40 0
- 0.412833 3 4 ack 576 ------- 1 0.1 4.1 2681 47 276 0x10 40 0
r 0.413132 3 4 ack 576 ------- 1 0.1 4.1 1073 43 276 0x10 40 0
+ 0.413132 4 3 tcp 40 ------- 1 4.1 0.1 276 58 1609 0x18 40 0
- 0.413132 4 3 tcp 40 ------- 1 4.1 0.1 276 58 1609 0x18 40 0
r 0.413381 3 4 ack 576 ------- 1 0.1 4.1 1609 44 276 0x10 40 0
+ 0.413381 4 3 tcp 40 ------- 1 4.1 0.1 276 59 2145 0x18 40 0
- 0.413381 4 3 tcp 40 ------- 1 4.1 0.1 276 59 2145 0x18 40 0
r 0.41363 3 4 ack 576 ------- 1 0.1 4.1 2145 46 276 0x10 40 0
+ 0.41363 4 3 tcp 40 ------- 1 4.1 0.1 276 60 2681 0x18 40 0
- 0.41363 4 3 tcp 40 ------- 1 4.1 0.1 276 60 2681 0x18 40 0
r 0.413879 3 4 ack 576 ------- 1 0.1 4.1 2681 47 276 0x10 40 0
+ 0.413879 4 3 tcp 40 ------- 1 4.1 0.1 276 61 3217 0x18 40 0
- 0.413879 4 3 tcp 40 ------- 1 4.1 0.1 276 61 3217 0x18 40 0
r 0.414135 4 3 tcp 40 ------- 1 4.1 0.1 276 58 1609 0x18 40 0
r 0.414384 4 3 tcp 40 ------- 1 4.1 0.1 276 59 2145 0x18 40 0
r 0.414633 4 3 tcp 40 ------- 1 4.1 0.1 276 60 2681 0x18 40 0
r 0.414882 4 3 tcp 40 ------- 1 4.1 0.1 276 61 3217 0x18 40 0
+ 0.414891 2 3 ack 40 ------- 4 0.4 4.4 1 45 537 0x18 40 0
- 0.414891 2 3 ack 40 ------- 4 0.4 4.4 1 45 537 0x18 40 0
r 0.415894 2 3 ack 40 ------- 4 0.4 4.4 1 45 537 0x18 40 0
+ 0.422109 2 3 ack 179 ------- 2 0.2 4.2 1 53 588 0x19 40 0
- 0.422109 2 3 ack 179 ------- 2 0.2 4.2 1 53 588 0x19 40 0
r 0.423123 2 3 ack 179 ------- 2 0.2 4.2 1 53 588 0x19 40 0
+ 0.425173 2 3 ack 576 ------- 6 0.6 4.6 1 51 381 0x10 40 0
- 0.425173 2 3 ack 576 ------- 6 0.6 4.6 1 51 381 0x10 40 0
r 0.426219 2 3 ack 576 ------- 6 0.6 4.6 1 51 381 0x10 40 0
+ 0.426259 2 3 ack 576 ------- 6 0.6 4.6 537 52 381 0x10 40 0
- 0.426259 2 3 ack 576 ------- 6 0.6 4.6 537 52 381 0x10 40 0
r 0.427305 2 3 ack 576 ------- 6 0.6 4.6 537 52 381 0x10 40 0
+ 0.427779 3 2 tcp 40 ------- 1 4.1 0.1 276 58 1609 0x18 40 0
- 0.427779 3 2 tcp 40 ------- 1 4.1 0.1 276 58 1609 0x18 40 0
+ 0.428028 3 2 tcp 40 ------- 1 4.1 0.1 276 59 2145 0x18 40 0
- 0.428028 3 2 tcp 40 ------- 1 4.1 0.1 276 59 2145 0x18 40 0
+ 0.428277 3 2 tcp 40 ------- 1 4.1 0.1 276 60 2681 0x18 40 0
- 0.428277 3 2 tcp 40 ------- 1 4.1 0.1 276 60 2681 0x18 40 0
+ 0.428526 3 2 tcp 40 ------- 1 4.1 0.1 276 61 3217 0x18 40 0
- 0.428526 3 2 tcp 40 ------- 1 4.1 0.1 276 61 3217 0x18 40 0
r 0.428782 3 2 tcp 40 ------- 1 4.1 0.1 276 58 1609 0x18 40 0
r 0.429031 3 2 tcp 40 ------- 1 4.1 0.1 276 59 2145 0x18 40 0
r 0.42928 3 2 tcp 40 ------- 1 4.1 0.1 276 60 2681 0x18 40 0
r 0.429529 3 2 tcp 40 ------- 1 4.1 0.1 276 61 3217 0x18 40 0
+ 0.432492 3 4 ack 40 ------- 4 0.4 4.4 1 45 537 0x18 40 0
- 0.432492 3 4 ack 40 ------- 4 0.4 4.4 1 45 537 0x18 40 0