+ 0 4 3 tcp 40 ------- 0 4.0 0.0 0 0 -1 0xa 40 0
- 0 4 3 tcp 40 ------- 0 4.0 0.0 0 0 -1 0xa 40 0
r 0.001003 4 3 tcp 40 ------- 0 4.0 0.0 0 0 -1 0xa 40 0
+ 0.009626 3 2 tcp 40 ------- 0 4.0 0.0 0 0 -1 0xa 40 0
- 0.009626 3 2 tcp 40 ------- 0 4.0 0.0 0 0 -1 0xa 40 0
r 0.010629 3 2 tcp 40 ------- 0 4.0 0.0 0 0 -1 0xa 40 0
+ 0.047803 4 3 tcp 40 ------- 1 4.1 0.1 0 1 -1 0xa 40 0
- 0.047803 4 3 tcp 40 ------- 1 4.1 0.1 0 1 -1 0xa 40 0
r 0.048806 4 3 tcp 40 ------- 1 4.1 0.1 0 1 -1 0xa 40 0
+ 0.059303 2 0 tcp 40 ------- 0 4.0 0.0 0 0 -1 0xa 40 0
- 0.059303 2 0 tcp 40 ------- 0 4.0 0.0 0 0 -1 0xa 40 0
r 0.060307 2 0 tcp 40 ------- 0 4.0 0.0 0 0 -1 0xa 40 0
+ 0.060307 0 2 ack 40 ------- 0 0.0 4.0 0 2 1 0x1a 40 0
- 0.060307 0 2 ack 40 ------- 0 0.0 4.0 0 2 1 0x1a 40 0
r 0.06131 0 2 ack 40 ------- 0 0.0 4.0 0 2 1 0x1a 40 0
+ 0.062449 3 2 tcp 40 ------- 1 4.1 0.1 0 1 -1 0xa 40 0
- 0.062449 3 2 tcp 40 ------- 1 4.1 0.1 0 1 -1 0xa 40 0
r 0.063453 3 2 tcp 40 ------- 1 4.1 0.1 0 1 -1 0xa 40 0
+ 0.082691 4 3 tcp 40 ------- 2 4.2 0.2 0 3 -1 0xa 40 0
- 0.082691 4 3 tcp 40 ------- 2 4.2 0.2 0 3 -1 0xa 40 0
r 0.083694 4 3 tcp 40 ------- 2 4.2 0.2 0 3 -1 0xa 40 0
+ 0.08861 4 3 tcp 40 ------- 3 4.3 0.3 0 4 -1 0xa 40 0
- 0.08861 4 3 tcp 40 ------- 3 4.3 0.3 0 4 -1 0xa 40 0
r 0.089613 4 3 tcp 40 ------- 3 4.3 0.3 0 4 -1 0xa 40 0
+ 0.093443 2 0 tcp 40 ------- 1 4.1 0.1 0 1 -1 0xa 40 0
- 0.093443 2 0 tcp 40 ------- 1 4.1 0.1 0 1 -1 0xa 40 0
r 0.094446 2 0 tcp 40 ------- 1 4.1 0.1 0 1 -1 0xa 40 0
+ 0.094446 0 2 ack 40 ------- 1 0.1 4.1 0 5 1 0x1a 40 0
- 0.094446 0 2 ack 40 ------- 1 0.1 4.1 0 5 1 0x1a 40 0
r 0.095449 0 2 ack 40 ------- 1 0.1 4.1 0 5 1 0x1a 40 0
+ 0.098028 3 2 tcp 40 ------- 2 4.2 0.2 0 3 -1 0xa 40 0
- 0.098028 3 2 tcp 40 ------- 2 4.2 0.2 0 3 -1 0xa 40 0
r 0.099032 3 2 tcp 40 ------- 2 4.2 0.2 0 3 -1 0xa 40 0
+ 0.100214 3 2 tcp 40 ------- 3 4.3 0.3 0 4 -1 0xa 40 0
- 0.100214 3 2 tcp 40 ------- 3 4.3 0.3 0 4 -1 0xa 40 0
r 0.101217 3 2 tcp 40 ------- 3 4.3 0.3 0 4 -1 0xa 40 0
+ 0.109984 2 3 ack 40 ------- 0 0.0 4.0 0 2 1 0x1a 40 0
- 0.109984 2 3 ack 40 ------- 0 0.0 4.0 0 2 1 0x1a 40 0
r 0.110987 2 3 ack 40 ------- 0 0.0 4.0 0 2 1 0x1a 40 0
+ 0.111211 4 3 tcp 40 ------- 4 4.4 0.4 0 6 -1 0xa 40 0
- 0.111211 4 3 tcp 40 ------- 4 4.4 0.4 0 6 -1 0xa 40 0
+ 0.111323 4 3 tcp 40 ------- 5 4.5 0.5 0 7 -1 0xa 40 0
- 0.111323 4 3 tcp 40 ------- 5 4.5 0.5 0 7 -1 0xa 40 0
r 0.112214 4 3 tcp 40 ------- 4 4.4 0.4 0 6 -1 0xa 40 0
r 0.112326 4 3 tcp 40 ------- 5 4.5 0.5 0 7 -1 0xa 40 0
+ 0.11961 3 4 ack 40 ------- 0 0.0 4.0 0 2 1 0x1a 40 0
- 0.11961 3 4 ack 40 ------- 0 0.0 4.0 0 2 1 0x1a 40 0
r 0.120613 3 4 ack 40 ------- 0 0.0 4.0 0 2 1 0x1a 40 0
+ 0.120613 4 3 tcp 40 ------- 0 4.0 0.0 1 8 1 0x10 40 0
- 0.120613 4 3 tcp 40 ------- 0 4.0 0.0 1 8 1 0x10 40 0
+ 0.120613 4 3 tcp 576 ------- 0 4.0 0.0 1 9 1 0x10 40 0
- 0.120616 4 3 tcp 576 ------- 0 4.0 0.0 1 9 1 0x10 40 0
r 0.121616 4 3 tcp 40 ------- 0 4.0 0.0 1 8 1 0x10 40 0
r 0.121663 4 3 tcp 576 ------- 0 4.0 0.0 1 9 1 0x10 40 0
+ 0.125439 2 3 ack 40 ------- 1 0.1 4.1 0 5 1 0x1a 40 0
- 0.125439 2 3 ack 40 ------- 1 0.1 4.1 0 5 1 0x1a 40 0
r 0.126442 2 3 ack 40 ------- 1 0.1 4.1 0 5 1 0x1a 40 0
+ 0.127143 3 2 tcp 40 ------- 5 4.5 0.5 0 7 -1 0xa 40 0
- 0.127143 3 2 tcp 40 ------- 5 4.5 0.5 0 7 -1 0xa 40 0
r 0.128146 3 2 tcp 40 ------- 5 4.5 0.5 0 7 -1 0xa 40 0
+ 0.128812 3 2 tcp 40 ------- 4 4.4 0.4 0 6 -1 0xa 40 0
- 0.128812 3 2 tcp 40 ------- 4 4.4 0.4 0 6 -1 0xa 40 0
+ 0.129251 4 3 tcp 40 ------- 6 4.6 0.6 0 10 -1 0xa 40 0
- 0.129251 4 3 tcp 40 ------- 6 4.6 0.6 0 10 -1 0xa 40 0
r 0.129815 3 2 tcp 40 ------- 4 4.4 0.4 0 6 -1 0xa 40 0
+ 0.130239 3 2 tcp 40 ------- 0 4.0 0.0 1 8 1 0x10 40 0
- 0.130239 3 2 tcp 40 ------- 0 4.0 0.0 1 8 1 0x10 40 0
r 0.130254 4 3 tcp 40 ------- 6 4.6 0.6 0 10 -1 0xa 40 0
+ 0.130285 3 2 tcp 576 ------- 0 4.0 0.0 1 9 1 0x10 40 0
- 0.130285 3 2 tcp 576 ------- 0 4.0 0.0 1 9 1 0x10 40 0
r 0.131243 3 2 tcp 40 ------- 0 4.0 0.0 1 8 1 0x10 40 0
r 0.131332 3 2 tcp 576 ------- 0 4.0 0.0 1 9 1 0x10 40 0
+ 0.131814 2 0 tcp 40 ------- 2 4.2 0.2 0 3 -1 0xa 40 0
- 0.131814 2 0 tcp 40 ------- 2 4.2 0.2 0 3 -1 0xa 40 0
r 0.132817 2 0 tcp 40 ------- 2 4.2 0.2 0 3 -1 0xa 40 0
+ 0.132817 0 2 ack 40 ------- 2 0.2 4.2 0 11 1 0x1a 40 0
- 0.132817 0 2 ack 40 ------- 2 0.2 4.2 0 11 1 0x1a 40 0
r 0.13382 0 2 ack 40 ------- 2 0.2 4.2 0 11 1 0x1a 40 0
+ 0.139438 2 0 tcp 40 ------- 3 4.3 0.3 0 4 -1 0xa 40 0
- 0.139438 2 0 tcp 40 ------- 3 4.3 0.3 0 4 -1 0xa 40 0
+ 0.140086 3 4 ack 40 ------- 1 0.1 4.1 0 5 1 0x1a 40 0
- 0.140086 3 4 ack 40 ------- 1 0.1 4.1 0 5 1 0x1a 40 0
r 0.140441 2 0 tcp 40 ------- 3 4.3 0.3 0 4 -1 0xa 40 0
+ 0.140441 0 2 ack 40 ------- 3 0.3 4.3 0 12 1 0x1a 40 0
- 0.140441 0 2 ack 40 ------- 3 0.3 4.3 0 12 1 0x1a 40 0
r 0.141089 3 4 ack 40 ------- 1 0.1 4.1 0 5 1 0x1a 40 0
+ 0.141089 4 3 tcp 40 ------- 1 4.1 0.1 1 13 1 0x10 40 0
- 0.141089 4 3 tcp 40 ------- 1 4.1 0.1 1 13 1 0x10 40 0
+ 0.141089 4 3 tcp 314 ------- 1 4.1 0.1 1 14 1 0x18 40 0
- 0.141092 4 3 tcp 314 ------- 1 4.1 0.1 1 14 1 0x18 40 0
r 0.141444 0 2 ack 40 ------- 3 0.3 4.3 0 12 1 0x1a 40 0
r 0.142092 4 3 tcp 40 ------- 1 4.1 0.1 1 13 1 0x10 40 0
r 0.142118 4 3 tcp 314 ------- 1 4.1 0.1 1 14 1 0x18 40 0
+ 0.145131 3 2 tcp 40 ------- 6 4.6 0.6 0 10 -1 0xa 40 0
- 0.145131 3 2 tcp 40 ------- 6 4.6 0.6 0 10 -1 0xa 40 0
r 0.146134 3 2 tcp 40 ------- 6 4.6 0.6 0 10 -1 0xa 40 0
+ 0.151365 2 0 tcp 40 ------- 5 4.5 0.5 0 7 -1 0xa 40 0
- 0.151365 2 0 tcp 40 ------- 5 4.5 0.5 0 7 -1 0xa 40 0
r 0.152368 2 0 tcp 40 ------- 5 4.5 0.5 0 7 -1 0xa 40 0
+ 0.152368 0 2 ack 40 ------- 5 0.5 4.5 0 15 1 0x1a 40 0
- 0.152368 0 2 ack 40 ------- 5 0.5 4.5 0 15 1 0x1a 40 0
r 0.153371 0 2 ack 40 ------- 5 0.5 4.5 0 15 1 0x1a 40 0
+ 0.155736 3 2 tcp 40 ------- 1 4.1 0.1 1 13 1 0x10 40 0
- 0.155736 3 2 tcp 40 ------- 1 4.1 0.1 1 13 1 0x10 40 0
+ 0.155761 3 2 tcp 314 ------- 1 4.1 0.1 1 14 1 0x18 40 0
- 0.155761 3 2 tcp 314 ------- 1 4.1 0.1 1 14 1 0x18 40 0
r 0.156739 3 2 tcp 40 ------- 1 4.1 0.1 1 13 1 0x10 40 0
r 0.156786 3 2 tcp 314 ------- 1 4.1 0.1 1 14 1 0x18 40 0
+ 0.166602 2 3 ack 40 ------- 2 0.2 4.2 0 11 1 0x1a 40 0
- 0.166602 2 3 ack 40 ------- 2 0.2 4.2 0 11 1 0x1a 40 0
r 0.167605 2 3 ack 40 ------- 2 0.2 4.2 0 11 1 0x1a 40 0
+ 0.17659 2 3 ack 40 ------- 5 0.5 4.5 0 15 1 0x1a 40 0
- 0.17659 2 3 ack 40 ------- 5 0.5 4.5 0 15 1 0x1a 40 0
+ 0.177251 2 0 tcp 40 ------- 4 4.4 0.4 0 6 -1 0xa 40 0
- 0.177251 2 0 tcp 40 ------- 4 4.4 0.4 0 6 -1 0xa 40 0
r 0.177593 2 3 ack 40 ------- 5 0.5 4.5 0 15 1 0x1a 40 0
r 0.178254 2 0 tcp 40 ------- 4 4.4 0.4 0 6 -1 0xa 40 0
+ 0.178254 0 2 ack 40 ------- 4 0.4 4.4 0 16 1 0x1a 40 0
- 0.178254 0 2 ack 40 ------- 4 0.4 4.4 0 16 1 0x1a 40 0
r 0.179257 0 2 ack 40 ------- 4 0.4 4.4 0 16 1 0x1a 40 0
+ 0.179665 2 3 ack 40 ------- 3 0.3 4.3 0 12 1 0x1a 40 0
- 0.179665 2 3 ack 40 ------- 3 0.3 4.3 0 12 1 0x1a 40 0
+ 0.179917 2 0 tcp 40 ------- 0 4.0 0.0 1 8 1 0x10 40 0
- 0.179917 2 0 tcp 40 ------- 0 4.0 0.0 1 8 1 0x10 40 0
+ 0.180006 2 0 tcp 576 ------- 0 4.0 0.0 1 9 1 0x10 40 0
- 0.180006 2 0 tcp 576 ------- 0 4.0 0.0 1 9 1 0x10 40 0
r 0.180668 2 3 ack 40 ------- 3 0.3 4.3 0 12 1 0x1a 40 0
r 0.18092 2 0 tcp 40 ------- 0 4.0 0.0 1 8 1 0x10 40 0
r 0.181052 2 0 tcp 576 ------- 0 4.0 0.0 1 9 1 0x10 40 0
+ 0.181052 0 2 ack 40 ------- 0 0.0 4.0 1 17 537 0x18 40 0
- 0.181052 0 2 ack 40 ------- 0 0.0 4.0 1 17 537 0x18 40 0
+ 0.18194 3 4 ack 40 ------- 2 0.2 4.2 0 11 1 0x1a 40 0
- 0.18194 3 4 ack 40 ------- 2 0.2 4.2 0 11 1 0x1a 40 0
r 0.182055 0 2 ack 40 ------- 0 0.0 4.0 1 17 537 0x18 40 0
r 0.182943 3 4 ack 40 ------- 2 0.2 4.2 0 11 1 0x1a 40 0
+ 0.182943 4 3 tcp 40 ------- 2 4.2 0.2 1 18 1 0x10 40 0
- 0.182943 4 3 tcp 40 ------- 2 4.2 0.2 1 18 1 0x10 40 0
+ 0.182943 4 3 tcp 576 ------- 2 4.2 0.2 1 19 1 0x10 40 0
- 0.182946 4 3 tcp 576 ------- 2 4.2 0.2 1 19 1 0x10 40 0
r 0.183946 4 3 tcp 40 ------- 2 4.2 0.2 1 18 1 0x10 40 0
r 0.183993 4 3 tcp 576 ------- 2 4.2 0.2 1 19 1 0x10 40 0
+ 0.186729 2 0 tcp 40 ------- 1 4.1 0.1 1 13 1 0x10 40 0
- 0.186729 2 0 tcp 40 ------- 1 4.1 0.1 1 13 1 0x10 40 0
+ 0.186776 2 0 tcp 314 ------- 1 4.1 0.1 1 14 1 0x18 40 0
- 0.186776 2 0 tcp 314 ------- 1 4.1 0.1 1 14 1 0x18 40 0
r 0.187733 2 0 tcp 40 ------- 1 4.1 0.1 1 13 1 0x10 40 0
r 0.187801 2 0 tcp 314 ------- 1 4.1 0.1 1 14 1 0x18 40 0
+ 0.189845 2 0 tcp 40 ------- 6 4.6 0.6 0 10 -1 0xa 40 0
- 0.189845 2 0 tcp 40 ------- 6 4.6 0.6 0 10 -1 0xa 40 0
r 0.190848 2 0 tcp 40 ------- 6 4.6 0.6 0 10 -1 0xa 40 0
+ 0.190848 0 2 ack 40 ------- 6 0.6 4.6 0 20 1 0x1a 40 0
- 0.190848 0 2 ack 40 ------- 6 0.6 4.6 0 20 1 0x1a 40 0
+ 0.191269 3 4 ack 40 ------- 3 0.3 4.3 0 12 1 0x1a 40 0
- 0.191269 3 4 ack 40 ------- 3 0.3 4.3 0 12 1 0x1a 40 0
r 0.191851 0 2 ack 40 ------- 6 0.6 4.6 0 20 1 0x1a 40 0
r 0.192272 3 4 ack 40 ------- 3 0.3 4.3 0 12 1 0x1a 40 0
+ 0.192272 4 3 tcp 40 ------- 3 4.3 0.3 1 21 1 0x10 40 0
- 0.192272 4 3 tcp 40 ------- 3 4.3 0.3 1 21 1 0x10 40 0
+ 0.192272 4 3 tcp 576 ------- 3 4.3 0.3 1 22 1 0x10 40 0
- 0.192275 4 3 tcp 576 ------- 3 4.3 0.3 1 22 1 0x10 40 0
+ 0.192411 3 4 ack 40 ------- 5 0.5 4.5 0 15 1 0x1a 40 0
- 0.192411 3 4 ack 40 ------- 5 0.5 4.5 0 15 1 0x1a 40 0
r 0.193275 4 3 tcp 40 ------- 3 4.3 0.3 1 21 1 0x10 40 0
r 0.193321 4 3 tcp 576 ------- 3 4.3 0.3 1 22 1 0x10 40 0
r 0.193414 3 4 ack 40 ------- 5 0.5 4.5 0 15 1 0x1a 40 0
+ 0.193414 4 3 tcp 40 ------- 5 4.5 0.5 1 23 1 0x10 40 0
- 0.193414 4 3 tcp 40 ------- 5 4.5 0.5 1 23 1 0x10 40 0
+ 0.193414 4 3 tcp 478 ------- 5 4.5 0.5 1 24 1 0x18 40 0
- 0.193417 4 3 tcp 478 ------- 5 4.5 0.5 1 24 1 0x18 40 0
r 0.194417 4 3 tcp 40 ------- 5 4.5 0.5 1 23 1 0x10 40 0
r 0.194455 4 3 tcp 478 ------- 5 4.5 0.5 1 24 1 0x18 40 0
+ 0.198281 3 2 tcp 40 ------- 2 4.2 0.2 1 18 1 0x10 40 0
- 0.198281 3 2 tcp 40 ------- 2 4.2 0.2 1 18 1 0x10 40 0
+ 0.198327 3 2 tcp 576 ------- 2 4.2 0.2 1 19 1 0x10 40 0
- 0.198327 3 2 tcp 576 ------- 2 4.2 0.2 1 19 1 0x10 40 0
r 0.199284 3 2 tcp 40 ------- 2 4.2 0.2 1 18 1 0x10 40 0
r 0.199373 3 2 tcp 576 ------- 2 4.2 0.2 1 19 1 0x10 40 0
+ 0.2 0 2 ack 40 ------- 1 0.1 4.1 1 25 275 0x18 40 0
- 0.2 0 2 ack 40 ------- 1 0.1 4.1 1 25 275 0x18 40 0
+ 0.200001 4 3 tcp 40 ------- 7 4.7 0.7 0 26 -1 0xa 40 0
- 0.200001 4 3 tcp 40 ------- 7 4.7 0.7 0 26 -1 0xa 40 0
r 0.201003 0 2 ack 40 ------- 1 0.1 4.1 1 25 275 0x18 40 0
r 0.201004 4 3 tcp 40 ------- 7 4.7 0.7 0 26 -1 0xa 40 0
+ 0.203876 3 2 tcp 40 ------- 3 4.3 0.3 1 21 1 0x10 40 0
- 0.203876 3 2 tcp 40 ------- 3 4.3 0.3 1 21 1 0x10 40 0
+ 0.203922 3 2 tcp 576 ------- 3 4.3 0.3 1 22 1 0x10 40 0
- 0.203922 3 2 tcp 576 ------- 3 4.3 0.3 1 22 1 0x10 40 0
r 0.204879 3 2 tcp 40 ------- 3 4.3 0.3 1 21 1 0x10 40 0
r 0.204968 3 2 tcp 576 ------- 3 4.3 0.3 1 22 1 0x10 40 0
+ 0.205833 3 2 tcp 40 ------- 7 4.7 0.7 0 26 -1 0xa 40 0
- 0.205833 3 2 tcp 40 ------- 7 4.7 0.7 0 26 -1 0xa 40 0
r 0.206836 3 2 tcp 40 ------- 7 4.7 0.7 0 26 -1 0xa 40 0
+ 0.209234 3 2 tcp 40 ------- 5 4.5 0.5 1 23 1 0x10 40 0
- 0.209234 3 2 tcp 40 ------- 5 4.5 0.5 1 23 1 0x10 40 0
+ 0.209273 3 2 tcp 478 ------- 5 4.5 0.5 1 24 1 0x18 40 0
- 0.209273 3 2 tcp 478 ------- 5 4.5 0.5 1 24 1 0x18 40 0
r 0.210238 3 2 tcp 40 ------- 5 4.5 0.5 1 23 1 0x10 40 0
r 0.210311 3 2 tcp 478 ------- 5 4.5 0.5 1 24 1 0x18 40 0
+ 0.226693 2 3 ack 40 ------- 4 0.4 4.4 0 16 1 0x1a 40 0
- 0.226693 2 3 ack 40 ------- 4 0.4 4.4 0 16 1 0x1a 40 0
r 0.227697 2 3 ack 40 ------- 4 0.4 4.4 0 16 1 0x1a 40 0
+ 0.230729 2 3 ack 40 ------- 0 0.0 4.0 1 17 537 0x18 40 0
- 0.230729 2 3 ack 40 ------- 0 0.0 4.0 1 17 537 0x18 40 0
+ 0.230993 2 3 ack 40 ------- 1 0.1 4.1 1 25 275 0x18 40 0
- 0.230993 2 3 ack 40 ------- 1 0.1 4.1 1 25 275 0x18 40 0
r 0.231732 2 3 ack 40 ------- 0 0.0 4.0 1 17 537 0x18 40 0
r 0.231997 2 3 ack 40 ------- 1 0.1 4.1 1 25 275 0x18 40 0
+ 0.232066 2 0 tcp 40 ------- 2 4.2 0.2 1 18 1 0x10 40 0
- 0.232066 2 0 tcp 40 ------- 2 4.2 0.2 1 18 1 0x10 40 0
+ 0.232155 2 0 tcp 576 ------- 2 4.2 0.2 1 19 1 0x10 40 0
- 0.232155 2 0 tcp 576 ------- 2 4.2 0.2 1 19 1 0x10 40 0
r 0.23307 2 0 tcp 40 ------- 2 4.2 0.2 1 18 1 0x10 40 0
r 0.233201 2 0 tcp 576 ------- 2 4.2 0.2 1 19 1 0x10 40 0
+ 0.233201 0 2 ack 40 ------- 2 0.2 4.2 1 27 537 0x18 40 0
- 0.233201 0 2 ack 40 ------- 2 0.2 4.2 1 27 537 0x18 40 0
+ 0.233456 2 0 tcp 40 ------- 5 4.5 0.5 1 23 1 0x10 40 0
- 0.233456 2 0 tcp 40 ------- 5 4.5 0.5 1 23 1 0x10 40 0
+ 0.23353 2 0 tcp 478 ------- 5 4.5 0.5 1 24 1 0x18 40 0
- 0.23353 2 0 tcp 478 ------- 5 4.5 0.5 1 24 1 0x18 40 0
+ 0.233692 2 0 tcp 40 ------- 7 4.7 0.7 0 26 -1 0xa 40 0
- 0.233692 2 0 tcp 40 ------- 7 4.7 0.7 0 26 -1 0xa 40 0
r 0.234205 0 2 ack 40 ------- 2 0.2 4.2 1 27 537 0x18 40 0
r 0.234459 2 0 tcp 40 ------- 5 4.5 0.5 1 23 1 0x10 40 0
r 0.234568 2 0 tcp 478 ------- 5 4.5 0.5 1 24 1 0x18 40 0
r 0.234695 2 0 tcp 40 ------- 7 4.7 0.7 0 26 -1 0xa 40 0
+ 0.234695 0 2 ack 40 ------- 7 0.7 4.7 0 28 1 0x1a 40 0
- 0.234695 0 2 ack 40 ------- 7 0.7 4.7 0 28 1 0x1a 40 0
+ 0.235468 0 2 ack 439 ------- 5 0.5 4.5 1 29 439 0x19 40 0
- 0.235468 0 2 ack 439 ------- 5 0.5 4.5 1 29 439 0x19 40 0
+ 0.235562 2 3 ack 40 ------- 6 0.6 4.6 0 20 1 0x1a 40 0
- 0.235562 2 3 ack 40 ------- 6 0.6 4.6 0 20 1 0x1a 40 0
r 0.235698 0 2 ack 40 ------- 7 0.7 4.7 0 28 1 0x1a 40 0
r 0.236503 0 2 ack 439 ------- 5 0.5 4.5 1 29 439 0x19 40 0
r 0.236565 2 3 ack 40 ------- 6 0.6 4.6 0 20 1 0x1a 40 0
+ 0.240355 3 4 ack 40 ------- 0 0.0 4.0 1 17 537 0x18 40 0
- 0.240355 3 4 ack 40 ------- 0 0.0 4.0 1 17 537 0x18 40 0
r 0.241358 3 4 ack 40 ------- 0 0.0 4.0 1 17 537 0x18 40 0
+ 0.241358 4 3 tcp 575 ------- 0 4.0 0.0 537 30 1 0x18 40 0
- 0.241358 4 3 tcp 575 ------- 0 4.0 0.0 537 30 1 0x18 40 0
r 0.242404 4 3 tcp 575 ------- 0 4.0 0.0 537 30 1 0x18 40 0
+ 0.2431 2 0 tcp 40 ------- 3 4.3 0.3 1 21 1 0x10 40 0
- 0.2431 2 0 tcp 40 ------- 3 4.3 0.3 1 21 1 0x10 40 0
+ 0.243189 2 0 tcp 576 ------- 3 4.3 0.3 1 22 1 0x10 40 0
- 0.243189 2 0 tcp 576 ------- 3 4.3 0.3 1 22 1 0x10 40 0
r 0.244103 2 0 tcp 40 ------- 3 4.3 0.3 1 21 1 0x10 40 0
r 0.244235 2 0 tcp 576 ------- 3 4.3 0.3 1 22 1 0x10 40 0
+ 0.244235 0 2 ack 40 ------- 3 0.3 4.3 1 31 537 0x18 40 0
- 0.244235 0 2 ack 40 ------- 3 0.3 4.3 1 31 537 0x18 40 0
+ 0.244294 3 4 ack 40 ------- 4 0.4 4.4 0 16 1 0x1a 40 0
- 0.244294 3 4 ack 40 ------- 4 0.4 4.4 0 16 1 0x1a 40 0
r 0.245238 0 2 ack 40 ------- 3 0.3 4.3 1 31 537 0x18 40 0
r 0.245298 3 4 ack 40 ------- 4 0.4 4.4 0 16 1 0x1a 40 0
+ 0.245298 4 3 tcp 40 ------- 4 4.4 0.4 1 32 1 0x10 40 0
- 0.245298 4 3 tcp 40 ------- 4 4.4 0.4 1 32 1 0x10 40 0
+ 0.245298 4 3 tcp 576 ------- 4 4.4 0.4 1 33 1 0x10 40 0
- 0.245301 4 3 tcp 576 ------- 4 4.4 0.4 1 33 1 0x10 40 0
+ 0.24564 3 4 ack 40 ------- 1 0.1 4.1 1 25 275 0x18 40 0
- 0.24564 3 4 ack 40 ------- 1 0.1 4.1 1 25 275 0x18 40 0
r 0.246301 4 3 tcp 40 ------- 4 4.4 0.4 1 32 1 0x10 40 0
r 0.246347 4 3 tcp 576 ------- 4 4.4 0.4 1 33 1 0x10 40 0
r 0.246643 3 4 ack 40 ------- 1 0.1 4.1 1 25 275 0x18 40 0
+ 0.247353 0 2 ack 576 ------- 1 0.1 4.1 1 34 275 0x10 40 0
- 0.247353 0 2 ack 576 ------- 1 0.1 4.1 1 34 275 0x10 40 0
+ 0.247353 0 2 ack 576 ------- 1 0.1 4.1 537 35 275 0x10 40 0
- 0.247399 0 2 ack 576 ------- 1 0.1 4.1 537 35 275 0x10 40 0
r 0.248399 0 2 ack 576 ------- 1 0.1 4.1 1 34 275 0x10 40 0
r 0.248445 0 2 ack 576 ------- 1 0.1 4.1 537 35 275 0x10 40 0
+ 0.251027 3 2 tcp 575 ------- 0 4.0 0.0 537 30 1 0x18 40 0
- 0.251027 3 2 tcp 575 ------- 0 4.0 0.0 537 30 1 0x18 40 0
+ 0.251442 3 4 ack 40 ------- 6 0.6 4.6 0 20 1 0x1a 40 0
- 0.251442 3 4 ack 40 ------- 6 0.6 4.6 0 20 1 0x1a 40 0
r 0.252073 3 2 tcp 575 ------- 0 4.0 0.0 537 30 1 0x18 40 0
r 0.252445 3 4 ack 40 ------- 6 0.6 4.6 0 20 1 0x1a 40 0
+ 0.252445 4 3 tcp 40 ------- 6 4.6 0.6 1 36 1 0x10 40 0
- 0.252445 4 3 tcp 40 ------- 6 4.6 0.6 1 36 1 0x10 40 0
+ 0.252445 4 3 tcp 415 ------- 6 4.6 0.6 1 37 1 0x18 40 0
- 0.252448 4 3 tcp 415 ------- 6 4.6 0.6 1 37 1 0x18 40 0
r 0.253448 4 3 tcp 40 ------- 6 4.6 0.6 1 36 1 0x10 40 0
r 0.253481 4 3 tcp 415 ------- 6 4.6 0.6 1 37 1 0x18 40 0
+ 0.259722 2 3 ack 439 ------- 5 0.5 4.5 1 29 439 0x19 40 0
- 0.259722 2 3 ack 439 ------- 5 0.5 4.5 1 29 439 0x19 40 0
r 0.260757 2 3 ack 439 ------- 5 0.5 4.5 1 29 439 0x19 40 0
+ 0.262554 2 3 ack 40 ------- 7 0.7 4.7 0 28 1 0x1a 40 0
- 0.262554 2 3 ack 40 ------- 7 0.7 4.7 0 28 1 0x1a 40 0
+ 0.262899 3 2 tcp 40 ------- 4 4.4 0.4 1 32 1 0x10 40 0
- 0.262899 3 2 tcp 40 ------- 4 4.4 0.4 1 32 1 0x10 40 0
+ 0.262945 3 2 tcp 576 ------- 4 4.4 0.4 1 33 1 0x10 40 0
- 0.262945 3 2 tcp 576 ------- 4 4.4 0.4 1 33 1 0x10 40 0
r 0.263558 2 3 ack 40 ------- 7 0.7 4.7 0 28 1 0x1a 40 0
r 0.263902 3 2 tcp 40 ------- 4 4.4 0.4 1 32 1 0x10 40 0
r 0.263991 3 2 tcp 576 ------- 4 4.4 0.4 1 33 1 0x10 40 0
+ 0.266987 2 3 ack 40 ------- 2 0.2 4.2 1 27 537 0x18 40 0
- 0.266987 2 3 ack 40 ------- 2 0.2 4.2 1 27 537 0x18 40 0
r 0.26799 2 3 ack 40 ------- 2 0.2 4.2 1 27 537 0x18 40 0
+ 0.268325 3 2 tcp 40 ------- 6 4.6 0.6 1 36 1 0x10 40 0
- 0.268325 3 2 tcp 40 ------- 6 4.6 0.6 1 36 1 0x10 40 0
+ 0.268358 3 2 tcp 415 ------- 6 4.6 0.6 1 37 1 0x18 40 0
- 0.268358 3 2 tcp 415 ------- 6 4.6 0.6 1 37 1 0x18 40 0
+ 0.268386 3 4 ack 40 ------- 7 0.7 4.7 0 28 1 0x1a 40 0
- 0.268386 3 4 ack 40 ------- 7 0.7 4.7 0 28 1 0x1a 40 0
r 0.269328 3 2 tcp 40 ------- 6 4.6 0.6 1 36 1 0x10 40 0
r 0.269389 3 4 ack 40 ------- 7 0.7 4.7 0 28 1 0x1a 40 0
+ 0.269389 4 3 tcp 40 ------- 7 4.7 0.7 1 38 1 0x10 40 0
- 0.269389 4 3 tcp 40 ------- 7 4.7 0.7 1 38 1 0x10 40 0
+ 0.269389 4 3 tcp 244 ------- 7 4.7 0.7 1 39 1 0x18 40 0
r 0.269391 3 2 tcp 415 ------- 6 4.6 0.6 1 37 1 0x18 40 0
- 0.269392 4 3 tcp 244 ------- 7 4.7 0.7 1 39 1 0x18 40 0
r 0.270392 4 3 tcp 40 ------- 7 4.7 0.7 1 38 1 0x10 40 0
r 0.270412 4 3 tcp 244 ------- 7 4.7 0.7 1 39 1 0x18 40 0
+ 0.275221 3 2 tcp 40 ------- 7 4.7 0.7 1 38 1 0x10 40 0
- 0.275221 3 2 tcp 40 ------- 7 4.7 0.7 1 38 1 0x10 40 0
+ 0.27524 3 2 tcp 244 ------- 7 4.7 0.7 1 39 1 0x18 40 0
- 0.27524 3 2 tcp 244 ------- 7 4.7 0.7 1 39 1 0x18 40 0
+ 0.275575 3 4 ack 439 ------- 5 0.5 4.5 1 29 439 0x19 40 0
- 0.275575 3 4 ack 439 ------- 5 0.5 4.5 1 29 439 0x19 40 0
r 0.276224 3 2 tcp 40 ------- 7 4.7 0.7 1 38 1 0x10 40 0
r 0.27626 3 2 tcp 244 ------- 7 4.7 0.7 1 39 1 0x18 40 0
r 0.27661 3 4 ack 439 ------- 5 0.5 4.5 1 29 439 0x19 40 0
+ 0.27661 4 3 tcp 40 ------- 5 4.5 0.5 439 40 401 0x18 40 0
- 0.27661 4 3 tcp 40 ------- 5 4.5 0.5 439 40 401 0x18 40 0
+ 0.27661 4 3 tcp 40 ------- 5 4.5 0.5 439 41 401 0x19 40 0
- 0.276613 4 3 tcp 40 ------- 5 4.5 0.5 439 41 401 0x19 40 0
r 0.277613 4 3 tcp 40 ------- 5 4.5 0.5 439 40 401 0x18 40 0
r 0.277616 4 3 tcp 40 ------- 5 4.5 0.5 439 41 401 0x19 40 0
+ 0.278389 2 3 ack 576 ------- 1 0.1 4.1 1 34 275 0x10 40 0
- 0.278389 2 3 ack 576 ------- 1 0.1 4.1 1 34 275 0x10 40 0
+ 0.278638 2 3 ack 576 ------- 1 0.1 4.1 537 35 275 0x10 40 0
- 0.278638 2 3 ack 576 ------- 1 0.1 4.1 537 35 275 0x10 40 0
r 0.279435 2 3 ack 576 ------- 1 0.1 4.1 1 34 275 0x10 40 0
r 0.279684 2 3 ack 576 ------- 1 0.1 4.1 537 35 275 0x10 40 0
+ 0.282325 3 4 ack 40 ------- 2 0.2 4.2 1 27 537 0x18 40 0
- 0.282325 3 4 ack 40 ------- 2 0.2 4.2 1 27 537 0x18 40 0
r 0.283328 3 4 ack 40 ------- 2 0.2 4.2 1 27 537 0x18 40 0
+ 0.283328 4 3 tcp 181 ------- 2 4.2 0.2 537 42 1 0x18 40 0
- 0.283328 4 3 tcp 181 ------- 2 4.2 0.2 537 42 1 0x18 40 0
+ 0.283459 2 3 ack 40 ------- 3 0.3 4.3 1 31 537 0x18 40 0
- 0.283459 2 3 ack 40 ------- 3 0.3 4.3 1 31 537 0x18 40 0
r 0.284342 4 3 tcp 181 ------- 2 4.2 0.2 537 42 1 0x18 40 0
r 0.284462 2 3 ack 40 ------- 3 0.3 4.3 1 31 537 0x18 40 0
+ 0.29243 3 2 tcp 40 ------- 5 4.5 0.5 439 40 401 0x18 40 0
- 0.29243 3 2 tcp 40 ------- 5 4.5 0.5 439 40 401 0x18 40 0
+ 0.292433 3 2 tcp 40 ------- 5 4.5 0.5 439 41 401 0x19 40 0
- 0.292433 3 2 tcp 40 ------- 5 4.5 0.5 439 41 401 0x19 40 0
+ 0.293079 3 4 ack 576 ------- 1 0.1 4.1 1 34 275 0x10 40 0
- 0.293079 3 4 ack 576 ------- 1 0.1 4.1 1 34 275 0x10 40 0
+ 0.293328 3 4 ack 576 ------- 1 0.1 4.1 537 35 275 0x10 40 0
- 0.293328 3 4 ack 576 ------- 1 0.1 4.1 537 35 275 0x10 40 0
r 0.293433 3 2 tcp 40 ------- 5 4.5 0.5 439 40 401 0x18 40 0
r 0.293437 3 2 tcp 40 ------- 5 4.5 0.5 439 41 401 0x19 40 0
r 0.294125 3 4 ack 576 ------- 1 0.1 4.1 1 34 275 0x10 40 0
+ 0.294125 4 3 tcp 40 ------- 1 4.1 0.1 275 43 537 0x18 40 0
- 0.294125 4 3 tcp 40 ------- 1 4.1 0.1 275 43 537 0x18 40 0
r 0.294374 3 4 ack 576 ------- 1 0.1 4.1 537 35 275 0x10 40 0
+ 0.294374 4 3 tcp 40 ------- 1 4.1 0.1 275 44 1073 0x18 40 0
- 0.294374 4 3 tcp 40 ------- 1 4.1 0.1 275 44 1073 0x18 40 0
+ 0.295063 3 4 ack 40 ------- 3 0.3 4.3 1 31 537 0x18 40 0
- 0.295063 3 4 ack 40 ------- 3 0.3 4.3 1 31 537 0x18 40 0
r 0.295128 4 3 tcp 40 ------- 1 4.1 0.1 275 43 537 0x18 40 0
r 0.295377 4 3 tcp 40 ------- 1 4.1 0.1 275 44 1073 0x18 40 0
r 0.296066 3 4 ack 40 ------- 3 0.3 4.3 1 31 537 0x18 40 0
+ 0.296066 4 3 tcp 238 ------- 3 4.3 0.3 537 45 1 0x18 40 0
- 0.296066 4 3 tcp 238 ------- 3 4.3 0.3 537 45 1 0x18 40 0
r 0.297085 4 3 tcp 238 ------- 3 4.3 0.3 537 45 1 0x18 40 0
+ 0.298677 3 2 tcp 181 ------- 2 4.2 0.2 537 42 1 0x18 40 0
- 0.298677 3 2 tcp 181 ------- 2 4.2 0.2 537 42 1 0x18 40 0
r 0.299691 3 2 tcp 181 ------- 2 4.2 0.2 537 42 1 0x18 40 0
+ 0.300747 2 0 tcp 575 ------- 0 4.0 0.0 537 30 1 0x18 40 0
- 0.300747 2 0 tcp 575 ------- 0 4.0 0.0 537 30 1 0x18 40 0
r 0.301793 2 0 tcp 575 ------- 0 4.0 0.0 537 30 1 0x18 40 0
+ 0.30308 2 0 tcp 40 ------- 7 4.7 0.7 1 38 1 0x10 40 0
- 0.30308 2 0 tcp 40 ------- 7 4.7 0.7 1 38 1 0x10 40 0
+ 0.303116 2 0 tcp 244 ------- 7 4.7 0.7 1 39 1 0x18 40 0
- 0.303116 2 0 tcp 244 ------- 7 4.7 0.7 1 39 1 0x18 40 0
r 0.304083 2 0 tcp 40 ------- 7 4.7 0.7 1 38 1 0x10 40 0
r 0.304135 2 0 tcp 244 ------- 7 4.7 0.7 1 39 1 0x18 40 0
+ 0.307686 3 2 tcp 238 ------- 3 4.3 0.3 537 45 1 0x18 40 0
- 0.307686 3 2 tcp 238 ------- 3 4.3 0.3 537 45 1 0x18 40 0
r 0.308705 3 2 tcp 238 ------- 3 4.3 0.3 537 45 1 0x18 40 0
+ 0.308771 3 2 tcp 40 ------- 1 4.1 0.1 275 43 537 0x18 40 0
- 0.308771 3 2 tcp 40 ------- 1 4.1 0.1 275 43 537 0x18 40 0
+ 0.30902 3 2 tcp 40 ------- 1 4.1 0.1 275 44 1073 0x18 40 0
- 0.30902 3 2 tcp 40 ------- 1 4.1 0.1 275 44 1073 0x18 40 0
r 0.309775 3 2 tcp 40 ------- 1 4.1 0.1 275 43 537 0x18 40 0
r 0.310024 3 2 tcp 40 ------- 1 4.1 0.1 275 44 1073 0x18 40 0
+ 0.311338 2 0 tcp 40 ------- 4 4.4 0.4 1 32 1 0x10 40 0
- 0.311338 2 0 tcp 40 ------- 4 4.4 0.4 1 32 1 0x10 40 0
+ 0.311427 2 0 tcp 576 ------- 4 4.4 0.4 1 33 1 0x10 40 0
- 0.311427 2 0 tcp 576 ------- 4 4.4 0.4 1 33 1 0x10 40 0
r 0.312341 2 0 tcp 40 ------- 4 4.4 0.4 1 32 1 0x10 40 0
r 0.312473 2 0 tcp 576 ------- 4 4.4 0.4 1 33 1 0x10 40 0
+ 0.312473 0 2 ack 40 ------- 4 0.4 4.4 1 46 537 0x18 40 0
- 0.312473 0 2 ack 40 ------- 4 0.4 4.4 1 46 537 0x18 40 0
+ 0.313038 2 0 tcp 40 ------- 6 4.6 0.6 1 36 1 0x10 40 0
- 0.313038 2 0 tcp 40 ------- 6 4.6 0.6 1 36 1 0x10 40 0
+ 0.313102 2 0 tcp 415 ------- 6 4.6 0.6 1 37 1 0x18 40 0
- 0.313102 2 0 tcp 415 ------- 6 4.6 0.6 1 37 1 0x18 40 0
r 0.313476 0 2 ack 40 ------- 4 0.4 4.4 1 46 537 0x18 40 0
r 0.314042 2 0 tcp 40 ------- 6 4.6 0.6 1 36 1 0x10 40 0
r 0.314135 2 0 tcp 415 ------- 6 4.6 0.6 1 37 1 0x18 40 0
+ 0.316652 2 0 tcp 40 ------- 5 4.5 0.5 439 40 401 0x18 40 0
- 0.316652 2 0 tcp 40 ------- 5 4.5 0.5 439 40 401 0x18 40 0
+ 0.316668 2 0 tcp 40 ------- 5 4.5 0.5 439 41 401 0x19 40 0
- 0.316668 2 0 tcp 40 ------- 5 4.5 0.5 439 41 401 0x19 40 0
r 0.317655 2 0 tcp 40 ------- 5 4.5 0.5 439 40 401 0x18 40 0
r 0.317671 2 0 tcp 40 ------- 5 4.5 0.5 439 41 401 0x19 40 0
+ 0.317671 0 2 ack 40 ------- 5 0.5 4.5 401 47 440 0x18 40 0
- 0.317671 0 2 ack 40 ------- 5 0.5 4.5 401 47 440 0x18 40 0
+ 0.31798 0 2 ack 192 ------- 7 0.7 4.7 1 48 205 0x19 40 0
- 0.31798 0 2 ack 192 ------- 7 0.7 4.7 1 48 205 0x19 40 0
r 0.318674 0 2 ack 40 ------- 5 0.5 4.5 401 47 440 0x18 40 0
+ 0.318674 2 3 ack 40 ------- 5 0.5 4.5 401 47 440 0x18 40 0
- 0.318674 2 3 ack 40 ------- 5 0.5 4.5 401 47 440 0x18 40 0
r 0.318996 0 2 ack 192 ------- 7 0.7 4.7 1 48 205 0x19 40 0
+ 0.319528 0 2 ack 576 ------- 6 0.6 4.6 1 49 376 0x10 40 0
- 0.319528 0 2 ack 576 ------- 6 0.6 4.6 1 49 376 0x10 40 0
+ 0.319528 0 2 ack 576 ------- 6 0.6 4.6 537 50 376 0x10 40 0
- 0.319574 0 2 ack 576 ------- 6 0.6 4.6 537 50 376 0x10 40 0
r 0.319678 2 3 ack 40 ------- 5 0.5 4.5 401 47 440 0x18 40 0
+ 0.319678 3 4 ack 40 ------- 5 0.5 4.5 401 47 440 0x18 40 0
- 0.319678 3 4 ack 40 ------- 5 0.5 4.5 401 47 440 0x18 40 0
r 0.320574 0 2 ack 576 ------- 6 0.6 4.6 1 49 376 0x10 40 0
r 0.32062 0 2 ack 576 ------- 6 0.6 4.6 537 50 376 0x10 40 0
r 0.320681 3 4 ack 40 ------- 5 0.5 4.5 401 47 440 0x18 40 0
+ 0.332473 2 0 tcp 181 ------- 2 4.2 0.2 537 42 1 0x18 40 0
- 0.332473 2 0 tcp 181 ------- 2 4.2 0.2 537 42 1 0x18 40 0
r 0.333488 2 0 tcp 181 ------- 2 4.2 0.2 537 42 1 0x18 40 0
+ 0.337101 0 2 ack 179 ------- 2 0.2 4.2 1 51 678 0x19 40 0
- 0.337101 0 2 ack 179 ------- 2 0.2 4.2 1 51 678 0x19 40 0
r 0.338115 0 2 ack 179 ------- 2 0.2 4.2 1 51 678 0x19 40 0
+ 0.339765 2 0 tcp 40 ------- 1 4.1 0.1 275 43 537 0x18 40 0
- 0.339765 2 0 tcp 40 ------- 1 4.1 0.1 275 43 537 0x18 40 0
+ 0.340014 2 0 tcp 40 ------- 1 4.1 0.1 275 44 1073 0x18 40 0
- 0.340014 2 0 tcp 40 ------- 1 4.1 0.1 275 44 1073 0x18 40 0
r 0.340768 2 0 tcp 40 ------- 1 4.1 0.1 275 43 537 0x18 40 0
+ 0.340768 0 2 ack 576 ------- 1 0.1 4.1 1073 52 275 0x10 40 0
- 0.340768 0 2 ack 576 ------- 1 0.1 4.1 1073 52 275 0x10 40 0
+ 0.340768 0 2 ack 576 ------- 1 0.1 4.1 1609 53 275 0x10 40 0
- 0.340814 0 2 ack 576 ------- 1 0.1 4.1 1609 53 275 0x10 40 0
r 0.341017 2 0 tcp 40 ------- 1 4.1 0.1 275 44 1073 0x18 40 0
+ 0.341017 0 2 ack 576 ------- 1 0.1 4.1 2145 54 275 0x10 40 0
- 0.341017 0 2 ack 576 ------- 1 0.1 4.1 2145 54 275 0x10 40 0
+ 0.341017 0 2 ack 576 ------- 1 0.1 4.1 2681 55 275 0x10 40 0
- 0.341063 0 2 ack 576 ------- 1 0.1 4.1 2681 55 275 0x10 40 0
r 0.341814 0 2 ack 576 ------- 1 0.1 4.1 1073 52 275 0x10 40 0
r 0.34186 0 2 ack 576 ------- 1 0.1 4.1 1609 53 275 0x10 40 0
r 0.342063 0 2 ack 576 ------- 1 0.1 4.1 2145 54 275 0x10 40 0
r 0.342109 0 2 ack 576 ------- 1 0.1 4.1 2681 55 275 0x10 40 0
+ 0.345852 2 3 ack 192 ------- 7 0.7 4.7 1 48 205 0x19 40 0
- 0.345852 2 3 ack 192 ------- 7 0.7 4.7 1 48 205 0x19 40 0
r 0.346867 2 3 ack 192 ------- 7 0.7 4.7 1 48 205 0x19 40 0
+ 0.346926 2 0 tcp 238 ------- 3 4.3 0.3 537 45 1 0x18 40 0
- 0.346926 2 0 tcp 238 ------- 3 4.3 0.3 537 45 1 0x18 40 0
r 0.347945 2 0 tcp 238 ------- 3 4.3 0.3 537 45 1 0x18 40 0
+ 0.351696 3 4 ack 192 ------- 7 0.7 4.7 1 48 205 0x19 40 0
- 0.351696 3 4 ack 192 ------- 7 0.7 4.7 1 48 205 0x19 40 0
+ 0.352018 4 3 tcp 40 ------- 8 4.8 0.8 0 56 -1 0xa 40 0
- 0.352018 4 3 tcp 40 ------- 8 4.8 0.8 0 56 -1 0xa 40 0
r 0.352711 3 4 ack 192 ------- 7 0.7 4.7 1 48 205 0x19 40 0
+ 0.352711 4 3 tcp 40 ------- 7 4.7 0.7 205 57 154 0x18 40 0
- 0.352711 4 3 tcp 40 ------- 7 4.7 0.7 205 57 154 0x18 40 0
+ 0.352711 4 3 tcp 40 ------- 7 4.7 0.7 205 58 154 0x19 40 0
- 0.352714 4 3 tcp 40 ------- 7 4.7 0.7 205 58 154 0x19 40 0
r 0.353021 4 3 tcp 40 ------- 8 4.8 0.8 0 56 -1 0xa 40 0
r 0.353714 4 3 tcp 40 ------- 7 4.7 0.7 205 57 154 0x18 40 0
r 0.353717 4 3 tcp 40 ------- 7 4.7 0.7 205 58 154 0x19 40 0
+ 0.358543 3 2 tcp 40 ------- 7 4.7 0.7 205 57 154 0x18 40 0
- 0.358543 3 2 tcp 40 ------- 7 4.7 0.7 205 57 154 0x18 40 0
+ 0.358546 3 2 tcp 40 ------- 7 4.7 0.7 205 58 154 0x19 40 0
- 0.358546 3 2 tcp 40 ------- 7 4.7 0.7 205 58 154 0x19 40 0
r 0.359546 3 2 tcp 40 ------- 7 4.7 0.7 205 57 154 0x18 40 0
r 0.359549 3 2 tcp 40 ------- 7 4.7 0.7 205 58 154 0x19 40 0
+ 0.360912 2 3 ack 40 ------- 4 0.4 4.4 1 46 537 0x18 40 0
- 0.360912 2 3 ack 40 ------- 4 0.4 4.4 1 46 537 0x18 40 0
r 0.361915 2 3 ack 40 ------- 4 0.4 4.4 1 46 537 0x18 40 0
+ 0.364285 2 3 ack 576 ------- 6 0.6 4.6 1 49 376 0x10 40 0
- 0.364285 2 3 ack 576 ------- 6 0.6 4.6 1 49 376 0x10 40 0
+ 0.364777 2 3 ack 576 ------- 6 0.6 4.6 537 50 376 0x10 40 0
- 0.364777 2 3 ack 576 ------- 6 0.6 4.6 537 50 376 0x10 40 0
r 0.365331 2 3 ack 576 ------- 6 0.6 4.6 1 49 376 0x10 40 0
+ 0.365393 3 2 tcp 40 ------- 8 4.8 0.8 0 56 -1 0xa 40 0
- 0.365393 3 2 tcp 40 ------- 8 4.8 0.8 0 56 -1 0xa 40 0
r 0.365823 2 3 ack 576 ------- 6 0.6 4.6 537 50 376 0x10 40 0
r 0.366396 3 2 tcp 40 ------- 8 4.8 0.8 0 56 -1 0xa 40 0
+ 0.370897 2 3 ack 179 ------- 2 0.2 4.2 1 51 678 0x19 40 0
- 0.370897 2 3 ack 179 ------- 2 0.2 4.2 1 51 678 0x19 40 0
+ 0.371804 2 3 ack 576 ------- 1 0.1 4.1 1073 52 275 0x10 40 0
- 0.371804 2 3 ack 576 ------- 1 0.1 4.1 1073 52 275 0x10 40 0
r 0.371912 2 3 ack 179 ------- 2 0.2 4.2 1 51 678 0x19 40 0
+ 0.372053 2 3 ack 576 ------- 1 0.1 4.1 1609 53 275 0x10 40 0
- 0.372053 2 3 ack 576 ------- 1 0.1 4.1 1609 53 275 0x10 40 0
+ 0.372302 2 3 ack 576 ------- 1 0.1 4.1 2145 54 275 0x10 40 0
- 0.372302 2 3 ack 576 ------- 1 0.1 4.1 2145 54 275 0x10 40 0
+ 0.372551 2 3 ack 576 ------- 1 0.1 4.1 2681 55 275 0x10 40 0
- 0.372551 2 3 ack 576 ------- 1 0.1 4.1 2681 55 275 0x10 40 0
r 0.37285 2 3 ack 576 ------- 1 0.1 4.1 1073 52 275 0x10 40 0
r 0.373099 2 3 ack 576 ------- 1 0.1 4.1 1609 53 275 0x10 40 0
r 0.373348 2 3 ack 576 ------- 1 0.1 4.1 2145 54 275 0x10 40 0
r 0.373597 2 3 ack 576 ------- 1 0.1 4.1 2681 55 275 0x10 40 0
+ 0.378513 3 4 ack 40 ------- 4 0.4 4.4 1 46 537 0x18 40 0
- 0.378513 3 4 ack 40 ------- 4 0.4 4.4 1 46 537 0x18 40 0
+ 0.379037 0 2 ack 576 ------- 3 0.3 4.3 1 59 735 0x10 40 0
- 0.379037 0 2 ack 576 ------- 3 0.3 4.3 1 59 735 0x10 40 0
+ 0.379037 0 2 ack 576 ------- 3 0.3 4.3 537 60 735 0x10 40 0
- 0.379083 0 2 ack 576 ------- 3 0.3 4.3 537 60 735 0x10 40 0
r 0.379516 3 4 ack 40 ------- 4 0.4 4.4 1 46 537 0x18 40 0
+ 0.379516 4 3 tcp 139 ------- 4 4.4 0.4 537 61 1 0x18 40 0
- 0.379516 4 3 tcp 139 ------- 4 4.4 0.4 537 61 1 0x18 40 0
r 0.380083 0 2 ack 576 ------- 3 0.3 4.3 1 59 735 0x10 40 0
r 0.380129 0 2 ack 576 ------- 3 0.3 4.3 537 60 735 0x10 40 0
+ 0.380208 3 4 ack 576 ------- 6 0.6 4.6 1 49 376 0x10 40 0
- 0.380208 3 4 ack 576 ------- 6 0.6 4.6 1 49 376 0x10 40 0
r 0.380527 4 3 tcp 139 ------- 4 4.4 0.4 537 61 1 0x18 40 0
+ 0.3807 3 4 ack 576 ------- 6 0.6 4.6 537 50 376 0x10 40 0