r 0.000000000 _0_ RTR  --- 0 cbr 210 [0 0 0 0] ------- [0:0 2:0 32 0] [0] 0 0
r 0.000000000 _3_ RTR  --- 1 cbr 210 [0 0 0 0] ------- [3:0 4:0 32 0] [0] 0 0
s 0.000000000 _0_ RTR  --- 0 AODV 44 [0 0 0 0] ------- [0:255 -1:255 1 0] [0x1 1 [0 2] 4.000000] (HELLO)
s 0.000000000 _1_ RTR  --- 0 AODV 44 [0 0 0 0] ------- [1:255 -1:255 1 0] [0x1 1 [1 2] 4.000000] (HELLO)
s 0.000000000 _2_ RTR  --- 0 AODV 44 [0 0 0 0] ------- [2:255 -1:255 1 0] [0x1 1 [2 2] 4.000000] (HELLO)
s 0.000000000 _3_ RTR  --- 0 AODV 44 [0 0 0 0] ------- [3:255 -1:255 1 0] [0x1 1 [3 2] 4.000000] (HELLO)
s 0.000000000 _4_ RTR  --- 0 AODV 44 [0 0 0 0] ------- [4:255 -1:255 1 0] [0x1 1 [4 2] 4.000000] (HELLO)
s 0.000000000 _0_ RTR  --- 0 AODV 48 [0 0 0 0] ------- [0:255 -1:255 30 0] [0x2 1 1 [2 0] [0 4]] (REQUEST)
s 0.000000000 _3_ RTR  --- 0 AODV 48 [0 0 0 0] ------- [3:255 -1:255 30 0] [0x2 1 1 [4 0] [3 4]] (REQUEST)
r 0.012425400 _4_ RTR  --- 0 AODV 48 [0 ffffffff 3 0] ------- [3:255 -1:255 30 0] [0x2 1 1 [4 0] [3 4]] (REQUEST)
s 0.012425400 _4_ RTR  --- 0 AODV 44 [0 0 0 0] ------- [4:255 3:255 30 3] [0x4 1 [4 4] 10.000000] (REPLY)
r 0.012425767 _1_ RTR  --- 0 AODV 48 [0 ffffffff 0 0] ------- [0:255 -1:255 30 0] [0x2 1 1 [2 0] [0 4]] (REQUEST)
s 0.020417321 _1_ RTR  --- 0 AODV 48 [0 ffffffff 0 0] ------- [1:255 -1:255 29 0] [0x2 2 1 [2 0] [0 4]] (REQUEST)
r 0.048425767 _0_ RTR  --- 0 AODV 48 [0 ffffffff 1 0] ------- [1:255 -1:255 29 0] [0x2 2 1 [2 0] [0 4]] (REQUEST)
r 0.048425767 _2_ RTR  --- 0 AODV 48 [0 ffffffff 1 0] ------- [1:255 -1:255 29 0] [0x2 2 1 [2 0] [0 4]] (REQUEST)
s 0.048425767 _2_ RTR  --- 0 AODV 44 [0 0 0 0] ------- [2:255 0:255 30 1] [0x4 1 [2 4] 10.000000] (REPLY)
r 0.056000000 _0_ RTR  --- 2 cbr 210 [0 0 0 0] ------- [0:0 2:0 32 0] [1] 0 0
r 0.056000000 _3_ RTR  --- 3 cbr 210 [0 0 0 0] ------- [3:0 4:0 32 0] [1] 0 0
r 0.090409400 _3_ RTR  --- 0 AODV 44 [5 3 4 0] ------- [4:255 3:255 30 3] [0x4 1 [4 4] 10.000000] (REPLY)
s 0.090409400 _3_ RTR  --- 1 cbr 230 [0 0 0 0] ------- [3:0 4:0 30 4] [0] 0 0
r 0.096409767 _1_ RTR  --- 0 AODV 44 [5 1 2 0] ------- [2:255 0:255 30 1] [0x4 1 [2 4] 10.000000] (REPLY)
f 0.096409767 _1_ RTR  --- 0 AODV 44 [5 1 2 0] ------- [2:255 0:255 29 0] [0x4 2 [2 4] 10.000000] (REPLY)
s 0.100409400 _3_ RTR  --- 3 cbr 230 [0 0 0 0] ------- [3:0 4:0 30 4] [1] 0 0
r 0.112000000 _0_ RTR  --- 4 cbr 210 [0 0 0 0] ------- [0:0 2:0 32 0] [2] 0 0
r 0.112000000 _3_ RTR  --- 5 cbr 210 [0 0 0 0] ------- [3:0 4:0 32 0] [2] 0 0
s 0.112000000 _3_ RTR  --- 5 cbr 230 [0 0 0 0] ------- [3:0 4:0 30 4] [2] 0 0
r 0.168000000 _0_ RTR  --- 6 cbr 210 [0 0 0 0] ------- [0:0 2:0 32 0] [3] 0 0
r 0.168000000 _3_ RTR  --- 7 cbr 210 [0 0 0 0] ------- [3:0 4:0 32 0] [3] 0 0
s 0.168000000 _3_ RTR  --- 7 cbr 230 [0 0 0 0] ------- [3:0 4:0 30 4] [3] 0 0
r 0.174409767 _0_ RTR  --- 0 AODV 44 [5 0 1 0] ------- [2:255 0:255 29 0] [0x4 2 [2 4] 10.000000] (REPLY)
s 0.174409767 _0_ RTR  --- 0 cbr 230 [0 0 0 0] ------- [0:0 2:0 30 1] [0] 0 0
s 0.184409767 _0_ RTR  --- 2 cbr 230 [0 0 0 0] ------- [0:0 2:0 30 1] [1] 0 0
s 0.194409767 _0_ RTR  --- 4 cbr 230 [0 0 0 0] ------- [0:0 2:0 30 1] [2] 0 0
s 0.204409767 _0_ RTR  --- 6 cbr 230 [0 0 0 0] ------- [0:0 2:0 30 1] [3] 0 0
r 0.224000000 _0_ RTR  --- 8 cbr 210 [0 0 0 0] ------- [0:0 2:0 32 0] [4] 0 0
r 0.224000000 _3_ RTR  --- 9 cbr 210 [0 0 0 0] ------- [3:0 4:0 32 0] [4] 0 0
s 0.224000000 _0_ RTR  --- 8 cbr 230 [0 0 0 0] ------- [0:0 2:0 30 1] [4] 0 0
s 0.224000000 _3_ RTR  --- 9 cbr 230 [0 0 0 0] ------- [3:0 4:0 30 4] [4] 0 0
r 0.280000000 _0_ RTR  --- 10 cbr 210 [0 0 0 0] ------- [0:0 2:0 32 0] [5] 0 0
r 0.280000000 _3_ RTR  --- 11 cbr 210 [0 0 0 0] ------- [3:0 4:0 32 0] [5] 0 0
s 0.280000000 _0_ RTR  --- 10 cbr 230 [0 0 0 0] ------- [0:0 2:0 30 1] [5] 0 0
s 0.280000000 _3_ RTR  --- 11 cbr 230 [0 0 0 0] ------- [3:0 4:0 30 4] [5] 0 0
r 0.336000000 _0_ RTR  --- 12 cbr 210 [0 0 0 0] ------- [0:0 2:0 32 0] [6] 0 0
r 0.336000000 _3_ RTR  --- 13 cbr 210 [0 0 0 0] ------- [3:0 4:0 32 0] [6] 0 0
s 0.336000000 _0_ RTR  --- 12 cbr 230 [0 0 0 0] ------- [0:0 2:0 30 1] [6] 0 0
s 0.336000000 _3_ RTR  --- 13 cbr 230 [0 0 0 0] ------- [3:0 4:0 30 4] [6] 0 0
r 0.392000000 _0_ RTR  --- 14 cbr 210 [0 0 0 0] ------- [0:0 2:0 32 0] [7] 0 0
r 0.392000000 _3_ RTR  --- 15 cbr 210 [0 0 0 0] ------- [3:0 4:0 32 0] [7] 0 0
s 0.392000000 _0_ RTR  --- 14 cbr 230 [0 0 0 0] ------- [0:0 2:0 30 1] [7] 0 0
s 0.392000000 _3_ RTR  --- 15 cbr 230 [0 0 0 0] ------- [3:0 4:0 30 4] [7] 0 0
r 0.448000000 _0_ RTR  --- 16 cbr 210 [0 0 0 0] ------- [0:0 2:0 32 0] [8] 0 0
r 0.448000000 _3_ RTR  --- 17 cbr 210 [0 0 0 0] ------- [3:0 4:0 32 0] [8] 0 0
s 0.448000000 _0_ RTR  --- 16 cbr 230 [0 0 0 0] ------- [0:0 2:0 30 1] [8] 0 0
s 0.448000000 _3_ RTR  --- 17 cbr 230 [0 0 0 0] ------- [3:0 4:0 30 4] [8] 0 0
r 0.504000000 _0_ RTR  --- 18 cbr 210 [0 0 0 0] ------- [0:0 2:0 32 0] [9] 0 0
r 0.504000000 _3_ RTR  --- 19 cbr 210 [0 0 0 0] ------- [3:0 4:0 32 0] [9] 0 0
s 0.504000000 _0_ RTR  --- 18 cbr 230 [0 0 0 0] ------- [0:0 2:0 30 1] [9] 0 0
s 0.504000000 _3_ RTR  --- 19 cbr 230 [0 0 0 0] ------- [3:0 4:0 30 4] [9] 0 0
r 0.560000000 _0_ RTR  --- 20 cbr 210 [0 0 0 0] ------- [0:0 2:0 32 0] [10] 0 0
r 0.560000000 _3_ RTR  --- 21 cbr 210 [0 0 0 0] ------- [3:0 4:0 32 0] [10] 0 0
s 0.560000000 _0_ RTR  --- 20 cbr 230 [0 0 0 0] ------- [0:0 2:0 30 1] [10] 0 0
s 0.560000000 _3_ RTR  --- 21 cbr 230 [0 0 0 0] ------- [3:0 4:0 30 4] [10] 0 0
r 0.616000000 _0_ RTR  --- 22 cbr 210 [0 0 0 0] ------- [0:0 2:0 32 0] [11] 0 0
r 0.616000000 _3_ RTR  --- 23 cbr 210 [0 0 0 0] ------- [3:0 4:0 32 0] [11] 0 0
s 0.616000000 _0_ RTR  --- 22 cbr 230 [0 0 0 0] ------- [0:0 2:0 30 1] [11] 0 0
s 0.616000000 _3_ RTR  --- 23 cbr 230 [0 0 0 0] ------- [3:0 4:0 30 4] [11] 0 0
r 0.672000000 _0_ RTR  --- 24 cbr 210 [0 0 0 0] ------- [0:0 2:0 32 0] [12] 0 0
r 0.672000000 _3_ RTR  --- 25 cbr 210 [0 0 0 0] ------- [3:0 4:0 32 0] [12] 0 0
s 0.672000000 _0_ RTR  --- 24 cbr 230 [0 0 0 0] ------- [0:0 2:0 30 1] [12] 0 0
s 0.672000000 _3_ RTR  --- 25 cbr 230 [0 0 0 0] ------- [3:0 4:0 30 4] [12] 0 0
r 0.728000000 _0_ RTR  --- 26 cbr 210 [0 0 0 0] ------- [0:0 2:0 32 0] [13] 0 0
r 0.728000000 _3_ RTR  --- 27 cbr 210 [0 0 0 0] ------- [3:0 4:0 32 0] [13] 0 0
s 0.728000000 _0_ RTR  --- 26 cbr 230 [0 0 0 0] ------- [0:0 2:0 30 1] [13] 0 0
s 0.728000000 _3_ RTR  --- 27 cbr 230 [0 0 0 0] ------- [3:0 4:0 30 4] [13] 0 0
s 0.750169789 _0_ RTR  --- 0 AODV 44 [0 0 0 0] ------- [0:255 -1:255 1 0] [0x1 1 [0 4] 4.000000] (HELLO)
s 0.757102330 _2_ RTR  --- 0 AODV 44 [0 0 0 0] ------- [2:255 -1:255 1 0] [0x1 1 [2 4] 4.000000] (HELLO)
r 0.762409767 _1_ RTR  --- 0 AODV 44 [0 ffffffff 2 0] ------- [2:255 -1:255 1 0] [0x1 1 [2 4] 4.000000] (HELLO)
r 0.784000000 _0_ RTR  --- 28 cbr 210 [0 0 0 0] ------- [0:0 2:0 32 0] [14] 0 0
r 0.784000000 _3_ RTR  --- 29 cbr 210 [0 0 0 0] ------- [3:0 4:0 32 0] [14] 0 0
s 0.784000000 _0_ RTR  --- 28 cbr 230 [0 0 0 0] ------- [0:0 2:0 30 1] [14] 0 0
s 0.784000000 _3_ RTR  --- 29 cbr 230 [0 0 0 0] ------- [3:0 4:0 30 4] [14] 0 0
s 0.794061336 _3_ RTR  --- 0 AODV 44 [0 0 0 0] ------- [3:255 -1:255 1 0] [0x1 1 [3 4] 4.000000] (HELLO)
r 0.840000000 _0_ RTR  --- 30 cbr 210 [0 0 0 0] ------- [0:0 2:0 32 0] [15] 0 0
r 0.840000000 _3_ RTR  --- 31 cbr 210 [0 0 0 0] ------- [3:0 4:0 32 0] [15] 0 0
s 0.840000000 _0_ RTR  --- 30 cbr 230 [0 0 0 0] ------- [0:0 2:0 30 1] [15] 0 0
s 0.840000000 _3_ RTR  --- 31 cbr 230 [0 0 0 0] ------- [3:0 4:0 30 4] [15] 0 0
r 0.896000000 _0_ RTR  --- 32 cbr 210 [0 0 0 0] ------- [0:0 2:0 32 0] [16] 0 0
r 0.896000000 _3_ RTR  --- 33 cbr 210 [0 0 0 0] ------- [3:0 4:0 32 0] [16] 0 0
s 0.896000000 _0_ RTR  --- 32 cbr 230 [0 0 0 0] ------- [0:0 2:0 30 1] [16] 0 0
s 0.896000000 _3_ RTR  --- 33 cbr 230 [0 0 0 0] ------- [3:0 4:0 30 4] [16] 0 0
r 0.952000000 _0_ RTR  --- 34 cbr 210 [0 0 0 0] ------- [0:0 2:0 32 0] [17] 0 0
r 0.952000000 _3_ RTR  --- 35 cbr 210 [0 0 0 0] ------- [3:0 4:0 32 0] [17] 0 0
s 0.952000000 _0_ RTR  --- 34 cbr 230 [0 0 0 0] ------- [0:0 2:0 30 1] [17] 0 0
s 0.952000000 _3_ RTR  --- 35 cbr 230 [0 0 0 0] ------- [3:0 4:0 30 4] [17] 0 0
s 0.970586691 _4_ RTR  --- 0 AODV 44 [0 0 0 0] ------- [4:255 -1:255 1 0] [0x1 1 [4 4] 4.000000] (HELLO)
r 0.972409400 _3_ RTR  --- 0 AODV 44 [0 ffffffff 4 0] ------- [4:255 -1:255 1 0] [0x1 1 [4 4] 4.000000] (HELLO)
r 1.008000000 _0_ RTR  --- 36 cbr 210 [0 0 0 0] ------- [0:0 2:0 32 0] [18] 0 0
r 1.008000000 _3_ RTR  --- 37 cbr 210 [0 0 0 0] ------- [3:0 4:0 32 0] [18] 0 0
s 1.008000000 _0_ RTR  --- 36 cbr 230 [0 0 0 0] ------- [0:0 2:0 30 1] [18] 0 0
s 1.008000000 _3_ RTR  --- 37 cbr 230 [0 0 0 0] ------- [3:0 4:0 30 4] [18] 0 0
s 1.027940358 _1_ RTR  --- 0 AODV 44 [0 0 0 0] ------- [1:255 -1:255 1 0] [0x1 1 [1 4] 4.000000] (HELLO)
r 1.056409767 _0_ RTR  --- 0 AODV 44 [0 ffffffff 1 0] ------- [1:255 -1:255 1 0] [0x1 1 [1 4] 4.000000] (HELLO)
r 1.056409767 _2_ RTR  --- 0 AODV 44 [0 ffffffff 1 0] ------- [1:255 -1:255 1 0] [0x1 1 [1 4] 4.000000] (HELLO)
r 1.056409792 _3_ RTR  --- 0 AODV 44 [0 ffffffff 1 0] ------- [1:255 -1:255 1 0] [0x1 1 [1 4] 4.000000] (HELLO)
r 1.064000000 _0_ RTR  --- 38 cbr 210 [0 0 0 0] ------- [0:0 2:0 32 0] [19] 0 0
r 1.064000000 _3_ RTR  --- 39 cbr 210 [0 0 0 0] ------- [3:0 4:0 32 0] [19] 0 0
s 1.064000000 _0_ RTR  --- 38 cbr 230 [0 0 0 0] ------- [0:0 2:0 30 1] [19] 0 0
s 1.064000000 _3_ RTR  --- 39 cbr 230 [0 0 0 0] ------- [3:0 4:0 30 4] [19] 0 0
r 1.120000000 _0_ RTR  --- 40 cbr 210 [0 0 0 0] ------- [0:0 2:0 32 0] [20] 0 0
r 1.120000000 _3_ RTR  --- 41 cbr 210 [0 0 0 0] ------- [3:0 4:0 32 0] [20] 0 0
s 1.120000000 _0_ RTR  --- 40 cbr 230 [0 0 0 0] ------- [0:0 2:0 30 1] [20] 0 0
s 1.120000000 _3_ RTR  --- 41 cbr 230 [0 0 0 0] ------- [3:0 4:0 30 4] [20] 0 0
r 1.176000000 _0_ RTR  --- 42 cbr 210 [0 0 0 0] ------- [0:0 2:0 32 0] [21] 0 0
r 1.176000000 _3_ RTR  --- 43 cbr 210 [0 0 0 0] ------- [3:0 4:0 32 0] [21] 0 0
s 1.176000000 _0_ RTR  --- 42 cbr 230 [0 0 0 0] ------- [0:0 2:0 30 1] [21] 0 0
s 1.176000000 _3_ RTR  --- 43 cbr 230 [0 0 0 0] ------- [3:0 4:0 30 4] [21] 0 0
r 1.232000000 _0_ RTR  --- 44 cbr 210 [0 0 0 0] ------- [0:0 2:0 32 0] [22] 0 0
r 1.232000000 _3_ RTR  --- 45 cbr 210 [0 0 0 0] ------- [3:0 4:0 32 0] [22] 0 0
s 1.232000000 _0_ RTR  --- 44 cbr 230 [0 0 0 0] ------- [0:0 2:0 30 1] [22] 0 0
s 1.232000000 _3_ RTR  --- 45 cbr 230 [0 0 0 0] ------- [3:0 4:0 30 4] [22] 0 0
r 1.288000000 _0_ RTR  --- 46 cbr 210 [0 0 0 0] ------- [0:0 2:0 32 0] [23] 0 0
r 1.288000000 _3_ RTR  --- 47 cbr 210 [0 0 0 0] ------- [3:0 4:0 32 0] [23] 0 0
s 1.288000000 _0_ RTR  --- 46 cbr 230 [0 0 0 0] ------- [0:0 2:0 30 1] [23] 0 0
s 1.288000000 _3_ RTR  --- 47 cbr 230 [0 0 0 0] ------- [3:0 4:0 30 4] [23] 0 0
r 1.344000000 _0_ RTR  --- 48 cbr 210 [0 0 0 0] ------- [0:0 2:0 32 0] [24] 0 0
r 1.344000000 _3_ RTR  --- 49 cbr 210 [0 0 0 0] ------- [3:0 4:0 32 0] [24] 0 0
s 1.344000000 _0_ RTR  --- 48 cbr 230 [0 0 0 0] ------- [0:0 2:0 30 1] [24] 0 0
s 1.344000000 _3_ RTR  --- 49 cbr 230 [0 0 0 0] ------- [3:0 4:0 30 4] [24] 0 0
r 1.400000000 _0_ RTR  --- 50 cbr 210 [0 0 0 0] ------- [0:0 2:0 32 0] [25] 0 0
r 1.400000000 _3_ RTR  --- 51 cbr 210 [0 0 0 0] ------- [3:0 4:0 32 0] [25] 0 0
s 1.400000000 _0_ RTR  --- 50 cbr 230 [0 0 0 0] ------- [0:0 2:0 30 1] [25] 0 0
s 1.400000000 _3_ RTR  --- 51 cbr 230 [0 0 0 0] ------- [3:0 4:0 30 4] [25] 0 0
r 1.456000000 _0_ RTR  --- 52 cbr 210 [0 0 0 0] ------- [0:0 2:0 32 0] [26] 0 0
r 1.456000000 _3_ RTR  --- 53 cbr 210 [0 0 0 0] ------- [3:0 4:0 32 0] [26] 0 0
s 1.456000000 _0_ RTR  --- 52 cbr 230 [0 0 0 0] ------- [0:0 2:0 30 1] [26] 0 0
s 1.456000000 _3_ RTR  --- 53 cbr 230 [0 0 0 0] ------- [3:0 4:0 30 4] [26] 0 0
r 1.512000000 _0_ RTR  --- 54 cbr 210 [0 0 0 0] ------- [0:0 2:0 32 0] [27] 0 0
r 1.512000000 _3_ RTR  --- 55 cbr 210 [0 0 0 0] ------- [3:0 4:0 32 0] [27] 0 0
s 1.512000000 _0_ RTR  --- 54 cbr 230 [0 0 0 0] ------- [0:0 2:0 30 1] [27] 0 0
s 1.512000000 _3_ RTR  --- 55 cbr 230 [0 0 0 0] ------- [3:0 4:0 30 4] [27] 0 0
r 1.568000000 _0_ RTR  --- 56 cbr 210 [0 0 0 0] ------- [0:0 2:0 32 0] [28] 0 0
r 1.568000000 _3_ RTR  --- 57 cbr 210 [0 0 0 0] ------- [3:0 4:0 32 0] [28] 0 0
s 1.568000000 _0_ RTR  --- 56 cbr 230 [0 0 0 0] ------- [0:0 2:0 30 1] [28] 0 0
s 1.568000000 _3_ RTR  --- 57 cbr 230 [0 0 0 0] ------- [3:0 4:0 30 4] [28] 0 0
r 1.624000000 _0_ RTR  --- 58 cbr 210 [0 0 0 0] ------- [0:0 2:0 32 0] [29] 0 0
r 1.624000000 _3_ RTR  --- 59 cbr 210 [0 0 0 0] ------- [3:0 4:0 32 0] [29] 0 0
s 1.624000000 _0_ RTR  --- 58 cbr 230 [0 0 0 0] ------- [0:0 2:0 30 1] [29] 0 0
s 1.624000000 _3_ RTR  --- 59 cbr 230 [0 0 0 0] ------- [3:0 4:0 30 4] [29] 0 0
s 1.656650674 _0_ RTR  --- 0 AODV 44 [0 0 0 0] ------- [0:255 -1:255 1 0] [0x1 1 [0 6] 4.000000] (HELLO)
s 1.661362212 _3_ RTR  --- 0 AODV 44 [0 0 0 0] ------- [3:255 -1:255 1 0] [0x1 1 [3 8] 4.000000] (HELLO)
r 1.680000000 _0_ RTR  --- 60 cbr 210 [0 0 0 0] ------- [0:0 2:0 32 0] [30] 0 0
r 1.680000000 _3_ RTR  --- 61 cbr 210 [0 0 0 0] ------- [3:0 4:0 32 0] [30] 0 0
s 1.680000000 _0_ RTR  --- 60 cbr 230 [0 0 0 0] ------- [0:0 2:0 30 1] [30] 0 0
s 1.680000000 _3_ RTR  --- 61 cbr 230 [0 0 0 0] ------- [3:0 4:0 30 4] [30] 0 0
r 1.736000000 _0_ RTR  --- 62 cbr 210 [0 0 0 0] ------- [0:0 2:0 32 0] [31] 0 0
r 1.736000000 _3_ RTR  --- 63 cbr 210 [0 0 0 0] ------- [3:0 4:0 32 0] [31] 0 0
s 1.736000000 _0_ RTR  --- 62 cbr 230 [0 0 0 0] ------- [0:0 2:0 30 1] [31] 0 0
s 1.736000000 _3_ RTR  --- 63 cbr 230 [0 0 0 0] ------- [3:0 4:0 30 4] [31] 0 0
r 1.792000000 _0_ RTR  --- 64 cbr 210 [0 0 0 0] ------- [0:0 2:0 32 0] [32] 0 0
r 1.792000000 _3_ RTR  --- 65 cbr 210 [0 0 0 0] ------- [3:0 4:0 32 0] [32] 0 0
s 1.792000000 _0_ RTR  --- 64 cbr 230 [0 0 0 0] ------- [0:0 2:0 30 1] [32] 0 0
s 1.792000000 _3_ RTR  --- 65 cbr 230 [0 0 0 0] ------- [3:0 4:0 30 4] [32] 0 0
r 1.848000000 _0_ RTR  --- 66 cbr 210 [0 0 0 0] ------- [0:0 2:0 32 0] [33] 0 0
r 1.848000000 _3_ RTR  --- 67 cbr 210 [0 0 0 0] ------- [3:0 4:0 32 0] [33] 0 0
s 1.848000000 _0_ RTR  --- 66 cbr 230 [0 0 0 0] ------- [0:0 2:0 30 1] [33] 0 0
s 1.848000000 _3_ RTR  --- 67 cbr 230 [0 0 0 0] ------- [3:0 4:0 30 4] [33] 0 0
r 1.904000000 _0_ RTR  --- 68 cbr 210 [0 0 0 0] ------- [0:0 2:0 32 0] [34] 0 0
r 1.904000000 _3_ RTR  --- 69 cbr 210 [0 0 0 0] ------- [3:0 4:0 32 0] [34] 0 0
s 1.904000000 _0_ RTR  --- 68 cbr 230 [0 0 0 0] ------- [0:0 2:0 30 1] [34] 0 0
s 1.904000000 _3_ RTR  --- 69 cbr 230 [0 0 0 0] ------- [3:0 4:0 30 4] [34] 0 0
s 1.915340356 _2_ RTR  --- 0 AODV 44 [0 0 0 0] ------- [2:255 -1:255 1 0] [0x1 1 [2 6] 4.000000] (HELLO)
s 1.932479887 _1_ RTR  --- 0 AODV 44 [0 0 0 0] ------- [1:255 -1:255 1 0] [0x1 1 [1 4] 4.000000] (HELLO)
r 1.938409767 _0_ RTR  --- 0 AODV 44 [0 ffffffff 1 0] ------- [1:255 -1:255 1 0] [0x1 1 [1 4] 4.000000] (HELLO)
r 1.938409792 _3_ RTR  --- 0 AODV 44 [0 ffffffff 1 0] ------- [1:255 -1:255 1 0] [0x1 1 [1 4] 4.000000] (HELLO)
r 1.960000000 _0_ RTR  --- 70 cbr 210 [0 0 0 0] ------- [0:0 2:0 32 0] [35] 0 0
r 1.960000000 _3_ RTR  --- 71 cbr 210 [0 0 0 0] ------- [3:0 4:0 32 0] [35] 0 0
s 1.960000000 _0_ RTR  --- 70 cbr 230 [0 0 0 0] ------- [0:0 2:0 30 1] [35] 0 0
s 1.960000000 _3_ RTR  --- 71 cbr 230 [0 0 0 0] ------- [3:0 4:0 30 4] [35] 0 0
r 2.016000000 _0_ RTR  --- 72 cbr 210 [0 0 0 0] ------- [0:0 2:0 32 0] [36] 0 0
r 2.016000000 _3_ RTR  --- 73 cbr 210 [0 0 0 0] ------- [3:0 4:0 32 0] [36] 0 0
s 2.016000000 _0_ RTR  --- 72 cbr 230 [0 0 0 0] ------- [0:0 2:0 30 1] [36] 0 0
s 2.016000000 _3_ RTR  --- 73 cbr 230 [0 0 0 0] ------- [3:0 4:0 30 4] [36] 0 0
s 2.040019263 _4_ RTR  --- 0 AODV 44 [0 0 0 0] ------- [4:255 -1:255 1 0] [0x1 1 [4 4] 4.000000] (HELLO)
r 2.064409400 _3_ RTR  --- 0 AODV 44 [0 ffffffff 4 0] ------- [4:255 -1:255 1 0] [0x1 1 [4 4] 4.000000] (HELLO)
r 2.072000000 _0_ RTR  --- 74 cbr 210 [0 0 0 0] ------- [0:0 2:0 32 0] [37] 0 0
r 2.072000000 _3_ RTR  --- 75 cbr 210 [0 0 0 0] ------- [3:0 4:0 32 0] [37] 0 0
s 2.072000000 _0_ RTR  --- 74 cbr 230 [0 0 0 0] ------- [0:0 2:0 30 1] [37] 0 0
s 2.072000000 _3_ RTR  --- 75 cbr 230 [0 0 0 0] ------- [3:0 4:0 30 4] [37] 0 0
r 2.128000000 _0_ RTR  --- 76 cbr 210 [0 0 0 0] ------- [0:0 2:0 32 0] [38] 0 0
r 2.128000000 _3_ RTR  --- 77 cbr 210 [0 0 0 0] ------- [3:0 4:0 32 0] [38] 0 0
s 2.128000000 _0_ RTR  --- 76 cbr 230 [0 0 0 0] ------- [0:0 2:0 30 1] [38] 0 0
s 2.128000000 _3_ RTR  --- 77 cbr 230 [0 0 0 0] ------- [3:0 4:0 30 4] [38] 0 0
r 2.184000000 _0_ RTR  --- 78 cbr 210 [0 0 0 0] ------- [0:0 2:0 32 0] [39] 0 0
r 2.184000000 _3_ RTR  --- 79 cbr 210 [0 0 0 0] ------- [3:0 4:0 32 0] [39] 0 0
s 2.184000000 _0_ RTR  --- 78 cbr 230 [0 0 0 0] ------- [0:0 2:0 30 1] [39] 0 0
s 2.184000000 _3_ RTR  --- 79 cbr 230 [0 0 0 0] ------- [3:0 4:0 30 4] [39] 0 0
r 2.240000000 _0_ RTR  --- 80 cbr 210 [0 0 0 0] ------- [0:0 2:0 32 0] [40] 0 0
r 2.240000000 _3_ RTR  --- 81 cbr 210 [0 0 0 0] ------- [3:0 4:0 32 0] [40] 0 0
s 2.240000000 _0_ RTR  --- 80 cbr 230 [0 0 0 0] ------- [0:0 2:0 30 1] [40] 0 0
s 2.240000000 _3_ RTR  --- 81 cbr 230 [0 0 0 0] ------- [3:0 4:0 30 4] [40] 0 0
r 2.296000000 _0_ RTR  --- 82 cbr 210 [0 0 0 0] ------- [0:0 2:0 32 0] [41] 0 0
r 2.296000000 _3_ RTR  --- 83 cbr 210 [0 0 0 0] ------- [3:0 4:0 32 0] [41] 0 0
s 2.296000000 _0_ RTR  --- 82 cbr 230 [0 0 0 0] ------- [0:0 2:0 30 1] [41] 0 0
s 2.296000000 _3_ RTR  --- 83 cbr 230 [0 0 0 0] ------- [3:0 4:0 30 4] [41] 0 0
r 2.352000000 _0_ RTR  --- 84 cbr 210 [0 0 0 0] ------- [0:0 2:0 32 0] [42] 0 0
r 2.352000000 _3_ RTR  --- 85 cbr 210 [0 0 0 0] ------- [3:0 4:0 32 0] [42] 0 0
s 2.352000000 _0_ RTR  --- 84 cbr 230 [0 0 0 0] ------- [0:0 2:0 30 1] [42] 0 0
s 2.352000000 _3_ RTR  --- 85 cbr 230 [0 0 0 0] ------- [3:0 4:0 30 4] [42] 0 0
r 2.408000000 _0_ RTR  --- 86 cbr 210 [0 0 0 0] ------- [0:0 2:0 32 0] [43] 0 0
r 2.408000000 _3_ RTR  --- 87 cbr 210 [0 0 0 0] ------- [3:0 4:0 32 0] [43] 0 0
s 2.408000000 _0_ RTR  --- 86 cbr 230 [0 0 0 0] ------- [0:0 2:0 30 1] [43] 0 0
s 2.408000000 _3_ RTR  --- 87 cbr 230 [0 0 0 0] ------- [3:0 4:0 30 4] [43] 0 0
r 2.464000000 _0_ RTR  --- 88 cbr 210 [0 0 0 0] ------- [0:0 2:0 32 0] [44] 0 0
r 2.464000000 _3_ RTR  --- 89 cbr 210 [0 0 0 0] ------- [3:0 4:0 32 0] [44] 0 0
s 2.464000000 _0_ RTR  --- 88 cbr 230 [0 0 0 0] ------- [0:0 2:0 30 1] [44] 0 0
s 2.464000000 _3_ RTR  --- 89 cbr 230 [0 0 0 0] ------- [3:0 4:0 30 4] [44] 0 0
s 2.493434915 _3_ RTR  --- 0 AODV 44 [0 0 0 0] ------- [3:255 -1:255 1 0] [0x1 1 [3 8] 4.000000] (HELLO)
r 2.520000000 _0_ RTR  --- 90 cbr 210 [0 0 0 0] ------- [0:0 2:0 32 0] [45] 0 0
r 2.520000000 _3_ RTR  --- 91 cbr 210 [0 0 0 0] ------- [3:0 4:0 32 0] [45] 0 0
s 2.520000000 _0_ RTR  --- 90 cbr 230 [0 0 0 0] ------- [0:0 2:0 30 1] [45] 0 0
s 2.520000000 _3_ RTR  --- 91 cbr 230 [0 0 0 0] ------- [3:0 4:0 30 4] [45] 0 0
r 2.576000000 _0_ RTR  --- 92 cbr 210 [0 0 0 0] ------- [0:0 2:0 32 0] [46] 0 0
r 2.576000000 _3_ RTR  --- 93 cbr 210 [0 0 0 0] ------- [3:0 4:0 32 0] [46] 0 0
s 2.576000000 _0_ RTR  --- 92 cbr 230 [0 0 0 0] ------- [0:0 2:0 30 1] [46] 0 0
s 2.576000000 _3_ RTR  --- 93 cbr 230 [0 0 0 0] ------- [3:0 4:0 30 4] [46] 0 0
r 2.632000000 _0_ RTR  --- 94 cbr 210 [0 0 0 0] ------- [0:0 2:0 32 0] [47] 0 0
r 2.632000000 _3_ RTR  --- 95 cbr 210 [0 0 0 0] ------- [3:0 4:0 32 0] [47] 0 0
s 2.632000000 _0_ RTR  --- 94 cbr 230 [0 0 0 0] ------- [0:0 2:0 30 1] [47] 0 0
s 2.632000000 _3_ RTR  --- 95 cbr 230 [0 0 0 0] ------- [3:0 4:0 30 4] [47] 0 0
D 2.632025000 _3_ IFQ  --- 95 cbr 230 [0 4 3 0] ------- [3:0 4:0 30 4] [47] 0 0
s 2.686737635 _2_ RTR  --- 0 AODV 44 [0 0 0 0] ------- [2:255 -1:255 1 0] [0x1 1 [2 6] 4.000000] (HELLO)
r 2.688000000 _0_ RTR  --- 96 cbr 210 [0 0 0 0] ------- [0:0 2:0 32 0] [48] 0 0
r 2.688000000 _3_ RTR  --- 97 cbr 210 [0 0 0 0] ------- [3:0 4:0 32 0] [48] 0 0
s 2.688000000 _0_ RTR  --- 96 cbr 230 [0 0 0 0] ------- [0:0 2:0 30 1] [48] 0 0
s 2.688000000 _3_ RTR  --- 97 cbr 230 [0 0 0 0] ------- [3:0 4:0 30 4] [48] 0 0
D 2.688025000 _0_ IFQ  --- 96 cbr 230 [0 1 0 0] ------- [0:0 2:0 30 1] [48] 0 0
D 2.688025000 _3_ IFQ  --- 97 cbr 230 [0 4 3 0] ------- [3:0 4:0 30 4] [48] 0 0
r 2.694409767 _1_ RTR  --- 0 AODV 44 [0 ffffffff 2 0] ------- [2:255 -1:255 1 0] [0x1 1 [2 6] 4.000000] (HELLO)
r 2.744000000 _0_ RTR  --- 98 cbr 210 [0 0 0 0] ------- [0:0 2:0 32 0] [49] 0 0
r 2.744000000 _3_ RTR  --- 99 cbr 210 [0 0 0 0] ------- [3:0 4:0 32 0] [49] 0 0
s 2.744000000 _0_ RTR  --- 98 cbr 230 [0 0 0 0] ------- [0:0 2:0 30 1] [49] 0 0
s 2.744000000 _3_ RTR  --- 99 cbr 230 [0 0 0 0] ------- [3:0 4:0 30 4] [49] 0 0
D 2.744025000 _0_ IFQ  --- 98 cbr 230 [0 1 0 0] ------- [0:0 2:0 30 1] [49] 0 0
D 2.744025000 _3_ IFQ  --- 99 cbr 230 [0 4 3 0] ------- [3:0 4:0 30 4] [49] 0 0
r 2.800000000 _0_ RTR  --- 100 cbr 210 [0 0 0 0] ------- [0:0 2:0 32 0] [50] 0 0
r 2.800000000 _3_ RTR  --- 101 cbr 210 [0 0 0 0] ------- [3:0 4:0 32 0] [50] 0 0
s 2.800000000 _0_ RTR  --- 100 cbr 230 [0 0 0 0] ------- [0:0 2:0 30 1] [50] 0 0
s 2.800000000 _3_ RTR  --- 101 cbr 230 [0 0 0 0] ------- [3:0 4:0 30 4] [50] 0 0
D 2.800025000 _0_ IFQ  --- 100 cbr 230 [0 1 0 0] ------- [0:0 2:0 30 1] [50] 0 0
D 2.800025000 _3_ IFQ  --- 101 cbr 230 [0 4 3 0] ------- [3:0 4:0 30 4] [50] 0 0
s 2.824812443 _0_ RTR  --- 0 AODV 44 [0 0 0 0] ------- [0:255 -1:255 1 0] [0x1 1 [0 6] 4.000000] (HELLO)
D 2.824837443 _0_ IFQ  --- 94 cbr 230 [0 1 0 0] ------- [0:0 2:0 30 1] [47] 0 0
s 2.846923387 _4_ RTR  --- 0 AODV 44 [0 0 0 0] ------- [4:255 -1:255 1 0] [0x1 1 [4 4] 4.000000] (HELLO)
r 2.856000000 _0_ RTR  --- 102 cbr 210 [0 0 0 0] ------- [0:0 2:0 32 0] [51] 0 0
r 2.856000000 _3_ RTR  --- 103 cbr 210 [0 0 0 0] ------- [3:0 4:0 32 0] [51] 0 0
s 2.856000000 _0_ RTR  --- 102 cbr 230 [0 0 0 0] ------- [0:0 2:0 30 1] [51] 0 0
s 2.856000000 _3_ RTR  --- 103 cbr 230 [0 0 0 0] ------- [3:0 4:0 30 4] [51] 0 0
D 2.856025000 _0_ IFQ  --- 102 cbr 230 [0 1 0 0] ------- [0:0 2:0 30 1] [51] 0 0
D 2.856025000 _3_ IFQ  --- 103 cbr 230 [0 4 3 0] ------- [3:0 4:0 30 4] [51] 0 0
r 2.862409400 _3_ RTR  --- 0 AODV 44 [0 ffffffff 4 0] ------- [4:255 -1:255 1 0] [0x1 1 [4 4] 4.000000] (HELLO)
r 2.912000000 _0_ RTR  --- 104 cbr 210 [0 0 0 0] ------- [0:0 2:0 32 0] [52] 0 0
r 2.912000000 _3_ RTR  --- 105 cbr 210 [0 0 0 0] ------- [3:0 4:0 32 0] [52] 0 0
s 2.912000000 _0_ RTR  --- 104 cbr 230 [0 0 0 0] ------- [0:0 2:0 30 1] [52] 0 0
s 2.912000000 _3_ RTR  --- 105 cbr 230 [0 0 0 0] ------- [3:0 4:0 30 4] [52] 0 0
D 2.912025000 _0_ IFQ  --- 104 cbr 230 [0 1 0 0] ------- [0:0 2:0 30 1] [52] 0 0
D 2.912025000 _3_ IFQ  --- 105 cbr 230 [0 4 3 0] ------- [3:0 4:0 30 4] [52] 0 0
r 2.968000000 _0_ RTR  --- 106 cbr 210 [0 0 0 0] ------- [0:0 2:0 32 0] [53] 0 0
r 2.968000000 _3_ RTR  --- 107 cbr 210 [0 0 0 0] ------- [3:0 4:0 32 0] [53] 0 0
s 2.968000000 _0_ RTR  --- 106 cbr 230 [0 0 0 0] ------- [0:0 2:0 30 1] [53] 0 0
s 2.968000000 _3_ RTR  --- 107 cbr 230 [0 0 0 0] ------- [3:0 4:0 30 4] [53] 0 0
D 2.968025000 _0_ IFQ  --- 106 cbr 230 [0 1 0 0] ------- [0:0 2:0 30 1] [53] 0 0
D 2.968025000 _3_ IFQ  --- 107 cbr 230 [0 4 3 0] ------- [3:0 4:0 30 4] [53] 0 0
s 3.002513716 _1_ RTR  --- 0 AODV 44 [0 0 0 0] ------- [1:255 -1:255 1 0] [0x1 1 [1 4] 4.000000] (HELLO)
r 3.024000000 _0_ RTR  --- 108 cbr 210 [0 0 0 0] ------- [0:0 2:0 32 0] [54] 0 0
r 3.024000000 _3_ RTR  --- 109 cbr 210 [0 0 0 0] ------- [3:0 4:0 32 0] [54] 0 0
s 3.024000000 _0_ RTR  --- 108 cbr 230 [0 0 0 0] ------- [0:0 2:0 30 1] [54] 0 0
s 3.024000000 _3_ RTR  --- 109 cbr 230 [0 0 0 0] ------- [3:0 4:0 30 4] [54] 0 0
D 3.024025000 _0_ IFQ  --- 108 cbr 230 [0 1 0 0] ------- [0:0 2:0 30 1] [54] 0 0
D 3.024025000 _3_ IFQ  --- 109 cbr 230 [0 4 3 0] ------- [3:0 4:0 30 4] [54] 0 0
r 3.030409767 _0_ RTR  --- 0 AODV 44 [0 ffffffff 1 0] ------- [1:255 -1:255 1 0] [0x1 1 [1 4] 4.000000] (HELLO)
r 3.030409767 _2_ RTR  --- 0 AODV 44 [0 ffffffff 1 0] ------- [1:255 -1:255 1 0] [0x1 1 [1 4] 4.000000] (HELLO)
r 3.030409792 _3_ RTR  --- 0 AODV 44 [0 ffffffff 1 0] ------- [1:255 -1:255 1 0] [0x1 1 [1 4] 4.000000] (HELLO)
r 3.080000000 _0_ RTR  --- 110 cbr 210 [0 0 0 0] ------- [0:0 2:0 32 0] [55] 0 0
r 3.080000000 _3_ RTR  --- 111 cbr 210 [0 0 0 0] ------- [3:0 4:0 32 0] [55] 0 0
s 3.080000000 _0_ RTR  --- 110 cbr 230 [0 0 0 0] ------- [0:0 2:0 30 1] [55] 0 0
s 3.080000000 _3_ RTR  --- 111 cbr 230 [0 0 0 0] ------- [3:0 4:0 30 4] [55] 0 0
D 3.080025000 _0_ IFQ  --- 110 cbr 230 [0 1 0 0] ------- [0:0 2:0 30 1] [55] 0 0
D 3.080025000 _3_ IFQ  --- 111 cbr 230 [0 4 3 0] ------- [3:0 4:0 30 4] [55] 0 0
r 3.136000000 _0_ RTR  --- 112 cbr 210 [0 0 0 0] ------- [0:0 2:0 32 0] [56] 0 0
r 3.136000000 _3_ RTR  --- 113 cbr 210 [0 0 0 0] ------- [3:0 4:0 32 0] [56] 0 0
s 3.136000000 _0_ RTR  --- 112 cbr 230 [0 0 0 0] ------- [0:0 2:0 30 1] [56] 0 0
s 3.136000000 _3_ RTR  --- 113 cbr 230 [0 0 0 0] ------- [3:0 4:0 30 4] [56] 0 0
D 3.136025000 _0_ IFQ  --- 112 cbr 230 [0 1 0 0] ------- [0:0 2:0 30 1] [56] 0 0
D 3.136025000 _3_ IFQ  --- 113 cbr 230 [0 4 3 0] ------- [3:0 4:0 30 4] [56] 0 0
r 3.192000000 _0_ RTR  --- 114 cbr 210 [0 0 0 0] ------- [0:0 2:0 32 0] [57] 0 0
r 3.192000000 _3_ RTR  --- 115 cbr 210 [0 0 0 0] ------- [3:0 4:0 32 0] [57] 0 0
s 3.192000000 _0_ RTR  --- 114 cbr 230 [0 0 0 0] ------- [0:0 2:0 30 1] [57] 0 0
s 3.192000000 _3_ RTR  --- 115 cbr 230 [0 0 0 0] ------- [3:0 4:0 30 4] [57] 0 0
D 3.192025000 _0_ IFQ  --- 114 cbr 230 [0 1 0 0] ------- [0:0 2:0 30 1] [57] 0 0
D 3.192025000 _3_ IFQ  --- 115 cbr 230 [0 4 3 0] ------- [3:0 4:0 30 4] [57] 0 0
r 3.248000000 _0_ RTR  --- 116 cbr 210 [0 0 0 0] ------- [0:0 2:0 32 0] [58] 0 0
r 3.248000000 _3_ RTR  --- 117 cbr 210 [0 0 0 0] ------- [3:0 4:0 32 0] [58] 0 0
s 3.248000000 _0_ RTR  --- 116 cbr 230 [0 0 0 0] ------- [0:0 2:0 30 1] [58] 0 0
s 3.248000000 _3_ RTR  --- 117 cbr 230 [0 0 0 0] ------- [3:0 4:0 30 4] [58] 0 0
D 3.248025000 _0_ IFQ  --- 116 cbr 230 [0 1 0 0] ------- [0:0 2:0 30 1] [58] 0 0
D 3.248025000 _3_ IFQ  --- 117 cbr 230 [0 4 3 0] ------- [3:0 4:0 30 4] [58] 0 0
r 3.304000000 _0_ RTR  --- 118 cbr 210 [0 0 0 0] ------- [0:0 2:0 32 0] [59] 0 0
r 3.304000000 _3_ RTR  --- 119 cbr 210 [0 0 0 0] ------- [3:0 4:0 32 0] [59] 0 0
s 3.304000000 _0_ RTR  --- 118 cbr 230 [0 0 0 0] ------- [0:0 2:0 30 1] [59] 0 0
s 3.304000000 _3_ RTR  --- 119 cbr 230 [0 0 0 0] ------- [3:0 4:0 30 4] [59] 0 0
D 3.304025000 _0_ IFQ  --- 118 cbr 230 [0 1 0 0] ------- [0:0 2:0 30 1] [59] 0 0
D 3.304025000 _3_ IFQ  --- 119 cbr 230 [0 4 3 0] ------- [3:0 4:0 30 4] [59] 0 0
r 3.360000000 _0_ RTR  --- 120 cbr 210 [0 0 0 0] ------- [0:0 2:0 32 0] [60] 0 0
r 3.360000000 _3_ RTR  --- 121 cbr 210 [0 0 0 0] ------- [3:0 4:0 32 0] [60] 0 0
s 3.360000000 _0_ RTR  --- 120 cbr 230 [0 0 0 0] ------- [0:0 2:0 30 1] [60] 0 0
s 3.360000000 _3_ RTR  --- 121 cbr 230 [0 0 0 0] ------- [3:0 4:0 30 4] [60] 0 0
D 3.360025000 _0_ IFQ  --- 120 cbr 230 [0 1 0 0] ------- [0:0 2:0 30 1] [60] 0 0
D 3.360025000 _3_ IFQ  --- 121 cbr 230 [0 4 3 0] ------- [3:0 4:0 30 4] [60] 0 0
r 3.416000000 _0_ RTR  --- 122 cbr 210 [0 0 0 0] ------- [0:0 2:0 32 0] [61] 0 0
r 3.416000000 _3_ RTR  --- 123 cbr 210 [0 0 0 0] ------- [3:0 4:0 32 0] [61] 0 0
s 3.416000000 _0_ RTR  --- 122 cbr 230 [0 0 0 0] ------- [0:0 2:0 30 1] [61] 0 0
s 3.416000000 _3_ RTR  --- 123 cbr 230 [0 0 0 0] ------- [3:0 4:0 30 4] [61] 0 0
D 3.416025000 _0_ IFQ  --- 122 cbr 230 [0 1 0 0] ------- [0:0 2:0 30 1] [61] 0 0
D 3.416025000 _3_ IFQ  --- 123 cbr 230 [0 4 3 0] ------- [3:0 4:0 30 4] [61] 0 0
r 3.472000000 _0_ RTR  --- 124 cbr 210 [0 0 0 0] ------- [0:0 2:0 32 0] [62] 0 0
r 3.472000000 _3_ RTR  --- 125 cbr 210 [0 0 0 0] ------- [3:0 4:0 32 0] [62] 0 0
s 3.472000000 _0_ RTR  --- 124 cbr 230 [0 0 0 0] ------- [0:0 2:0 30 1] [62] 0 0
s 3.472000000 _3_ RTR  --- 125 cbr 230 [0 0 0 0] ------- [3:0 4:0 30 4] [62] 0 0
D 3.472025000 _0_ IFQ  --- 124 cbr 230 [0 1 0 0] ------- [0:0 2:0 30 1] [62] 0 0
D 3.472025000 _3_ IFQ  --- 125 cbr 230 [0 4 3 0] ------- [3:0 4:0 30 4] [62] 0 0
r 3.528000000 _0_ RTR  --- 126 cbr 210 [0 0 0 0] ------- [0:0 2:0 32 0] [63] 0 0
r 3.528000000 _3_ RTR  --- 127 cbr 210 [0 0 0 0] ------- [3:0 4:0 32 0] [63] 0 0
s 3.528000000 _0_ RTR  --- 126 cbr 230 [0 0 0 0] ------- [0:0 2:0 30 1] [63] 0 0
s 3.528000000 _3_ RTR  --- 127 cbr 230 [0 0 0 0] ------- [3:0 4:0 30 4] [63] 0 0
D 3.528025000 _0_ IFQ  --- 126 cbr 230 [0 1 0 0] ------- [0:0 2:0 30 1] [63] 0 0
D 3.528025000 _3_ IFQ  --- 127 cbr 230 [0 4 3 0] ------- [3:0 4:0 30 4] [63] 0 0
r 3.584000000 _0_ RTR  --- 128 cbr 210 [0 0 0 0] ------- [0:0 2:0 32 0] [64] 0 0
r 3.584000000 _3_ RTR  --- 129 cbr 210 [0 0 0 0] ------- [3:0 4:0 32 0] [64] 0 0
s 3.584000000 _0_ RTR  --- 128 cbr 230 [0 0 0 0] ------- [0:0 2:0 30 1] [64] 0 0
s 3.584000000 _3_ RTR  --- 129 cbr 230 [0 0 0 0] ------- [3:0 4:0 30 4] [64] 0 0
D 3.584025000 _0_ IFQ  --- 128 cbr 230 [0 1 0 0] ------- [0:0 2:0 30 1] [64] 0 0
D 3.584025000 _3_ IFQ  --- 129 cbr 230 [0 4 3 0] ------- [3:0 4:0 30 4] [64] 0 0
r 3.640000000 _0_ RTR  --- 130 cbr 210 [0 0 0 0] ------- [0:0 2:0 32 0] [65] 0 0
r 3.640000000 _3_ RTR  --- 131 cbr 210 [0 0 0 0] ------- [3:0 4:0 32 0] [65] 0 0
s 3.640000000 _0_ RTR  --- 130 cbr 230 [0 0 0 0] ------- [0:0 2:0 30 1] [65] 0 0
s 3.640000000 _3_ RTR  --- 131 cbr 230 [0 0 0 0] ------- [3:0 4:0 30 4] [65] 0 0
D 3.640025000 _0_ IFQ  --- 130 cbr 230 [0 1 0 0] ------- [0:0 2:0 30 1] [65] 0 0
D 3.640025000 _3_ IFQ  --- 131 cbr 230 [0 4 3 0] ------- [3:0 4:0 30 4] [65] 0 0
s 3.643992814 _4_ RTR  --- 0 AODV 44 [0 0 0 0] ------- [4:255 -1:255 1 0] [0x1 1 [4 4] 4.000000] (HELLO)
s 3.648566003 _2_ RTR  --- 0 AODV 44 [0 0 0 0] ------- [2:255 -1:255 1 0] [0x1 1 [2 6] 4.000000] (HELLO)
r 3.660409400 _3_ RTR  --- 0 AODV 44 [0 ffffffff 4 0] ------- [4:255 -1:255 1 0] [0x1 1 [4 4] 4.000000] (HELLO)
r 3.660409767 _1_ RTR  --- 0 AODV 44 [0 ffffffff 2 0] ------- [2:255 -1:255 1 0] [0x1 1 [2 6] 4.000000] (HELLO)
s 3.662215070 _0_ RTR  --- 0 AODV 44 [0 0 0 0] ------- [0:255 -1:255 1 0] [0x1 1 [0 6] 4.000000] (HELLO)
D 3.662240070 _0_ IFQ  --- 92 cbr 230 [0 1 0 0] ------- [0:0 2:0 30 1] [46] 0 0
s 3.673298764 _3_ RTR  --- 0 AODV 44 [0 0 0 0] ------- [3:255 -1:255 1 0] [0x1 1 [3 8] 4.000000] (HELLO)
D 3.673323764 _3_ IFQ  --- 93 cbr 230 [0 4 3 0] ------- [3:0 4:0 30 4] [46] 0 0