n -t * -s 0  -x 50 -y 50 -Z 0 -z 10  -v circle -c black
n -t * -s 1  -x 50 -y 250 -Z 0 -z 10  -v circle -c black
n -t * -s 2  -x 50 -y 450 -Z 0 -z 10  -v circle -c black
n -t * -s 3  -x 50 -y 650 -Z 0 -z 10  -v circle -c black
n -t * -s 4  -x 50 -y 850 -Z 0 -z 10  -v circle -c black
n -t * -s 5  -x 250 -y 50 -Z 0 -z 10  -v circle -c black
n -t * -s 6  -x 250 -y 250 -Z 0 -z 10  -v circle -c black
n -t * -s 7  -x 250 -y 450 -Z 0 -z 10  -v circle -c black
n -t * -s 8  -x 250 -y 650 -Z 0 -z 10  -v circle -c black
n -t * -s 9  -x 250 -y 850 -Z 0 -z 10  -v circle -c black
n -t * -s 10  -x 450 -y 50 -Z 0 -z 10  -v circle -c black
n -t * -s 11  -x 450 -y 250 -Z 0 -z 10  -v circle -c black
n -t * -s 12  -x 450 -y 450 -Z 0 -z 10  -v circle -c black
n -t * -s 13  -x 450 -y 650 -Z 0 -z 10  -v circle -c black
n -t * -s 14  -x 450 -y 850 -Z 0 -z 10  -v circle -c black
n -t * -s 15  -x 650 -y 50 -Z 0 -z 10  -v circle -c black
n -t * -s 16  -x 650 -y 250 -Z 0 -z 10  -v circle -c black
n -t * -s 17  -x 650 -y 450 -Z 0 -z 10  -v circle -c black
n -t * -s 18  -x 650 -y 650 -Z 0 -z 10  -v circle -c black
n -t * -s 19  -x 650 -y 850 -Z 0 -z 10  -v circle -c black
n -t * -s 20  -x 850 -y 50 -Z 0 -z 10  -v circle -c black
n -t * -s 21  -x 850 -y 250 -Z 0 -z 10  -v circle -c black
n -t * -s 22  -x 850 -y 450 -Z 0 -z 10  -v circle -c black
n -t * -s 23  -x 850 -y 650 -Z 0 -z 10  -v circle -c black
n -t * -s 24  -x 850 -y 850 -Z 0 -z 10  -v circle -c black
V -t * -v 1.0a5 -a 0
W -t * -x 1000 -y 1000
A -t * -n 1 -p 0 -o 0x7fffffff -c 30 -a 1
A -t * -h 1 -m 1073741823 -s 0
+ -t 1.244436391 -s 21 -d -1 -p cbr -e 210 -c 2 -a 0 -i 0 -k AGT 
- -t 1.244436391 -s 21 -d -1 -p cbr -e 210 -c 2 -a 0 -i 0 -k AGT
h -t 1.244436391 -s 21 -d -1 -p cbr -e 210 -c 2 -a 0 -i 0 -k AGT
+ -t 1.328436391 -s 21 -d -1 -p cbr -e 210 -c 2 -a 0 -i 1 -k AGT 
- -t 1.328436391 -s 21 -d -1 -p cbr -e 210 -c 2 -a 0 -i 1 -k AGT
h -t 1.328436391 -s 21 -d -1 -p cbr -e 210 -c 2 -a 0 -i 1 -k AGT
+ -t 1.412436391 -s 21 -d -1 -p cbr -e 210 -c 2 -a 0 -i 2 -k AGT 
- -t 1.412436391 -s 21 -d -1 -p cbr -e 210 -c 2 -a 0 -i 2 -k AGT
h -t 1.412436391 -s 21 -d -1 -p cbr -e 210 -c 2 -a 0 -i 2 -k AGT
+ -t 1.496436391 -s 21 -d -1 -p cbr -e 210 -c 2 -a 0 -i 3 -k AGT 
- -t 1.496436391 -s 21 -d -1 -p cbr -e 210 -c 2 -a 0 -i 3 -k AGT
h -t 1.496436391 -s 21 -d -1 -p cbr -e 210 -c 2 -a 0 -i 3 -k AGT
+ -t 1.580436391 -s 21 -d -1 -p cbr -e 210 -c 2 -a 0 -i 4 -k AGT 
- -t 1.580436391 -s 21 -d -1 -p cbr -e 210 -c 2 -a 0 -i 4 -k AGT
h -t 1.580436391 -s 21 -d -1 -p cbr -e 210 -c 2 -a 0 -i 4 -k AGT
+ -t 1.664436391 -s 21 -d -1 -p cbr -e 210 -c 2 -a 0 -i 5 -k AGT 
- -t 1.664436391 -s 21 -d -1 -p cbr -e 210 -c 2 -a 0 -i 5 -k AGT
h -t 1.664436391 -s 21 -d -1 -p cbr -e 210 -c 2 -a 0 -i 5 -k AGT
+ -t 1.748436391 -s 21 -d -1 -p cbr -e 210 -c 2 -a 0 -i 6 -k AGT 
- -t 1.748436391 -s 21 -d -1 -p cbr -e 210 -c 2 -a 0 -i 6 -k AGT
h -t 1.748436391 -s 21 -d -1 -p cbr -e 210 -c 2 -a 0 -i 6 -k AGT
+ -t 1.832436391 -s 21 -d -1 -p cbr -e 210 -c 2 -a 0 -i 7 -k AGT 
- -t 1.832436391 -s 21 -d -1 -p cbr -e 210 -c 2 -a 0 -i 7 -k AGT
h -t 1.832436391 -s 21 -d -1 -p cbr -e 210 -c 2 -a 0 -i 7 -k AGT
+ -t 1.916436391 -s 21 -d -1 -p cbr -e 210 -c 2 -a 0 -i 8 -k AGT 
- -t 1.916436391 -s 21 -d -1 -p cbr -e 210 -c 2 -a 0 -i 8 -k AGT
h -t 1.916436391 -s 21 -d -1 -p cbr -e 210 -c 2 -a 0 -i 8 -k AGT
r -t 1.969153667 -s 8 -d 8 -p cbr -e 230 -c 2 -a 0 -i 0 -k AGT
+ -t 2.000436391 -s 21 -d -1 -p cbr -e 210 -c 2 -a 0 -i 9 -k AGT 
- -t 2.000436391 -s 21 -d -1 -p cbr -e 210 -c 2 -a 0 -i 9 -k AGT
h -t 2.000436391 -s 21 -d -1 -p cbr -e 210 -c 2 -a 0 -i 9 -k AGT
r -t 2.029153667 -s 8 -d 8 -p cbr -e 230 -c 2 -a 0 -i 8 -k AGT
+ -t 2.084436391 -s 21 -d -1 -p cbr -e 210 -c 2 -a 0 -i 10 -k AGT 
- -t 2.084436391 -s 21 -d -1 -p cbr -e 210 -c 2 -a 0 -i 10 -k AGT
h -t 2.084436391 -s 21 -d -1 -p cbr -e 210 -c 2 -a 0 -i 10 -k AGT
r -t 2.089153667 -s 8 -d 8 -p cbr -e 230 -c 2 -a 0 -i 3 -k AGT
r -t 2.149153667 -s 8 -d 8 -p cbr -e 230 -c 2 -a 0 -i 5 -k AGT
+ -t 2.168436391 -s 21 -d -1 -p cbr -e 210 -c 2 -a 0 -i 11 -k AGT 
- -t 2.168436391 -s 21 -d -1 -p cbr -e 210 -c 2 -a 0 -i 11 -k AGT
h -t 2.168436391 -s 21 -d -1 -p cbr -e 210 -c 2 -a 0 -i 11 -k AGT
r -t 2.209153667 -s 8 -d 8 -p cbr -e 230 -c 2 -a 0 -i 7 -k AGT
+ -t 2.252436391 -s 21 -d -1 -p cbr -e 210 -c 2 -a 0 -i 12 -k AGT 
- -t 2.252436391 -s 21 -d -1 -p cbr -e 210 -c 2 -a 0 -i 12 -k AGT
h -t 2.252436391 -s 21 -d -1 -p cbr -e 210 -c 2 -a 0 -i 12 -k AGT
r -t 2.269153667 -s 8 -d 8 -p cbr -e 230 -c 2 -a 0 -i 10 -k AGT
r -t 2.329153667 -s 8 -d 8 -p cbr -e 230 -c 2 -a 0 -i 12 -k AGT
+ -t 2.336436391 -s 21 -d -1 -p cbr -e 210 -c 2 -a 0 -i 13 -k AGT 
- -t 2.336436391 -s 21 -d -1 -p cbr -e 210 -c 2 -a 0 -i 13 -k AGT
h -t 2.336436391 -s 21 -d -1 -p cbr -e 210 -c 2 -a 0 -i 13 -k AGT
r -t 2.419153667 -s 8 -d 8 -p cbr -e 230 -c 2 -a 0 -i 13 -k AGT
+ -t 2.420436391 -s 21 -d -1 -p cbr -e 210 -c 2 -a 0 -i 14 -k AGT 
- -t 2.420436391 -s 21 -d -1 -p cbr -e 210 -c 2 -a 0 -i 14 -k AGT
h -t 2.420436391 -s 21 -d -1 -p cbr -e 210 -c 2 -a 0 -i 14 -k AGT
+ -t 2.504436391 -s 21 -d -1 -p cbr -e 210 -c 2 -a 0 -i 15 -k AGT 
- -t 2.504436391 -s 21 -d -1 -p cbr -e 210 -c 2 -a 0 -i 15 -k AGT
h -t 2.504436391 -s 21 -d -1 -p cbr -e 210 -c 2 -a 0 -i 15 -k AGT
r -t 2.509153667 -s 8 -d 8 -p cbr -e 230 -c 2 -a 0 -i 14 -k AGT
r -t 2.569153667 -s 8 -d 8 -p cbr -e 230 -c 2 -a 0 -i 15 -k AGT
+ -t 2.588436391 -s 21 -d -1 -p cbr -e 210 -c 2 -a 0 -i 16 -k AGT 
- -t 2.588436391 -s 21 -d -1 -p cbr -e 210 -c 2 -a 0 -i 16 -k AGT
h -t 2.588436391 -s 21 -d -1 -p cbr -e 210 -c 2 -a 0 -i 16 -k AGT
r -t 2.659153667 -s 8 -d 8 -p cbr -e 230 -c 2 -a 0 -i 16 -k AGT
+ -t 2.672436391 -s 21 -d -1 -p cbr -e 210 -c 2 -a 0 -i 17 -k AGT 
- -t 2.672436391 -s 21 -d -1 -p cbr -e 210 -c 2 -a 0 -i 17 -k AGT
h -t 2.672436391 -s 21 -d -1 -p cbr -e 210 -c 2 -a 0 -i 17 -k AGT
r -t 2.749153667 -s 8 -d 8 -p cbr -e 230 -c 2 -a 0 -i 17 -k AGT
+ -t 2.756436391 -s 21 -d -1 -p cbr -e 210 -c 2 -a 0 -i 18 -k AGT 
- -t 2.756436391 -s 21 -d -1 -p cbr -e 210 -c 2 -a 0 -i 18 -k AGT
h -t 2.756436391 -s 21 -d -1 -p cbr -e 210 -c 2 -a 0 -i 18 -k AGT
r -t 2.839153667 -s 8 -d 8 -p cbr -e 230 -c 2 -a 0 -i 18 -k AGT
+ -t 2.840436391 -s 21 -d -1 -p cbr -e 210 -c 2 -a 0 -i 19 -k AGT 
- -t 2.840436391 -s 21 -d -1 -p cbr -e 210 -c 2 -a 0 -i 19 -k AGT
h -t 2.840436391 -s 21 -d -1 -p cbr -e 210 -c 2 -a 0 -i 19 -k AGT
+ -t 2.924436391 -s 21 -d -1 -p cbr -e 210 -c 2 -a 0 -i 20 -k AGT 
- -t 2.924436391 -s 21 -d -1 -p cbr -e 210 -c 2 -a 0 -i 20 -k AGT
h -t 2.924436391 -s 21 -d -1 -p cbr -e 210 -c 2 -a 0 -i 20 -k AGT
r -t 2.959153667 -s 8 -d 8 -p cbr -e 230 -c 2 -a 0 -i 19 -k AGT
+ -t 3.008436391 -s 21 -d -1 -p cbr -e 210 -c 2 -a 0 -i 21 -k AGT 
- -t 3.008436391 -s 21 -d -1 -p cbr -e 210 -c 2 -a 0 -i 21 -k AGT
h -t 3.008436391 -s 21 -d -1 -p cbr -e 210 -c 2 -a 0 -i 21 -k AGT
r -t 3.079153667 -s 8 -d 8 -p cbr -e 230 -c 2 -a 0 -i 21 -k AGT
+ -t 3.092436391 -s 21 -d -1 -p cbr -e 210 -c 2 -a 0 -i 22 -k AGT 
- -t 3.092436391 -s 21 -d -1 -p cbr -e 210 -c 2 -a 0 -i 22 -k AGT
h -t 3.092436391 -s 21 -d -1 -p cbr -e 210 -c 2 -a 0 -i 22 -k AGT
r -t 3.169153667 -s 8 -d 8 -p cbr -e 230 -c 2 -a 0 -i 22 -k AGT
+ -t 3.176436391 -s 21 -d -1 -p cbr -e 210 -c 2 -a 0 -i 23 -k AGT 
- -t 3.176436391 -s 21 -d -1 -p cbr -e 210 -c 2 -a 0 -i 23 -k AGT
h -t 3.176436391 -s 21 -d -1 -p cbr -e 210 -c 2 -a 0 -i 23 -k AGT
r -t 3.259153667 -s 8 -d 8 -p cbr -e 230 -c 2 -a 0 -i 23 -k AGT
+ -t 3.260436391 -s 21 -d -1 -p cbr -e 210 -c 2 -a 0 -i 24 -k AGT 
- -t 3.260436391 -s 21 -d -1 -p cbr -e 210 -c 2 -a 0 -i 24 -k AGT
h -t 3.260436391 -s 21 -d -1 -p cbr -e 210 -c 2 -a 0 -i 24 -k AGT
+ -t 3.344436391 -s 21 -d -1 -p cbr -e 210 -c 2 -a 0 -i 25 -k AGT 
- -t 3.344436391 -s 21 -d -1 -p cbr -e 210 -c 2 -a 0 -i 25 -k AGT
h -t 3.344436391 -s 21 -d -1 -p cbr -e 210 -c 2 -a 0 -i 25 -k AGT
r -t 3.349153667 -s 8 -d 8 -p cbr -e 230 -c 2 -a 0 -i 24 -k AGT
r -t 3.409153667 -s 8 -d 8 -p cbr -e 230 -c 2 -a 0 -i 25 -k AGT
+ -t 3.428436391 -s 21 -d -1 -p cbr -e 210 -c 2 -a 0 -i 26 -k AGT 
- -t 3.428436391 -s 21 -d -1 -p cbr -e 210 -c 2 -a 0 -i 26 -k AGT
h -t 3.428436391 -s 21 -d -1 -p cbr -e 210 -c 2 -a 0 -i 26 -k AGT
r -t 3.499153667 -s 8 -d 8 -p cbr -e 230 -c 2 -a 0 -i 26 -k AGT
+ -t 3.512436391 -s 21 -d -1 -p cbr -e 210 -c 2 -a 0 -i 27 -k AGT 
- -t 3.512436391 -s 21 -d -1 -p cbr -e 210 -c 2 -a 0 -i 27 -k AGT
h -t 3.512436391 -s 21 -d -1 -p cbr -e 210 -c 2 -a 0 -i 27 -k AGT
r -t 3.589153667 -s 8 -d 8 -p cbr -e 230 -c 2 -a 0 -i 27 -k AGT
+ -t 3.596436391 -s 21 -d -1 -p cbr -e 210 -c 2 -a 0 -i 28 -k AGT 
- -t 3.596436391 -s 21 -d -1 -p cbr -e 210 -c 2 -a 0 -i 28 -k AGT
h -t 3.596436391 -s 21 -d -1 -p cbr -e 210 -c 2 -a 0 -i 28 -k AGT
r -t 3.679153667 -s 8 -d 8 -p cbr -e 230 -c 2 -a 0 -i 28 -k AGT
+ -t 3.680436391 -s 21 -d -1 -p cbr -e 210 -c 2 -a 0 -i 29 -k AGT 
- -t 3.680436391 -s 21 -d -1 -p cbr -e 210 -c 2 -a 0 -i 29 -k AGT
h -t 3.680436391 -s 21 -d -1 -p cbr -e 210 -c 2 -a 0 -i 29 -k AGT
+ -t 3.764436391 -s 21 -d -1 -p cbr -e 210 -c 2 -a 0 -i 30 -k AGT 
- -t 3.764436391 -s 21 -d -1 -p cbr -e 210 -c 2 -a 0 -i 30 -k AGT
h -t 3.764436391 -s 21 -d -1 -p cbr -e 210 -c 2 -a 0 -i 30 -k AGT
r -t 3.769153667 -s 8 -d 8 -p cbr -e 230 -c 2 -a 0 -i 29 -k AGT
r -t 3.829153667 -s 8 -d 8 -p cbr -e 230 -c 2 -a 0 -i 30 -k AGT
+ -t 3.848436391 -s 21 -d -1 -p cbr -e 210 -c 2 -a 0 -i 31 -k AGT 
- -t 3.848436391 -s 21 -d -1 -p cbr -e 210 -c 2 -a 0 -i 31 -k AGT
h -t 3.848436391 -s 21 -d -1 -p cbr -e 210 -c 2 -a 0 -i 31 -k AGT
r -t 3.919153667 -s 8 -d 8 -p cbr -e 230 -c 2 -a 0 -i 31 -k AGT
+ -t 3.932436391 -s 21 -d -1 -p cbr -e 210 -c 2 -a 0 -i 32 -k AGT 
- -t 3.932436391 -s 21 -d -1 -p cbr -e 210 -c 2 -a 0 -i 32 -k AGT
h -t 3.932436391 -s 21 -d -1 -p cbr -e 210 -c 2 -a 0 -i 32 -k AGT
r -t 4.009153667 -s 8 -d 8 -p cbr -e 230 -c 2 -a 0 -i 32 -k AGT
+ -t 4.016436391 -s 21 -d -1 -p cbr -e 210 -c 2 -a 0 -i 33 -k AGT 
- -t 4.016436391 -s 21 -d -1 -p cbr -e 210 -c 2 -a 0 -i 33 -k AGT
h -t 4.016436391 -s 21 -d -1 -p cbr -e 210 -c 2 -a 0 -i 33 -k AGT
r -t 4.099153667 -s 8 -d 8 -p cbr -e 230 -c 2 -a 0 -i 33 -k AGT
+ -t 4.100436391 -s 21 -d -1 -p cbr -e 210 -c 2 -a 0 -i 34 -k AGT 
- -t 4.100436391 -s 21 -d -1 -p cbr -e 210 -c 2 -a 0 -i 34 -k AGT
h -t 4.100436391 -s 21 -d -1 -p cbr -e 210 -c 2 -a 0 -i 34 -k AGT
+ -t 4.184436391 -s 21 -d -1 -p cbr -e 210 -c 2 -a 0 -i 35 -k AGT 
- -t 4.184436391 -s 21 -d -1 -p cbr -e 210 -c 2 -a 0 -i 35 -k AGT
h -t 4.184436391 -s 21 -d -1 -p cbr -e 210 -c 2 -a 0 -i 35 -k AGT
r -t 4.189153667 -s 8 -d 8 -p cbr -e 230 -c 2 -a 0 -i 34 -k AGT
r -t 4.249153667 -s 8 -d 8 -p cbr -e 230 -c 2 -a 0 -i 35 -k AGT
+ -t 4.268436391 -s 21 -d -1 -p cbr -e 210 -c 2 -a 0 -i 36 -k AGT 
- -t 4.268436391 -s 21 -d -1 -p cbr -e 210 -c 2 -a 0 -i 36 -k AGT
h -t 4.268436391 -s 21 -d -1 -p cbr -e 210 -c 2 -a 0 -i 36 -k AGT
r -t 4.339153667 -s 8 -d 8 -p cbr -e 230 -c 2 -a 0 -i 36 -k AGT
+ -t 4.352436391 -s 21 -d -1 -p cbr -e 210 -c 2 -a 0 -i 37 -k AGT 
- -t 4.352436391 -s 21 -d -1 -p cbr -e 210 -c 2 -a 0 -i 37 -k AGT
h -t 4.352436391 -s 21 -d -1 -p cbr -e 210 -c 2 -a 0 -i 37 -k AGT
r -t 4.429153667 -s 8 -d 8 -p cbr -e 230 -c 2 -a 0 -i 37 -k AGT
+ -t 4.436436391 -s 21 -d -1 -p cbr -e 210 -c 2 -a 0 -i 38 -k AGT 
- -t 4.436436391 -s 21 -d -1 -p cbr -e 210 -c 2 -a 0 -i 38 -k AGT
h -t 4.436436391 -s 21 -d -1 -p cbr -e 210 -c 2 -a 0 -i 38 -k AGT
r -t 4.519153667 -s 8 -d 8 -p cbr -e 230 -c 2 -a 0 -i 38 -k AGT
+ -t 4.520436391 -s 21 -d -1 -p cbr -e 210 -c 2 -a 0 -i 39 -k AGT 
- -t 4.520436391 -s 21 -d -1 -p cbr -e 210 -c 2 -a 0 -i 39 -k AGT
h -t 4.520436391 -s 21 -d -1 -p cbr -e 210 -c 2 -a 0 -i 39 -k AGT
+ -t 4.604436391 -s 21 -d -1 -p cbr -e 210 -c 2 -a 0 -i 40 -k AGT 
- -t 4.604436391 -s 21 -d -1 -p cbr -e 210 -c 2 -a 0 -i 40 -k AGT
h -t 4.604436391 -s 21 -d -1 -p cbr -e 210 -c 2 -a 0 -i 40 -k AGT
r -t 4.609153667 -s 8 -d 8 -p cbr -e 230 -c 2 -a 0 -i 39 -k AGT
r -t 4.669153667 -s 8 -d 8 -p cbr -e 230 -c 2 -a 0 -i 40 -k AGT
+ -t 4.688436391 -s 21 -d -1 -p cbr -e 210 -c 2 -a 0 -i 41 -k AGT 
- -t 4.688436391 -s 21 -d -1 -p cbr -e 210 -c 2 -a 0 -i 41 -k AGT
h -t 4.688436391 -s 21 -d -1 -p cbr -e 210 -c 2 -a 0 -i 41 -k AGT
r -t 4.759153667 -s 8 -d 8 -p cbr -e 230 -c 2 -a 0 -i 41 -k AGT
+ -t 4.772436391 -s 21 -d -1 -p cbr -e 210 -c 2 -a 0 -i 42 -k AGT 
- -t 4.772436391 -s 21 -d -1 -p cbr -e 210 -c 2 -a 0 -i 42 -k AGT
h -t 4.772436391 -s 21 -d -1 -p cbr -e 210 -c 2 -a 0 -i 42 -k AGT
r -t 4.849153667 -s 8 -d 8 -p cbr -e 230 -c 2 -a 0 -i 42 -k AGT
+ -t 4.856436391 -s 21 -d -1 -p cbr -e 210 -c 2 -a 0 -i 43 -k AGT 
- -t 4.856436391 -s 21 -d -1 -p cbr -e 210 -c 2 -a 0 -i 43 -k AGT
h -t 4.856436391 -s 21 -d -1 -p cbr -e 210 -c 2 -a 0 -i 43 -k AGT
r -t 4.939153667 -s 8 -d 8 -p cbr -e 230 -c 2 -a 0 -i 43 -k AGT
+ -t 4.940436391 -s 21 -d -1 -p cbr -e 210 -c 2 -a 0 -i 44 -k AGT 
- -t 4.940436391 -s 21 -d -1 -p cbr -e 210 -c 2 -a 0 -i 44 -k AGT
h -t 4.940436391 -s 21 -d -1 -p cbr -e 210 -c 2 -a 0 -i 44 -k AGT
+ -t 5.024436391 -s 21 -d -1 -p cbr -e 210 -c 2 -a 0 -i 45 -k AGT 
- -t 5.024436391 -s 21 -d -1 -p cbr -e 210 -c 2 -a 0 -i 45 -k AGT
h -t 5.024436391 -s 21 -d -1 -p cbr -e 210 -c 2 -a 0 -i 45 -k AGT
r -t 5.029153667 -s 8 -d 8 -p cbr -e 230 -c 2 -a 0 -i 44 -k AGT
r -t 5.089153667 -s 8 -d 8 -p cbr -e 230 -c 2 -a 0 -i 45 -k AGT
+ -t 5.108436391 -s 21 -d -1 -p cbr -e 210 -c 2 -a 0 -i 46 -k AGT 
- -t 5.108436391 -s 21 -d -1 -p cbr -e 210 -c 2 -a 0 -i 46 -k AGT
h -t 5.108436391 -s 21 -d -1 -p cbr -e 210 -c 2 -a 0 -i 46 -k AGT
r -t 5.179153667 -s 8 -d 8 -p cbr -e 230 -c 2 -a 0 -i 46 -k AGT
+ -t 5.192436391 -s 21 -d -1 -p cbr -e 210 -c 2 -a 0 -i 47 -k AGT 
- -t 5.192436391 -s 21 -d -1 -p cbr -e 210 -c 2 -a 0 -i 47 -k AGT
h -t 5.192436391 -s 21 -d -1 -p cbr -e 210 -c 2 -a 0 -i 47 -k AGT
r -t 5.269153667 -s 8 -d 8 -p cbr -e 230 -c 2 -a 0 -i 47 -k AGT
+ -t 5.276436391 -s 21 -d -1 -p cbr -e 210 -c 2 -a 0 -i 48 -k AGT 
- -t 5.276436391 -s 21 -d -1 -p cbr -e 210 -c 2 -a 0 -i 48 -k AGT
h -t 5.276436391 -s 21 -d -1 -p cbr -e 210 -c 2 -a 0 -i 48 -k AGT
r -t 5.359153667 -s 8 -d 8 -p cbr -e 230 -c 2 -a 0 -i 48 -k AGT
+ -t 5.360436391 -s 21 -d -1 -p cbr -e 210 -c 2 -a 0 -i 49 -k AGT 
- -t 5.360436391 -s 21 -d -1 -p cbr -e 210 -c 2 -a 0 -i 49 -k AGT
h -t 5.360436391 -s 21 -d -1 -p cbr -e 210 -c 2 -a 0 -i 49 -k AGT
+ -t 5.444436391 -s 21 -d -1 -p cbr -e 210 -c 2 -a 0 -i 50 -k AGT 
- -t 5.444436391 -s 21 -d -1 -p cbr -e 210 -c 2 -a 0 -i 50 -k AGT
h -t 5.444436391 -s 21 -d -1 -p cbr -e 210 -c 2 -a 0 -i 50 -k AGT
r -t 5.449153667 -s 8 -d 8 -p cbr -e 230 -c 2 -a 0 -i 49 -k AGT
r -t 5.509153667 -s 8 -d 8 -p cbr -e 230 -c 2 -a 0 -i 50 -k AGT
+ -t 5.528436391 -s 21 -d -1 -p cbr -e 210 -c 2 -a 0 -i 51 -k AGT 
- -t 5.528436391 -s 21 -d -1 -p cbr -e 210 -c 2 -a 0 -i 51 -k AGT
h -t 5.528436391 -s 21 -d -1 -p cbr -e 210 -c 2 -a 0 -i 51 -k AGT
r -t 5.599153667 -s 8 -d 8 -p cbr -e 230 -c 2 -a 0 -i 51 -k AGT
+ -t 5.612436391 -s 21 -d -1 -p cbr -e 210 -c 2 -a 0 -i 52 -k AGT 
- -t 5.612436391 -s 21 -d -1 -p cbr -e 210 -c 2 -a 0 -i 52 -k AGT
h -t 5.612436391 -s 21 -d -1 -p cbr -e 210 -c 2 -a 0 -i 52 -k AGT
+ -t 5.696436391 -s 21 -d -1 -p cbr -e 210 -c 2 -a 0 -i 53 -k AGT 
- -t 5.696436391 -s 21 -d -1 -p cbr -e 210 -c 2 -a 0 -i 53 -k AGT
h -t 5.696436391 -s 21 -d -1 -p cbr -e 210 -c 2 -a 0 -i 53 -k AGT
r -t 5.719153667 -s 8 -d 8 -p cbr -e 230 -c 2 -a 0 -i 52 -k AGT
r -t 5.779153667 -s 8 -d 8 -p cbr -e 230 -c 2 -a 0 -i 53 -k AGT
+ -t 5.780436391 -s 21 -d -1 -p cbr -e 210 -c 2 -a 0 -i 54 -k AGT 
- -t 5.780436391 -s 21 -d -1 -p cbr -e 210 -c 2 -a 0 -i 54 -k AGT
h -t 5.780436391 -s 21 -d -1 -p cbr -e 210 -c 2 -a 0 -i 54 -k AGT
+ -t 5.864436391 -s 21 -d -1 -p cbr -e 210 -c 2 -a 0 -i 55 -k AGT 
- -t 5.864436391 -s 21 -d -1 -p cbr -e 210 -c 2 -a 0 -i 55 -k AGT
h -t 5.864436391 -s 21 -d -1 -p cbr -e 210 -c 2 -a 0 -i 55 -k AGT
r -t 5.869153667 -s 8 -d 8 -p cbr -e 230 -c 2 -a 0 -i 54 -k AGT
+ -t 5.948436391 -s 21 -d -1 -p cbr -e 210 -c 2 -a 0 -i 56 -k AGT 
- -t 5.948436391 -s 21 -d -1 -p cbr -e 210 -c 2 -a 0 -i 56 -k AGT
h -t 5.948436391 -s 21 -d -1 -p cbr -e 210 -c 2 -a 0 -i 56 -k AGT
r -t 5.959153667 -s 8 -d 8 -p cbr -e 230 -c 2 -a 0 -i 55 -k AGT
r -t 6.019153667 -s 8 -d 8 -p cbr -e 230 -c 2 -a 0 -i 56 -k AGT
+ -t 6.032436391 -s 21 -d -1 -p cbr -e 210 -c 2 -a 0 -i 57 -k AGT 
- -t 6.032436391 -s 21 -d -1 -p cbr -e 210 -c 2 -a 0 -i 57 -k AGT
h -t 6.032436391 -s 21 -d -1 -p cbr -e 210 -c 2 -a 0 -i 57 -k AGT
r -t 6.109153667 -s 8 -d 8 -p cbr -e 230 -c 2 -a 0 -i 57 -k AGT
+ -t 6.116436391 -s 21 -d -1 -p cbr -e 210 -c 2 -a 0 -i 58 -k AGT 
- -t 6.116436391 -s 21 -d -1 -p cbr -e 210 -c 2 -a 0 -i 58 -k AGT
h -t 6.116436391 -s 21 -d -1 -p cbr -e 210 -c 2 -a 0 -i 58 -k AGT
r -t 6.199153667 -s 8 -d 8 -p cbr -e 230 -c 2 -a 0 -i 58 -k AGT
+ -t 6.200436391 -s 21 -d -1 -p cbr -e 210 -c 2 -a 0 -i 59 -k AGT 
- -t 6.200436391 -s 21 -d -1 -p cbr -e 210 -c 2 -a 0 -i 59 -k AGT
h -t 6.200436391 -s 21 -d -1 -p cbr -e 210 -c 2 -a 0 -i 59 -k AGT
+ -t 6.284436391 -s 21 -d -1 -p cbr -e 210 -c 2 -a 0 -i 60 -k AGT 
- -t 6.284436391 -s 21 -d -1 -p cbr -e 210 -c 2 -a 0 -i 60 -k AGT
h -t 6.284436391 -s 21 -d -1 -p cbr -e 210 -c 2 -a 0 -i 60 -k AGT
r -t 6.289153667 -s 8 -d 8 -p cbr -e 230 -c 2 -a 0 -i 59 -k AGT
r -t 6.349153667 -s 8 -d 8 -p cbr -e 230 -c 2 -a 0 -i 60 -k AGT
+ -t 6.368436391 -s 21 -d -1 -p cbr -e 210 -c 2 -a 0 -i 61 -k AGT 
- -t 6.368436391 -s 21 -d -1 -p cbr -e 210 -c 2 -a 0 -i 61 -k AGT
h -t 6.368436391 -s 21 -d -1 -p cbr -e 210 -c 2 -a 0 -i 61 -k AGT
r -t 6.439153667 -s 8 -d 8 -p cbr -e 230 -c 2 -a 0 -i 61 -k AGT
+ -t 6.452371835 -s 15 -d -1 -p cbr -e 210 -c 2 -a 0 -i 62 -k AGT 
- -t 6.452371835 -s 15 -d -1 -p cbr -e 210 -c 2 -a 0 -i 62 -k AGT
h -t 6.452371835 -s 15 -d -1 -p cbr -e 210 -c 2 -a 0 -i 62 -k AGT
+ -t 6.452436391 -s 21 -d -1 -p cbr -e 210 -c 2 -a 0 -i 63 -k AGT 
- -t 6.452436391 -s 21 -d -1 -p cbr -e 210 -c 2 -a 0 -i 63 -k AGT
h -t 6.452436391 -s 21 -d -1 -p cbr -e 210 -c 2 -a 0 -i 63 -k AGT
r -t 6.529153667 -s 8 -d 8 -p cbr -e 230 -c 2 -a 0 -i 63 -k AGT
+ -t 6.536371835 -s 15 -d -1 -p cbr -e 210 -c 2 -a 0 -i 64 -k AGT 
- -t 6.536371835 -s 15 -d -1 -p cbr -e 210 -c 2 -a 0 -i 64 -k AGT
h -t 6.536371835 -s 15 -d -1 -p cbr -e 210 -c 2 -a 0 -i 64 -k AGT
+ -t 6.536436391 -s 21 -d -1 -p cbr -e 210 -c 2 -a 0 -i 65 -k AGT 
- -t 6.536436391 -s 21 -d -1 -p cbr -e 210 -c 2 -a 0 -i 65 -k AGT
h -t 6.536436391 -s 21 -d -1 -p cbr -e 210 -c 2 -a 0 -i 65 -k AGT
r -t 6.619153667 -s 8 -d 8 -p cbr -e 230 -c 2 -a 0 -i 65 -k AGT
+ -t 6.620371835 -s 15 -d -1 -p cbr -e 210 -c 2 -a 0 -i 66 -k AGT 
- -t 6.620371835 -s 15 -d -1 -p cbr -e 210 -c 2 -a 0 -i 66 -k AGT
h -t 6.620371835 -s 15 -d -1 -p cbr -e 210 -c 2 -a 0 -i 66 -k AGT
+ -t 6.620436391 -s 21 -d -1 -p cbr -e 210 -c 2 -a 0 -i 67 -k AGT 
- -t 6.620436391 -s 21 -d -1 -p cbr -e 210 -c 2 -a 0 -i 67 -k AGT
h -t 6.620436391 -s 21 -d -1 -p cbr -e 210 -c 2 -a 0 -i 67 -k AGT
+ -t 6.704371835 -s 15 -d -1 -p cbr -e 210 -c 2 -a 0 -i 68 -k AGT 
- -t 6.704371835 -s 15 -d -1 -p cbr -e 210 -c 2 -a 0 -i 68 -k AGT
h -t 6.704371835 -s 15 -d -1 -p cbr -e 210 -c 2 -a 0 -i 68 -k AGT
+ -t 6.704436391 -s 21 -d -1 -p cbr -e 210 -c 2 -a 0 -i 69 -k AGT 
- -t 6.704436391 -s 21 -d -1 -p cbr -e 210 -c 2 -a 0 -i 69 -k AGT
h -t 6.704436391 -s 21 -d -1 -p cbr -e 210 -c 2 -a 0 -i 69 -k AGT
r -t 6.709153667 -s 8 -d 8 -p cbr -e 230 -c 2 -a 0 -i 67 -k AGT
r -t 6.769153667 -s 8 -d 8 -p cbr -e 230 -c 2 -a 0 -i 69 -k AGT
+ -t 6.788371835 -s 15 -d -1 -p cbr -e 210 -c 2 -a 0 -i 70 -k AGT 
- -t 6.788371835 -s 15 -d -1 -p cbr -e 210 -c 2 -a 0 -i 70 -k AGT
h -t 6.788371835 -s 15 -d -1 -p cbr -e 210 -c 2 -a 0 -i 70 -k AGT
+ -t 6.788436391 -s 21 -d -1 -p cbr -e 210 -c 2 -a 0 -i 71 -k AGT 
- -t 6.788436391 -s 21 -d -1 -p cbr -e 210 -c 2 -a 0 -i 71 -k AGT
h -t 6.788436391 -s 21 -d -1 -p cbr -e 210 -c 2 -a 0 -i 71 -k AGT
+ -t 6.789402993 -s 3 -d -1 -p cbr -e 210 -c 2 -a 0 -i 72 -k AGT 
- -t 6.789402993 -s 3 -d -1 -p cbr -e 210 -c 2 -a 0 -i 72 -k AGT
h -t 6.789402993 -s 3 -d -1 -p cbr -e 210 -c 2 -a 0 -i 72 -k AGT
r -t 6.859153667 -s 8 -d 8 -p cbr -e 230 -c 2 -a 0 -i 71 -k AGT
+ -t 6.872371835 -s 15 -d -1 -p cbr -e 210 -c 2 -a 0 -i 73 -k AGT 
- -t 6.872371835 -s 15 -d -1 -p cbr -e 210 -c 2 -a 0 -i 73 -k AGT
h -t 6.872371835 -s 15 -d -1 -p cbr -e 210 -c 2 -a 0 -i 73 -k AGT
+ -t 6.872436391 -s 21 -d -1 -p cbr -e 210 -c 2 -a 0 -i 74 -k AGT 
- -t 6.872436391 -s 21 -d -1 -p cbr -e 210 -c 2 -a 0 -i 74 -k AGT
h -t 6.872436391 -s 21 -d -1 -p cbr -e 210 -c 2 -a 0 -i 74 -k AGT
+ -t 6.873402993 -s 3 -d -1 -p cbr -e 210 -c 2 -a 0 -i 75 -k AGT 
- -t 6.873402993 -s 3 -d -1 -p cbr -e 210 -c 2 -a 0 -i 75 -k AGT
h -t 6.873402993 -s 3 -d -1 -p cbr -e 210 -c 2 -a 0 -i 75 -k AGT
r -t 6.949153667 -s 8 -d 8 -p cbr -e 230 -c 2 -a 0 -i 74 -k AGT
+ -t 6.956371835 -s 15 -d -1 -p cbr -e 210 -c 2 -a 0 -i 76 -k AGT 
- -t 6.956371835 -s 15 -d -1 -p cbr -e 210 -c 2 -a 0 -i 76 -k AGT
h -t 6.956371835 -s 15 -d -1 -p cbr -e 210 -c 2 -a 0 -i 76 -k AGT
+ -t 6.956436391 -s 21 -d -1 -p cbr -e 210 -c 2 -a 0 -i 77 -k AGT 
- -t 6.956436391 -s 21 -d -1 -p cbr -e 210 -c 2 -a 0 -i 77 -k AGT
h -t 6.956436391 -s 21 -d -1 -p cbr -e 210 -c 2 -a 0 -i 77 -k AGT
+ -t 6.957402993 -s 3 -d -1 -p cbr -e 210 -c 2 -a 0 -i 78 -k AGT 
- -t 6.957402993 -s 3 -d -1 -p cbr -e 210 -c 2 -a 0 -i 78 -k AGT
h -t 6.957402993 -s 3 -d -1 -p cbr -e 210 -c 2 -a 0 -i 78 -k AGT
r -t 7.039153667 -s 8 -d 8 -p cbr -e 230 -c 2 -a 0 -i 77 -k AGT
+ -t 7.040371835 -s 15 -d -1 -p cbr -e 210 -c 2 -a 0 -i 79 -k AGT 
- -t 7.040371835 -s 15 -d -1 -p cbr -e 210 -c 2 -a 0 -i 79 -k AGT
h -t 7.040371835 -s 15 -d -1 -p cbr -e 210 -c 2 -a 0 -i 79 -k AGT
+ -t 7.040436391 -s 21 -d -1 -p cbr -e 210 -c 2 -a 0 -i 80 -k AGT 
- -t 7.040436391 -s 21 -d -1 -p cbr -e 210 -c 2 -a 0 -i 80 -k AGT
h -t 7.040436391 -s 21 -d -1 -p cbr -e 210 -c 2 -a 0 -i 80 -k AGT
+ -t 7.041402993 -s 3 -d -1 -p cbr -e 210 -c 2 -a 0 -i 81 -k AGT 
- -t 7.041402993 -s 3 -d -1 -p cbr -e 210 -c 2 -a 0 -i 81 -k AGT
h -t 7.041402993 -s 3 -d -1 -p cbr -e 210 -c 2 -a 0 -i 81 -k AGT
+ -t 7.124371835 -s 15 -d -1 -p cbr -e 210 -c 2 -a 0 -i 82 -k AGT 
- -t 7.124371835 -s 15 -d -1 -p cbr -e 210 -c 2 -a 0 -i 82 -k AGT
h -t 7.124371835 -s 15 -d -1 -p cbr -e 210 -c 2 -a 0 -i 82 -k AGT
+ -t 7.124436391 -s 21 -d -1 -p cbr -e 210 -c 2 -a 0 -i 83 -k AGT 
- -t 7.124436391 -s 21 -d -1 -p cbr -e 210 -c 2 -a 0 -i 83 -k AGT
h -t 7.124436391 -s 21 -d -1 -p cbr -e 210 -c 2 -a 0 -i 83 -k AGT
+ -t 7.125402993 -s 3 -d -1 -p cbr -e 210 -c 2 -a 0 -i 84 -k AGT 
- -t 7.125402993 -s 3 -d -1 -p cbr -e 210 -c 2 -a 0 -i 84 -k AGT
h -t 7.125402993 -s 3 -d -1 -p cbr -e 210 -c 2 -a 0 -i 84 -k AGT
r -t 7.129153667 -s 8 -d 8 -p cbr -e 230 -c 2 -a 0 -i 80 -k AGT
r -t 7.189153667 -s 8 -d 8 -p cbr -e 230 -c 2 -a 0 -i 83 -k AGT
+ -t 7.208371835 -s 15 -d -1 -p cbr -e 210 -c 2 -a 0 -i 85 -k AGT 
- -t 7.208371835 -s 15 -d -1 -p cbr -e 210 -c 2 -a 0 -i 85 -k AGT
h -t 7.208371835 -s 15 -d -1 -p cbr -e 210 -c 2 -a 0 -i 85 -k AGT
+ -t 7.208436391 -s 21 -d -1 -p cbr -e 210 -c 2 -a 0 -i 86 -k AGT 
- -t 7.208436391 -s 21 -d -1 -p cbr -e 210 -c 2 -a 0 -i 86 -k AGT
h -t 7.208436391 -s 21 -d -1 -p cbr -e 210 -c 2 -a 0 -i 86 -k AGT
+ -t 7.209402993 -s 3 -d -1 -p cbr -e 210 -c 2 -a 0 -i 87 -k AGT 
- -t 7.209402993 -s 3 -d -1 -p cbr -e 210 -c 2 -a 0 -i 87 -k AGT
h -t 7.209402993 -s 3 -d -1 -p cbr -e 210 -c 2 -a 0 -i 87 -k AGT
r -t 7.279153667 -s 8 -d 8 -p cbr -e 230 -c 2 -a 0 -i 86 -k AGT
+ -t 7.292371835 -s 15 -d -1 -p cbr -e 210 -c 2 -a 0 -i 88 -k AGT 
- -t 7.292371835 -s 15 -d -1 -p cbr -e 210 -c 2 -a 0 -i 88 -k AGT
h -t 7.292371835 -s 15 -d -1 -p cbr -e 210 -c 2 -a 0 -i 88 -k AGT
+ -t 7.292436391 -s 21 -d -1 -p cbr -e 210 -c 2 -a 0 -i 89 -k AGT 
- -t 7.292436391 -s 21 -d -1 -p cbr -e 210 -c 2 -a 0 -i 89 -k AGT
h -t 7.292436391 -s 21 -d -1 -p cbr -e 210 -c 2 -a 0 -i 89 -k AGT
+ -t 7.293402993 -s 3 -d -1 -p cbr -e 210 -c 2 -a 0 -i 90 -k AGT 
- -t 7.293402993 -s 3 -d -1 -p cbr -e 210 -c 2 -a 0 -i 90 -k AGT
h -t 7.293402993 -s 3 -d -1 -p cbr -e 210 -c 2 -a 0 -i 90 -k AGT
+ -t 7.350299464 -s 9 -d -1 -p cbr -e 210 -c 2 -a 0 -i 91 -k AGT 
- -t 7.350299464 -s 9 -d -1 -p cbr -e 210 -c 2 -a 0 -i 91 -k AGT
h -t 7.350299464 -s 9 -d -1 -p cbr -e 210 -c 2 -a 0 -i 91 -k AGT
r -t 7.369153667 -s 8 -d 8 -p cbr -e 230 -c 2 -a 0 -i 89 -k AGT
+ -t 7.376371835 -s 15 -d -1 -p cbr -e 210 -c 2 -a 0 -i 92 -k AGT 
- -t 7.376371835 -s 15 -d -1 -p cbr -e 210 -c 2 -a 0 -i 92 -k AGT
h -t 7.376371835 -s 15 -d -1 -p cbr -e 210 -c 2 -a 0 -i 92 -k AGT
+ -t 7.376436391 -s 21 -d -1 -p cbr -e 210 -c 2 -a 0 -i 93 -k AGT 
- -t 7.376436391 -s 21 -d -1 -p cbr -e 210 -c 2 -a 0 -i 93 -k AGT
h -t 7.376436391 -s 21 -d -1 -p cbr -e 210 -c 2 -a 0 -i 93 -k AGT
+ -t 7.377402993 -s 3 -d -1 -p cbr -e 210 -c 2 -a 0 -i 94 -k AGT 
- -t 7.377402993 -s 3 -d -1 -p cbr -e 210 -c 2 -a 0 -i 94 -k AGT
h -t 7.377402993 -s 3 -d -1 -p cbr -e 210 -c 2 -a 0 -i 94 -k AGT
+ -t 7.434299464 -s 9 -d -1 -p cbr -e 210 -c 2 -a 0 -i 95 -k AGT 
- -t 7.434299464 -s 9 -d -1 -p cbr -e 210 -c 2 -a 0 -i 95 -k AGT
h -t 7.434299464 -s 9 -d -1 -p cbr -e 210 -c 2 -a 0 -i 95 -k AGT
r -t 7.459153667 -s 8 -d 8 -p cbr -e 230 -c 2 -a 0 -i 93 -k AGT
+ -t 7.460371835 -s 15 -d -1 -p cbr -e 210 -c 2 -a 0 -i 96 -k AGT 
- -t 7.460371835 -s 15 -d -1 -p cbr -e 210 -c 2 -a 0 -i 96 -k AGT
h -t 7.460371835 -s 15 -d -1 -p cbr -e 210 -c 2 -a 0 -i 96 -k AGT
+ -t 7.460436391 -s 21 -d -1 -p cbr -e 210 -c 2 -a 0 -i 97 -k AGT 
- -t 7.460436391 -s 21 -d -1 -p cbr -e 210 -c 2 -a 0 -i 97 -k AGT
h -t 7.460436391 -s 21 -d -1 -p cbr -e 210 -c 2 -a 0 -i 97 -k AGT
+ -t 7.461402993 -s 3 -d -1 -p cbr -e 210 -c 2 -a 0 -i 98 -k AGT 
- -t 7.461402993 -s 3 -d -1 -p cbr -e 210 -c 2 -a 0 -i 98 -k AGT
h -t 7.461402993 -s 3 -d -1 -p cbr -e 210 -c 2 -a 0 -i 98 -k AGT
+ -t 7.518299464 -s 9 -d -1 -p cbr -e 210 -c 2 -a 0 -i 99 -k AGT 
- -t 7.518299464 -s 9 -d -1 -p cbr -e 210 -c 2 -a 0 -i 99 -k AGT
h -t 7.518299464 -s 9 -d -1 -p cbr -e 210 -c 2 -a 0 -i 99 -k AGT
+ -t 7.544371835 -s 15 -d -1 -p cbr -e 210 -c 2 -a 0 -i 100 -k AGT 
- -t 7.544371835 -s 15 -d -1 -p cbr -e 210 -c 2 -a 0 -i 100 -k AGT
h -t 7.544371835 -s 15 -d -1 -p cbr -e 210 -c 2 -a 0 -i 100 -k AGT
+ -t 7.544436391 -s 21 -d -1 -p cbr -e 210 -c 2 -a 0 -i 101 -k AGT 
- -t 7.544436391 -s 21 -d -1 -p cbr -e 210 -c 2 -a 0 -i 101 -k AGT
h -t 7.544436391 -s 21 -d -1 -p cbr -e 210 -c 2 -a 0 -i 101 -k AGT
+ -t 7.545402993 -s 3 -d -1 -p cbr -e 210 -c 2 -a 0 -i 102 -k AGT 
- -t 7.545402993 -s 3 -d -1 -p cbr -e 210 -c 2 -a 0 -i 102 -k AGT
h -t 7.545402993 -s 3 -d -1 -p cbr -e 210 -c 2 -a 0 -i 102 -k AGT
r -t 7.549153667 -s 8 -d 8 -p cbr -e 230 -c 2 -a 0 -i 97 -k AGT
+ -t 7.602299464 -s 9 -d -1 -p cbr -e 210 -c 2 -a 0 -i 103 -k AGT 
- -t 7.602299464 -s 9 -d -1 -p cbr -e 210 -c 2 -a 0 -i 103 -k AGT
h -t 7.602299464 -s 9 -d -1 -p cbr -e 210 -c 2 -a 0 -i 103 -k AGT
r -t 7.609153667 -s 8 -d 8 -p cbr -e 230 -c 2 -a 0 -i 101 -k AGT
+ -t 7.628371835 -s 15 -d -1 -p cbr -e 210 -c 2 -a 0 -i 104 -k AGT 
- -t 7.628371835 -s 15 -d -1 -p cbr -e 210 -c 2 -a 0 -i 104 -k AGT
h -t 7.628371835 -s 15 -d -1 -p cbr -e 210 -c 2 -a 0 -i 104 -k AGT
+ -t 7.628436391 -s 21 -d -1 -p cbr -e 210 -c 2 -a 0 -i 105 -k AGT 
- -t 7.628436391 -s 21 -d -1 -p cbr -e 210 -c 2 -a 0 -i 105 -k AGT
h -t 7.628436391 -s 21 -d -1 -p cbr -e 210 -c 2 -a 0 -i 105 -k AGT
+ -t 7.629402993 -s 3 -d -1 -p cbr -e 210 -c 2 -a 0 -i 106 -k AGT 
- -t 7.629402993 -s 3 -d -1 -p cbr -e 210 -c 2 -a 0 -i 106 -k AGT
h -t 7.629402993 -s 3 -d -1 -p cbr -e 210 -c 2 -a 0 -i 106 -k AGT
+ -t 7.686299464 -s 9 -d -1 -p cbr -e 210 -c 2 -a 0 -i 107 -k AGT 
- -t 7.686299464 -s 9 -d -1 -p cbr -e 210 -c 2 -a 0 -i 107 -k AGT
h -t 7.686299464 -s 9 -d -1 -p cbr -e 210 -c 2 -a 0 -i 107 -k AGT
r -t 7.699153667 -s 8 -d 8 -p cbr -e 230 -c 2 -a 0 -i 105 -k AGT
+ -t 7.712371835 -s 15 -d -1 -p cbr -e 210 -c 2 -a 0 -i 108 -k AGT 
- -t 7.712371835 -s 15 -d -1 -p cbr -e 210 -c 2 -a 0 -i 108 -k AGT
h -t 7.712371835 -s 15 -d -1 -p cbr -e 210 -c 2 -a 0 -i 108 -k AGT
+ -t 7.712436391 -s 21 -d -1 -p cbr -e 210 -c 2 -a 0 -i 109 -k AGT 
- -t 7.712436391 -s 21 -d -1 -p cbr -e 210 -c 2 -a 0 -i 109 -k AGT
h -t 7.712436391 -s 21 -d -1 -p cbr -e 210 -c 2 -a 0 -i 109 -k AGT
+ -t 7.713402993 -s 3 -d -1 -p cbr -e 210 -c 2 -a 0 -i 110 -k AGT 
- -t 7.713402993 -s 3 -d -1 -p cbr -e 210 -c 2 -a 0 -i 110 -k AGT
h -t 7.713402993 -s 3 -d -1 -p cbr -e 210 -c 2 -a 0 -i 110 -k AGT
+ -t 7.770299464 -s 9 -d -1 -p cbr -e 210 -c 2 -a 0 -i 111 -k AGT 
- -t 7.770299464 -s 9 -d -1 -p cbr -e 210 -c 2 -a 0 -i 111 -k AGT
h -t 7.770299464 -s 9 -d -1 -p cbr -e 210 -c 2 -a 0 -i 111 -k AGT
+ -t 7.796371835 -s 15 -d -1 -p cbr -e 210 -c 2 -a 0 -i 112 -k AGT 
- -t 7.796371835 -s 15 -d -1 -p cbr -e 210 -c 2 -a 0 -i 112 -k AGT
h -t 7.796371835 -s 15 -d -1 -p cbr -e 210 -c 2 -a 0 -i 112 -k AGT
+ -t 7.796436391 -s 21 -d -1 -p cbr -e 210 -c 2 -a 0 -i 113 -k AGT 
- -t 7.796436391 -s 21 -d -1 -p cbr -e 210 -c 2 -a 0 -i 113 -k AGT
h -t 7.796436391 -s 21 -d -1 -p cbr -e 210 -c 2 -a 0 -i 113 -k AGT
+ -t 7.797402993 -s 3 -d -1 -p cbr -e 210 -c 2 -a 0 -i 114 -k AGT 
- -t 7.797402993 -s 3 -d -1 -p cbr -e 210 -c 2 -a 0 -i 114 -k AGT
h -t 7.797402993 -s 3 -d -1 -p cbr -e 210 -c 2 -a 0 -i 114 -k AGT
r -t 7.819153667 -s 8 -d 8 -p cbr -e 230 -c 2 -a 0 -i 109 -k AGT
+ -t 7.854299464 -s 9 -d -1 -p cbr -e 210 -c 2 -a 0 -i 115 -k AGT 
- -t 7.854299464 -s 9 -d -1 -p cbr -e 210 -c 2 -a 0 -i 115 -k AGT
h -t 7.854299464 -s 9 -d -1 -p cbr -e 210 -c 2 -a 0 -i 115 -k AGT
r -t 7.879153667 -s 8 -d 8 -p cbr -e 230 -c 2 -a 0 -i 113 -k AGT
+ -t 7.880371835 -s 15 -d -1 -p cbr -e 210 -c 2 -a 0 -i 116 -k AGT 
- -t 7.880371835 -s 15 -d -1 -p cbr -e 210 -c 2 -a 0 -i 116 -k AGT
h -t 7.880371835 -s 15 -d -1 -p cbr -e 210 -c 2 -a 0 -i 116 -k AGT
+ -t 7.880436391 -s 21 -d -1 -p cbr -e 210 -c 2 -a 0 -i 117 -k AGT 
- -t 7.880436391 -s 21 -d -1 -p cbr -e 210 -c 2 -a 0 -i 117 -k AGT
h -t 7.880436391 -s 21 -d -1 -p cbr -e 210 -c 2 -a 0 -i 117 -k AGT
+ -t 7.881402993 -s 3 -d -1 -p cbr -e 210 -c 2 -a 0 -i 118 -k AGT 
- -t 7.881402993 -s 3 -d -1 -p cbr -e 210 -c 2 -a 0 -i 118 -k AGT
h -t 7.881402993 -s 3 -d -1 -p cbr -e 210 -c 2 -a 0 -i 118 -k AGT
+ -t 7.938299464 -s 9 -d -1 -p cbr -e 210 -c 2 -a 0 -i 119 -k AGT 
- -t 7.938299464 -s 9 -d -1 -p cbr -e 210 -c 2 -a 0 -i 119 -k AGT