s 0.000000000 _0_ RTR  --- 0 AODV 44 [0 0 0 0] ------- [0:255 -1:255 1 0] [0x1 1 [0 2] 4.000000] (HELLO)
s 0.000000000 _1_ RTR  --- 0 AODV 44 [0 0 0 0] ------- [1:255 -1:255 1 0] [0x1 1 [1 2] 4.000000] (HELLO)
s 0.000000000 _2_ RTR  --- 0 AODV 44 [0 0 0 0] ------- [2:255 -1:255 1 0] [0x1 1 [2 2] 4.000000] (HELLO)
r 0.100000000 _0_ RTR  --- 0 cbr 210 [0 0 0 0] ------- [0:0 2:0 32 0] [0] 0 0
s 0.100000000 _0_ RTR  --- 0 AODV 48 [0 0 0 0] ------- [0:255 -1:255 30 0] [0x2 1 1 [2 0] [0 4]] (REQUEST)
r 0.132425767 _1_ RTR  --- 0 AODV 48 [0 ffffffff 0 0] ------- [0:255 -1:255 30 0] [0x2 1 1 [2 0] [0 4]] (REQUEST)
s 0.133306993 _1_ RTR  --- 0 AODV 48 [0 ffffffff 0 0] ------- [1:255 -1:255 29 0] [0x2 2 1 [2 0] [0 4]] (REQUEST)
r 0.138425767 _0_ RTR  --- 0 AODV 48 [0 ffffffff 1 0] ------- [1:255 -1:255 29 0] [0x2 2 1 [2 0] [0 4]] (REQUEST)
r 0.138425767 _2_ RTR  --- 0 AODV 48 [0 ffffffff 1 0] ------- [1:255 -1:255 29 0] [0x2 2 1 [2 0] [0 4]] (REQUEST)
s 0.138425767 _2_ RTR  --- 0 AODV 44 [0 0 0 0] ------- [2:255 0:255 30 1] [0x4 1 [2 4] 10.000000] (REPLY)
r 0.156000000 _0_ RTR  --- 1 cbr 210 [0 0 0 0] ------- [0:0 2:0 32 0] [1] 0 0
r 0.212000000 _0_ RTR  --- 2 cbr 210 [0 0 0 0] ------- [0:0 2:0 32 0] [2] 0 0
r 0.216409767 _1_ RTR  --- 0 AODV 44 [5 1 2 0] ------- [2:255 0:255 30 1] [0x4 1 [2 4] 10.000000] (REPLY)
f 0.216409767 _1_ RTR  --- 0 AODV 44 [5 1 2 0] ------- [2:255 0:255 29 0] [0x4 2 [2 4] 10.000000] (REPLY)
r 0.264409767 _0_ RTR  --- 0 AODV 44 [5 0 1 0] ------- [2:255 0:255 29 0] [0x4 2 [2 4] 10.000000] (REPLY)
s 0.264409767 _0_ RTR  --- 0 cbr 230 [0 0 0 0] ------- [0:0 2:0 30 1] [0] 0 0
r 0.268000000 _0_ RTR  --- 3 cbr 210 [0 0 0 0] ------- [0:0 2:0 32 0] [3] 0 0
s 0.268000000 _0_ RTR  --- 3 cbr 230 [0 0 0 0] ------- [0:0 2:0 30 1] [3] 0 0
r 0.271153767 _1_ RTR  --- 0 cbr 230 [5 1 0 0] ------- [0:0 2:0 30 1] [0] 1 0
f 0.271153767 _1_ RTR  --- 0 cbr 230 [5 1 0 0] ------- [0:0 2:0 29 2] [0] 1 0
s 0.274409767 _0_ RTR  --- 1 cbr 230 [0 0 0 0] ------- [0:0 2:0 30 1] [1] 0 0
s 0.284409767 _0_ RTR  --- 2 cbr 230 [0 0 0 0] ------- [0:0 2:0 30 1] [2] 0 0
r 0.313153767 _1_ RTR  --- 3 cbr 230 [5 1 0 0] ------- [0:0 2:0 30 1] [3] 1 0
f 0.313153767 _1_ RTR  --- 3 cbr 230 [5 1 0 0] ------- [0:0 2:0 29 2] [3] 1 0
r 0.324000000 _0_ RTR  --- 4 cbr 210 [0 0 0 0] ------- [0:0 2:0 32 0] [4] 0 0
s 0.324000000 _0_ RTR  --- 4 cbr 230 [0 0 0 0] ------- [0:0 2:0 30 1] [4] 0 0
r 0.355153767 _1_ RTR  --- 1 cbr 230 [5 1 0 0] ------- [0:0 2:0 30 1] [1] 1 0
f 0.355153767 _1_ RTR  --- 1 cbr 230 [5 1 0 0] ------- [0:0 2:0 29 2] [1] 1 0
r 0.380000000 _0_ RTR  --- 5 cbr 210 [0 0 0 0] ------- [0:0 2:0 32 0] [5] 0 0
s 0.380000000 _0_ RTR  --- 5 cbr 230 [0 0 0 0] ------- [0:0 2:0 30 1] [5] 0 0
r 0.397153767 _1_ RTR  --- 2 cbr 230 [5 1 0 0] ------- [0:0 2:0 30 1] [2] 1 0
f 0.397153767 _1_ RTR  --- 2 cbr 230 [5 1 0 0] ------- [0:0 2:0 29 2] [2] 1 0
r 0.436000000 _0_ RTR  --- 6 cbr 210 [0 0 0 0] ------- [0:0 2:0 32 0] [6] 0 0
s 0.436000000 _0_ RTR  --- 6 cbr 230 [0 0 0 0] ------- [0:0 2:0 30 1] [6] 0 0
r 0.439153767 _1_ RTR  --- 4 cbr 230 [5 1 0 0] ------- [0:0 2:0 30 1] [4] 1 0
f 0.439153767 _1_ RTR  --- 4 cbr 230 [5 1 0 0] ------- [0:0 2:0 29 2] [4] 1 0
r 0.481153767 _1_ RTR  --- 5 cbr 230 [5 1 0 0] ------- [0:0 2:0 30 1] [5] 1 0
f 0.481153767 _1_ RTR  --- 5 cbr 230 [5 1 0 0] ------- [0:0 2:0 29 2] [5] 1 0
r 0.492000000 _0_ RTR  --- 7 cbr 210 [0 0 0 0] ------- [0:0 2:0 32 0] [7] 0 0
s 0.492000000 _0_ RTR  --- 7 cbr 230 [0 0 0 0] ------- [0:0 2:0 30 1] [7] 0 0
r 0.523153767 _1_ RTR  --- 6 cbr 230 [5 1 0 0] ------- [0:0 2:0 30 1] [6] 1 0
f 0.523153767 _1_ RTR  --- 6 cbr 230 [5 1 0 0] ------- [0:0 2:0 29 2] [6] 1 0
r 0.548000000 _0_ RTR  --- 8 cbr 210 [0 0 0 0] ------- [0:0 2:0 32 0] [8] 0 0
s 0.548000000 _0_ RTR  --- 8 cbr 230 [0 0 0 0] ------- [0:0 2:0 30 1] [8] 0 0
r 0.565153767 _1_ RTR  --- 7 cbr 230 [5 1 0 0] ------- [0:0 2:0 30 1] [7] 1 0
f 0.565153767 _1_ RTR  --- 7 cbr 230 [5 1 0 0] ------- [0:0 2:0 29 2] [7] 1 0
r 0.604000000 _0_ RTR  --- 9 cbr 210 [0 0 0 0] ------- [0:0 2:0 32 0] [9] 0 0
s 0.604000000 _0_ RTR  --- 9 cbr 230 [0 0 0 0] ------- [0:0 2:0 30 1] [9] 0 0
r 0.607153767 _1_ RTR  --- 8 cbr 230 [5 1 0 0] ------- [0:0 2:0 30 1] [8] 1 0
f 0.607153767 _1_ RTR  --- 8 cbr 230 [5 1 0 0] ------- [0:0 2:0 29 2] [8] 1 0
r 0.649153767 _1_ RTR  --- 9 cbr 230 [5 1 0 0] ------- [0:0 2:0 30 1] [9] 1 0
f 0.649153767 _1_ RTR  --- 9 cbr 230 [5 1 0 0] ------- [0:0 2:0 29 2] [9] 1 0
r 0.660000000 _0_ RTR  --- 10 cbr 210 [0 0 0 0] ------- [0:0 2:0 32 0] [10] 0 0
s 0.660000000 _0_ RTR  --- 10 cbr 230 [0 0 0 0] ------- [0:0 2:0 30 1] [10] 0 0
r 0.691153767 _1_ RTR  --- 10 cbr 230 [5 1 0 0] ------- [0:0 2:0 30 1] [10] 1 0
f 0.691153767 _1_ RTR  --- 10 cbr 230 [5 1 0 0] ------- [0:0 2:0 29 2] [10] 1 0
r 0.716000000 _0_ RTR  --- 11 cbr 210 [0 0 0 0] ------- [0:0 2:0 32 0] [11] 0 0
s 0.716000000 _0_ RTR  --- 11 cbr 230 [0 0 0 0] ------- [0:0 2:0 30 1] [11] 0 0
r 0.733153767 _1_ RTR  --- 11 cbr 230 [5 1 0 0] ------- [0:0 2:0 30 1] [11] 1 0
f 0.733153767 _1_ RTR  --- 11 cbr 230 [5 1 0 0] ------- [0:0 2:0 29 2] [11] 1 0
s 0.750169789 _0_ RTR  --- 0 AODV 44 [0 0 0 0] ------- [0:255 -1:255 1 0] [0x1 1 [0 4] 4.000000] (HELLO)
s 0.757102330 _2_ RTR  --- 0 AODV 44 [0 0 0 0] ------- [2:255 -1:255 1 0] [0x1 1 [2 4] 4.000000] (HELLO)
r 0.762409767 _1_ RTR  --- 0 AODV 44 [0 ffffffff 0 0] ------- [0:255 -1:255 1 0] [0x1 1 [0 4] 4.000000] (HELLO)
r 0.772000000 _0_ RTR  --- 12 cbr 210 [0 0 0 0] ------- [0:0 2:0 32 0] [12] 0 0
s 0.772000000 _0_ RTR  --- 12 cbr 230 [0 0 0 0] ------- [0:0 2:0 30 1] [12] 0 0
r 0.775153767 _1_ RTR  --- 12 cbr 230 [5 1 0 0] ------- [0:0 2:0 30 1] [12] 1 0
f 0.775153767 _1_ RTR  --- 12 cbr 230 [5 1 0 0] ------- [0:0 2:0 29 2] [12] 1 0
r 0.828000000 _0_ RTR  --- 13 cbr 210 [0 0 0 0] ------- [0:0 2:0 32 0] [13] 0 0
s 0.828000000 _0_ RTR  --- 13 cbr 230 [0 0 0 0] ------- [0:0 2:0 30 1] [13] 0 0
r 0.859153767 _1_ RTR  --- 13 cbr 230 [5 1 0 0] ------- [0:0 2:0 30 1] [13] 1 0
f 0.859153767 _1_ RTR  --- 13 cbr 230 [5 1 0 0] ------- [0:0 2:0 29 2] [13] 1 0
r 0.884000000 _0_ RTR  --- 14 cbr 210 [0 0 0 0] ------- [0:0 2:0 32 0] [14] 0 0
s 0.884000000 _0_ RTR  --- 14 cbr 230 [0 0 0 0] ------- [0:0 2:0 30 1] [14] 0 0
r 0.901153767 _1_ RTR  --- 14 cbr 230 [5 1 0 0] ------- [0:0 2:0 30 1] [14] 1 0
f 0.901153767 _1_ RTR  --- 14 cbr 230 [5 1 0 0] ------- [0:0 2:0 29 2] [14] 1 0
r 0.940000000 _0_ RTR  --- 15 cbr 210 [0 0 0 0] ------- [0:0 2:0 32 0] [15] 0 0
s 0.940000000 _0_ RTR  --- 15 cbr 230 [0 0 0 0] ------- [0:0 2:0 30 1] [15] 0 0
r 0.943153767 _1_ RTR  --- 15 cbr 230 [5 1 0 0] ------- [0:0 2:0 30 1] [15] 1 0
f 0.943153767 _1_ RTR  --- 15 cbr 230 [5 1 0 0] ------- [0:0 2:0 29 2] [15] 1 0
r 0.996000000 _0_ RTR  --- 16 cbr 210 [0 0 0 0] ------- [0:0 2:0 32 0] [16] 0 0
s 0.996000000 _0_ RTR  --- 16 cbr 230 [0 0 0 0] ------- [0:0 2:0 30 1] [16] 0 0
r 1.027153767 _1_ RTR  --- 16 cbr 230 [5 1 0 0] ------- [0:0 2:0 30 1] [16] 1 0
f 1.027153767 _1_ RTR  --- 16 cbr 230 [5 1 0 0] ------- [0:0 2:0 29 2] [16] 1 0
s 1.027940358 _1_ RTR  --- 0 AODV 44 [0 0 0 0] ------- [1:255 -1:255 1 0] [0x1 1 [1 4] 4.000000] (HELLO)
r 1.052000000 _0_ RTR  --- 17 cbr 210 [0 0 0 0] ------- [0:0 2:0 32 0] [17] 0 0
s 1.052000000 _0_ RTR  --- 17 cbr 230 [0 0 0 0] ------- [0:0 2:0 30 1] [17] 0 0
r 1.056409767 _0_ RTR  --- 0 AODV 44 [0 ffffffff 1 0] ------- [1:255 -1:255 1 0] [0x1 1 [1 4] 4.000000] (HELLO)
r 1.056409767 _2_ RTR  --- 0 AODV 44 [0 ffffffff 1 0] ------- [1:255 -1:255 1 0] [0x1 1 [1 4] 4.000000] (HELLO)
r 1.069153767 _1_ RTR  --- 17 cbr 230 [5 1 0 0] ------- [0:0 2:0 30 1] [17] 1 0
f 1.069153767 _1_ RTR  --- 17 cbr 230 [5 1 0 0] ------- [0:0 2:0 29 2] [17] 1 0
r 1.108000000 _0_ RTR  --- 18 cbr 210 [0 0 0 0] ------- [0:0 2:0 32 0] [18] 0 0
s 1.108000000 _0_ RTR  --- 18 cbr 230 [0 0 0 0] ------- [0:0 2:0 30 1] [18] 0 0
r 1.111153767 _1_ RTR  --- 18 cbr 230 [5 1 0 0] ------- [0:0 2:0 30 1] [18] 1 0
f 1.111153767 _1_ RTR  --- 18 cbr 230 [5 1 0 0] ------- [0:0 2:0 29 2] [18] 1 0
r 1.164000000 _0_ RTR  --- 19 cbr 210 [0 0 0 0] ------- [0:0 2:0 32 0] [19] 0 0
s 1.164000000 _0_ RTR  --- 19 cbr 230 [0 0 0 0] ------- [0:0 2:0 30 1] [19] 0 0
r 1.195153767 _1_ RTR  --- 19 cbr 230 [5 1 0 0] ------- [0:0 2:0 30 1] [19] 1 0
f 1.195153767 _1_ RTR  --- 19 cbr 230 [5 1 0 0] ------- [0:0 2:0 29 2] [19] 1 0
r 1.220000000 _0_ RTR  --- 20 cbr 210 [0 0 0 0] ------- [0:0 2:0 32 0] [20] 0 0
s 1.220000000 _0_ RTR  --- 20 cbr 230 [0 0 0 0] ------- [0:0 2:0 30 1] [20] 0 0
r 1.237153767 _1_ RTR  --- 20 cbr 230 [5 1 0 0] ------- [0:0 2:0 30 1] [20] 1 0
f 1.237153767 _1_ RTR  --- 20 cbr 230 [5 1 0 0] ------- [0:0 2:0 29 2] [20] 1 0
r 1.276000000 _0_ RTR  --- 21 cbr 210 [0 0 0 0] ------- [0:0 2:0 32 0] [21] 0 0
s 1.276000000 _0_ RTR  --- 21 cbr 230 [0 0 0 0] ------- [0:0 2:0 30 1] [21] 0 0
r 1.279153767 _1_ RTR  --- 21 cbr 230 [5 1 0 0] ------- [0:0 2:0 30 1] [21] 1 0
f 1.279153767 _1_ RTR  --- 21 cbr 230 [5 1 0 0] ------- [0:0 2:0 29 2] [21] 1 0
r 1.332000000 _0_ RTR  --- 22 cbr 210 [0 0 0 0] ------- [0:0 2:0 32 0] [22] 0 0
s 1.332000000 _0_ RTR  --- 22 cbr 230 [0 0 0 0] ------- [0:0 2:0 30 1] [22] 0 0
r 1.363153767 _1_ RTR  --- 22 cbr 230 [5 1 0 0] ------- [0:0 2:0 30 1] [22] 1 0
f 1.363153767 _1_ RTR  --- 22 cbr 230 [5 1 0 0] ------- [0:0 2:0 29 2] [22] 1 0
r 1.388000000 _0_ RTR  --- 23 cbr 210 [0 0 0 0] ------- [0:0 2:0 32 0] [23] 0 0
s 1.388000000 _0_ RTR  --- 23 cbr 230 [0 0 0 0] ------- [0:0 2:0 30 1] [23] 0 0
r 1.405153767 _1_ RTR  --- 23 cbr 230 [5 1 0 0] ------- [0:0 2:0 30 1] [23] 1 0
f 1.405153767 _1_ RTR  --- 23 cbr 230 [5 1 0 0] ------- [0:0 2:0 29 2] [23] 1 0
r 1.444000000 _0_ RTR  --- 24 cbr 210 [0 0 0 0] ------- [0:0 2:0 32 0] [24] 0 0
s 1.444000000 _0_ RTR  --- 24 cbr 230 [0 0 0 0] ------- [0:0 2:0 30 1] [24] 0 0
r 1.447153767 _1_ RTR  --- 24 cbr 230 [5 1 0 0] ------- [0:0 2:0 30 1] [24] 1 0
f 1.447153767 _1_ RTR  --- 24 cbr 230 [5 1 0 0] ------- [0:0 2:0 29 2] [24] 1 0
r 1.500000000 _0_ RTR  --- 25 cbr 210 [0 0 0 0] ------- [0:0 2:0 32 0] [25] 0 0
s 1.500000000 _0_ RTR  --- 25 cbr 230 [0 0 0 0] ------- [0:0 2:0 30 1] [25] 0 0
r 1.531153767 _1_ RTR  --- 25 cbr 230 [5 1 0 0] ------- [0:0 2:0 30 1] [25] 1 0
f 1.531153767 _1_ RTR  --- 25 cbr 230 [5 1 0 0] ------- [0:0 2:0 29 2] [25] 1 0
r 1.556000000 _0_ RTR  --- 26 cbr 210 [0 0 0 0] ------- [0:0 2:0 32 0] [26] 0 0
s 1.556000000 _0_ RTR  --- 26 cbr 230 [0 0 0 0] ------- [0:0 2:0 30 1] [26] 0 0
r 1.573153767 _1_ RTR  --- 26 cbr 230 [5 1 0 0] ------- [0:0 2:0 30 1] [26] 1 0
f 1.573153767 _1_ RTR  --- 26 cbr 230 [5 1 0 0] ------- [0:0 2:0 29 2] [26] 1 0
r 1.612000000 _0_ RTR  --- 27 cbr 210 [0 0 0 0] ------- [0:0 2:0 32 0] [27] 0 0
s 1.612000000 _0_ RTR  --- 27 cbr 230 [0 0 0 0] ------- [0:0 2:0 30 1] [27] 0 0
r 1.615153767 _1_ RTR  --- 27 cbr 230 [5 1 0 0] ------- [0:0 2:0 30 1] [27] 1 0
f 1.615153767 _1_ RTR  --- 27 cbr 230 [5 1 0 0] ------- [0:0 2:0 29 2] [27] 1 0
r 1.668000000 _0_ RTR  --- 28 cbr 210 [0 0 0 0] ------- [0:0 2:0 32 0] [28] 0 0
s 1.668000000 _0_ RTR  --- 28 cbr 230 [0 0 0 0] ------- [0:0 2:0 30 1] [28] 0 0
r 1.699153767 _1_ RTR  --- 28 cbr 230 [5 1 0 0] ------- [0:0 2:0 30 1] [28] 1 0
f 1.699153767 _1_ RTR  --- 28 cbr 230 [5 1 0 0] ------- [0:0 2:0 29 2] [28] 1 0
s 1.720756480 _0_ RTR  --- 0 AODV 44 [0 0 0 0] ------- [0:255 -1:255 1 0] [0x1 1 [0 6] 4.000000] (HELLO)
r 1.724000000 _0_ RTR  --- 29 cbr 210 [0 0 0 0] ------- [0:0 2:0 32 0] [29] 0 0
s 1.724000000 _0_ RTR  --- 29 cbr 230 [0 0 0 0] ------- [0:0 2:0 30 1] [29] 0 0
r 1.728409767 _1_ RTR  --- 0 AODV 44 [0 ffffffff 0 0] ------- [0:255 -1:255 1 0] [0x1 1 [0 6] 4.000000] (HELLO)
r 1.741153767 _1_ RTR  --- 29 cbr 230 [5 1 0 0] ------- [0:0 2:0 30 1] [29] 1 0
f 1.741153767 _1_ RTR  --- 29 cbr 230 [5 1 0 0] ------- [0:0 2:0 29 2] [29] 1 0
r 1.780000000 _0_ RTR  --- 30 cbr 210 [0 0 0 0] ------- [0:0 2:0 32 0] [30] 0 0
s 1.780000000 _0_ RTR  --- 30 cbr 230 [0 0 0 0] ------- [0:0 2:0 30 1] [30] 0 0
r 1.783153767 _1_ RTR  --- 30 cbr 230 [5 1 0 0] ------- [0:0 2:0 30 1] [30] 1 0
f 1.783153767 _1_ RTR  --- 30 cbr 230 [5 1 0 0] ------- [0:0 2:0 29 2] [30] 1 0
r 1.836000000 _0_ RTR  --- 31 cbr 210 [0 0 0 0] ------- [0:0 2:0 32 0] [31] 0 0
s 1.836000000 _0_ RTR  --- 31 cbr 230 [0 0 0 0] ------- [0:0 2:0 30 1] [31] 0 0
r 1.867153767 _1_ RTR  --- 31 cbr 230 [5 1 0 0] ------- [0:0 2:0 30 1] [31] 1 0
f 1.867153767 _1_ RTR  --- 31 cbr 230 [5 1 0 0] ------- [0:0 2:0 29 2] [31] 1 0
r 1.892000000 _0_ RTR  --- 32 cbr 210 [0 0 0 0] ------- [0:0 2:0 32 0] [32] 0 0
s 1.892000000 _0_ RTR  --- 32 cbr 230 [0 0 0 0] ------- [0:0 2:0 30 1] [32] 0 0
s 1.906680057 _2_ RTR  --- 0 AODV 44 [0 0 0 0] ------- [2:255 -1:255 1 0] [0x1 1 [2 6] 4.000000] (HELLO)
r 1.909153767 _1_ RTR  --- 32 cbr 230 [5 1 0 0] ------- [0:0 2:0 30 1] [32] 1 0
f 1.909153767 _1_ RTR  --- 32 cbr 230 [5 1 0 0] ------- [0:0 2:0 29 2] [32] 1 0
s 1.934421244 _1_ RTR  --- 0 AODV 44 [0 0 0 0] ------- [1:255 -1:255 1 0] [0x1 1 [1 4] 4.000000] (HELLO)
r 1.938409767 _0_ RTR  --- 0 AODV 44 [0 ffffffff 1 0] ------- [1:255 -1:255 1 0] [0x1 1 [1 4] 4.000000] (HELLO)
r 1.948000000 _0_ RTR  --- 33 cbr 210 [0 0 0 0] ------- [0:0 2:0 32 0] [33] 0 0
s 1.948000000 _0_ RTR  --- 33 cbr 230 [0 0 0 0] ------- [0:0 2:0 30 1] [33] 0 0
r 1.951153767 _1_ RTR  --- 33 cbr 230 [5 1 0 0] ------- [0:0 2:0 30 1] [33] 1 0
f 1.951153767 _1_ RTR  --- 33 cbr 230 [5 1 0 0] ------- [0:0 2:0 29 2] [33] 1 0
r 2.004000000 _0_ RTR  --- 34 cbr 210 [0 0 0 0] ------- [0:0 2:0 32 0] [34] 0 0
s 2.004000000 _0_ RTR  --- 34 cbr 230 [0 0 0 0] ------- [0:0 2:0 30 1] [34] 0 0
r 2.035153767 _1_ RTR  --- 34 cbr 230 [5 1 0 0] ------- [0:0 2:0 30 1] [34] 1 0
f 2.035153767 _1_ RTR  --- 34 cbr 230 [5 1 0 0] ------- [0:0 2:0 29 2] [34] 1 0
r 2.060000000 _0_ RTR  --- 35 cbr 210 [0 0 0 0] ------- [0:0 2:0 32 0] [35] 0 0
s 2.060000000 _0_ RTR  --- 35 cbr 230 [0 0 0 0] ------- [0:0 2:0 30 1] [35] 0 0
r 2.077153767 _1_ RTR  --- 35 cbr 230 [5 1 0 0] ------- [0:0 2:0 30 1] [35] 1 0
f 2.077153767 _1_ RTR  --- 35 cbr 230 [5 1 0 0] ------- [0:0 2:0 29 2] [35] 1 0
r 2.116000000 _0_ RTR  --- 36 cbr 210 [0 0 0 0] ------- [0:0 2:0 32 0] [36] 0 0
s 2.116000000 _0_ RTR  --- 36 cbr 230 [0 0 0 0] ------- [0:0 2:0 30 1] [36] 0 0
r 2.119153767 _1_ RTR  --- 36 cbr 230 [5 1 0 0] ------- [0:0 2:0 30 1] [36] 1 0
f 2.119153767 _1_ RTR  --- 36 cbr 230 [5 1 0 0] ------- [0:0 2:0 29 2] [36] 1 0
r 2.172000000 _0_ RTR  --- 37 cbr 210 [0 0 0 0] ------- [0:0 2:0 32 0] [37] 0 0
s 2.172000000 _0_ RTR  --- 37 cbr 230 [0 0 0 0] ------- [0:0 2:0 30 1] [37] 0 0
r 2.203153767 _1_ RTR  --- 37 cbr 230 [5 1 0 0] ------- [0:0 2:0 30 1] [37] 1 0
f 2.203153767 _1_ RTR  --- 37 cbr 230 [5 1 0 0] ------- [0:0 2:0 29 2] [37] 1 0
r 2.228000000 _0_ RTR  --- 38 cbr 210 [0 0 0 0] ------- [0:0 2:0 32 0] [38] 0 0
s 2.228000000 _0_ RTR  --- 38 cbr 230 [0 0 0 0] ------- [0:0 2:0 30 1] [38] 0 0
r 2.245153767 _1_ RTR  --- 38 cbr 230 [5 1 0 0] ------- [0:0 2:0 30 1] [38] 1 0
f 2.245153767 _1_ RTR  --- 38 cbr 230 [5 1 0 0] ------- [0:0 2:0 29 2] [38] 1 0
r 2.284000000 _0_ RTR  --- 39 cbr 210 [0 0 0 0] ------- [0:0 2:0 32 0] [39] 0 0
s 2.284000000 _0_ RTR  --- 39 cbr 230 [0 0 0 0] ------- [0:0 2:0 30 1] [39] 0 0
r 2.287153767 _1_ RTR  --- 39 cbr 230 [5 1 0 0] ------- [0:0 2:0 30 1] [39] 1 0
f 2.287153767 _1_ RTR  --- 39 cbr 230 [5 1 0 0] ------- [0:0 2:0 29 2] [39] 1 0
r 2.340000000 _0_ RTR  --- 40 cbr 210 [0 0 0 0] ------- [0:0 2:0 32 0] [40] 0 0
s 2.340000000 _0_ RTR  --- 40 cbr 230 [0 0 0 0] ------- [0:0 2:0 30 1] [40] 0 0
r 2.371153767 _1_ RTR  --- 40 cbr 230 [5 1 0 0] ------- [0:0 2:0 30 1] [40] 1 0
f 2.371153767 _1_ RTR  --- 40 cbr 230 [5 1 0 0] ------- [0:0 2:0 29 2] [40] 1 0
r 2.396000000 _0_ RTR  --- 41 cbr 210 [0 0 0 0] ------- [0:0 2:0 32 0] [41] 0 0
s 2.396000000 _0_ RTR  --- 41 cbr 230 [0 0 0 0] ------- [0:0 2:0 30 1] [41] 0 0
r 2.413153767 _1_ RTR  --- 41 cbr 230 [5 1 0 0] ------- [0:0 2:0 30 1] [41] 1 0
f 2.413153767 _1_ RTR  --- 41 cbr 230 [5 1 0 0] ------- [0:0 2:0 29 2] [41] 1 0
r 2.452000000 _0_ RTR  --- 42 cbr 210 [0 0 0 0] ------- [0:0 2:0 32 0] [42] 0 0
s 2.452000000 _0_ RTR  --- 42 cbr 230 [0 0 0 0] ------- [0:0 2:0 30 1] [42] 0 0
r 2.455153767 _1_ RTR  --- 42 cbr 230 [5 1 0 0] ------- [0:0 2:0 30 1] [42] 1 0
f 2.455153767 _1_ RTR  --- 42 cbr 230 [5 1 0 0] ------- [0:0 2:0 29 2] [42] 1 0
r 2.508000000 _0_ RTR  --- 43 cbr 210 [0 0 0 0] ------- [0:0 2:0 32 0] [43] 0 0
s 2.508000000 _0_ RTR  --- 43 cbr 230 [0 0 0 0] ------- [0:0 2:0 30 1] [43] 0 0
r 2.539153767 _1_ RTR  --- 43 cbr 230 [5 1 0 0] ------- [0:0 2:0 30 1] [43] 1 0
f 2.539153767 _1_ RTR  --- 43 cbr 230 [5 1 0 0] ------- [0:0 2:0 29 2] [43] 1 0
r 2.564000000 _0_ RTR  --- 44 cbr 210 [0 0 0 0] ------- [0:0 2:0 32 0] [44] 0 0
s 2.564000000 _0_ RTR  --- 44 cbr 230 [0 0 0 0] ------- [0:0 2:0 30 1] [44] 0 0
r 2.581153767 _1_ RTR  --- 44 cbr 230 [5 1 0 0] ------- [0:0 2:0 30 1] [44] 1 0
f 2.581153767 _1_ RTR  --- 44 cbr 230 [5 1 0 0] ------- [0:0 2:0 29 2] [44] 1 0
r 2.620000000 _0_ RTR  --- 45 cbr 210 [0 0 0 0] ------- [0:0 2:0 32 0] [45] 0 0
s 2.620000000 _0_ RTR  --- 45 cbr 230 [0 0 0 0] ------- [0:0 2:0 30 1] [45] 0 0
r 2.623153767 _1_ RTR  --- 45 cbr 230 [5 1 0 0] ------- [0:0 2:0 30 1] [45] 1 0
f 2.623153767 _1_ RTR  --- 45 cbr 230 [5 1 0 0] ------- [0:0 2:0 29 2] [45] 1 0
r 2.676000000 _0_ RTR  --- 46 cbr 210 [0 0 0 0] ------- [0:0 2:0 32 0] [46] 0 0
s 2.676000000 _0_ RTR  --- 46 cbr 230 [0 0 0 0] ------- [0:0 2:0 30 1] [46] 0 0
r 2.707153767 _1_ RTR  --- 46 cbr 230 [5 1 0 0] ------- [0:0 2:0 30 1] [46] 1 0
f 2.707153767 _1_ RTR  --- 46 cbr 230 [5 1 0 0] ------- [0:0 2:0 29 2] [46] 1 0
r 2.732000000 _0_ RTR  --- 47 cbr 210 [0 0 0 0] ------- [0:0 2:0 32 0] [47] 0 0
s 2.732000000 _0_ RTR  --- 47 cbr 230 [0 0 0 0] ------- [0:0 2:0 30 1] [47] 0 0
r 2.749153767 _1_ RTR  --- 47 cbr 230 [5 1 0 0] ------- [0:0 2:0 30 1] [47] 1 0
f 2.749153767 _1_ RTR  --- 47 cbr 230 [5 1 0 0] ------- [0:0 2:0 29 2] [47] 1 0
s 2.773980933 _2_ RTR  --- 0 AODV 44 [0 0 0 0] ------- [2:255 -1:255 1 0] [0x1 1 [2 6] 4.000000] (HELLO)
r 2.778409767 _1_ RTR  --- 0 AODV 44 [0 ffffffff 2 0] ------- [2:255 -1:255 1 0] [0x1 1 [2 6] 4.000000] (HELLO)
r 2.788000000 _0_ RTR  --- 48 cbr 210 [0 0 0 0] ------- [0:0 2:0 32 0] [48] 0 0
s 2.788000000 _0_ RTR  --- 48 cbr 230 [0 0 0 0] ------- [0:0 2:0 30 1] [48] 0 0
r 2.791153767 _1_ RTR  --- 48 cbr 230 [5 1 0 0] ------- [0:0 2:0 30 1] [48] 1 0
f 2.791153767 _1_ RTR  --- 48 cbr 230 [5 1 0 0] ------- [0:0 2:0 29 2] [48] 1 0
r 2.844000000 _0_ RTR  --- 49 cbr 210 [0 0 0 0] ------- [0:0 2:0 32 0] [49] 0 0
s 2.844000000 _0_ RTR  --- 49 cbr 230 [0 0 0 0] ------- [0:0 2:0 30 1] [49] 0 0
r 2.875153767 _1_ RTR  --- 49 cbr 230 [5 1 0 0] ------- [0:0 2:0 30 1] [49] 1 0
f 2.875153767 _1_ RTR  --- 49 cbr 230 [5 1 0 0] ------- [0:0 2:0 29 2] [49] 1 0
s 2.878994505 _0_ RTR  --- 0 AODV 44 [0 0 0 0] ------- [0:255 -1:255 1 0] [0x1 1 [0 6] 4.000000] (HELLO)
r 2.900000000 _0_ RTR  --- 50 cbr 210 [0 0 0 0] ------- [0:0 2:0 32 0] [50] 0 0
s 2.900000000 _0_ RTR  --- 50 cbr 230 [0 0 0 0] ------- [0:0 2:0 30 1] [50] 0 0
r 2.904409767 _1_ RTR  --- 0 AODV 44 [0 ffffffff 0 0] ------- [0:255 -1:255 1 0] [0x1 1 [0 6] 4.000000] (HELLO)
r 2.917153767 _1_ RTR  --- 50 cbr 230 [5 1 0 0] ------- [0:0 2:0 30 1] [50] 1 0
f 2.917153767 _1_ RTR  --- 50 cbr 230 [5 1 0 0] ------- [0:0 2:0 29 2] [50] 1 0
r 2.956000000 _0_ RTR  --- 51 cbr 210 [0 0 0 0] ------- [0:0 2:0 32 0] [51] 0 0
s 2.956000000 _0_ RTR  --- 51 cbr 230 [0 0 0 0] ------- [0:0 2:0 30 1] [51] 0 0
r 2.959153767 _1_ RTR  --- 51 cbr 230 [5 1 0 0] ------- [0:0 2:0 30 1] [51] 1 0
f 2.959153767 _1_ RTR  --- 51 cbr 230 [5 1 0 0] ------- [0:0 2:0 29 2] [51] 1 0
s 3.003853815 _1_ RTR  --- 0 AODV 44 [0 0 0 0] ------- [1:255 -1:255 1 0] [0x1 1 [1 6] 4.000000] (HELLO)
r 3.012000000 _0_ RTR  --- 52 cbr 210 [0 0 0 0] ------- [0:0 2:0 32 0] [52] 0 0
s 3.012000000 _0_ RTR  --- 52 cbr 230 [0 0 0 0] ------- [0:0 2:0 30 1] [52] 0 0
r 3.030409767 _0_ RTR  --- 0 AODV 44 [0 ffffffff 1 0] ------- [1:255 -1:255 1 0] [0x1 1 [1 6] 4.000000] (HELLO)
r 3.030409767 _2_ RTR  --- 0 AODV 44 [0 ffffffff 1 0] ------- [1:255 -1:255 1 0] [0x1 1 [1 6] 4.000000] (HELLO)
r 3.043153767 _1_ RTR  --- 52 cbr 230 [5 1 0 0] ------- [0:0 2:0 30 1] [52] 1 0
f 3.043153767 _1_ RTR  --- 52 cbr 230 [5 1 0 0] ------- [0:0 2:0 29 2] [52] 1 0
r 3.068000000 _0_ RTR  --- 53 cbr 210 [0 0 0 0] ------- [0:0 2:0 32 0] [53] 0 0
s 3.068000000 _0_ RTR  --- 53 cbr 230 [0 0 0 0] ------- [0:0 2:0 30 1] [53] 0 0
r 3.085153767 _1_ RTR  --- 53 cbr 230 [5 1 0 0] ------- [0:0 2:0 30 1] [53] 1 0
f 3.085153767 _1_ RTR  --- 53 cbr 230 [5 1 0 0] ------- [0:0 2:0 29 2] [53] 1 0
r 3.124000000 _0_ RTR  --- 54 cbr 210 [0 0 0 0] ------- [0:0 2:0 32 0] [54] 0 0
s 3.124000000 _0_ RTR  --- 54 cbr 230 [0 0 0 0] ------- [0:0 2:0 30 1] [54] 0 0
r 3.127153767 _1_ RTR  --- 54 cbr 230 [5 1 0 0] ------- [0:0 2:0 30 1] [54] 1 0
f 3.127153767 _1_ RTR  --- 54 cbr 230 [5 1 0 0] ------- [0:0 2:0 29 2] [54] 1 0
r 3.180000000 _0_ RTR  --- 55 cbr 210 [0 0 0 0] ------- [0:0 2:0 32 0] [55] 0 0
s 3.180000000 _0_ RTR  --- 55 cbr 230 [0 0 0 0] ------- [0:0 2:0 30 1] [55] 0 0
r 3.211153767 _1_ RTR  --- 55 cbr 230 [5 1 0 0] ------- [0:0 2:0 30 1] [55] 1 0
f 3.211153767 _1_ RTR  --- 55 cbr 230 [5 1 0 0] ------- [0:0 2:0 29 2] [55] 1 0
r 3.236000000 _0_ RTR  --- 56 cbr 210 [0 0 0 0] ------- [0:0 2:0 32 0] [56] 0 0
s 3.236000000 _0_ RTR  --- 56 cbr 230 [0 0 0 0] ------- [0:0 2:0 30 1] [56] 0 0
r 3.253153767 _1_ RTR  --- 56 cbr 230 [5 1 0 0] ------- [0:0 2:0 30 1] [56] 1 0
f 3.253153767 _1_ RTR  --- 56 cbr 230 [5 1 0 0] ------- [0:0 2:0 29 2] [56] 1 0
r 3.292000000 _0_ RTR  --- 57 cbr 210 [0 0 0 0] ------- [0:0 2:0 32 0] [57] 0 0
s 3.292000000 _0_ RTR  --- 57 cbr 230 [0 0 0 0] ------- [0:0 2:0 30 1] [57] 0 0
r 3.295153767 _1_ RTR  --- 57 cbr 230 [5 1 0 0] ------- [0:0 2:0 30 1] [57] 1 0
f 3.295153767 _1_ RTR  --- 57 cbr 230 [5 1 0 0] ------- [0:0 2:0 29 2] [57] 1 0
r 3.348000000 _0_ RTR  --- 58 cbr 210 [0 0 0 0] ------- [0:0 2:0 32 0] [58] 0 0
s 3.348000000 _0_ RTR  --- 58 cbr 230 [0 0 0 0] ------- [0:0 2:0 30 1] [58] 0 0
r 3.379153767 _1_ RTR  --- 58 cbr 230 [5 1 0 0] ------- [0:0 2:0 30 1] [58] 1 0
f 3.379153767 _1_ RTR  --- 58 cbr 230 [5 1 0 0] ------- [0:0 2:0 29 2] [58] 1 0
r 3.404000000 _0_ RTR  --- 59 cbr 210 [0 0 0 0] ------- [0:0 2:0 32 0] [59] 0 0
s 3.404000000 _0_ RTR  --- 59 cbr 230 [0 0 0 0] ------- [0:0 2:0 30 1] [59] 0 0
r 3.421153767 _1_ RTR  --- 59 cbr 230 [5 1 0 0] ------- [0:0 2:0 30 1] [59] 1 0
f 3.421153767 _1_ RTR  --- 59 cbr 230 [5 1 0 0] ------- [0:0 2:0 29 2] [59] 1 0
r 3.460000000 _0_ RTR  --- 60 cbr 210 [0 0 0 0] ------- [0:0 2:0 32 0] [60] 0 0
s 3.460000000 _0_ RTR  --- 60 cbr 230 [0 0 0 0] ------- [0:0 2:0 30 1] [60] 0 0
r 3.463153767 _1_ RTR  --- 60 cbr 230 [5 1 0 0] ------- [0:0 2:0 30 1] [60] 1 0
f 3.463153767 _1_ RTR  --- 60 cbr 230 [5 1 0 0] ------- [0:0 2:0 29 2] [60] 1 0
r 3.516000000 _0_ RTR  --- 61 cbr 210 [0 0 0 0] ------- [0:0 2:0 32 0] [61] 0 0
s 3.516000000 _0_ RTR  --- 61 cbr 230 [0 0 0 0] ------- [0:0 2:0 30 1] [61] 0 0
r 3.547153767 _1_ RTR  --- 61 cbr 230 [5 1 0 0] ------- [0:0 2:0 30 1] [61] 1 0
f 3.547153767 _1_ RTR  --- 61 cbr 230 [5 1 0 0] ------- [0:0 2:0 29 2] [61] 1 0
r 3.572000000 _0_ RTR  --- 62 cbr 210 [0 0 0 0] ------- [0:0 2:0 32 0] [62] 0 0
s 3.572000000 _0_ RTR  --- 62 cbr 230 [0 0 0 0] ------- [0:0 2:0 30 1] [62] 0 0
r 3.589153767 _1_ RTR  --- 62 cbr 230 [5 1 0 0] ------- [0:0 2:0 30 1] [62] 1 0
f 3.589153767 _1_ RTR  --- 62 cbr 230 [5 1 0 0] ------- [0:0 2:0 29 2] [62] 1 0
r 3.628000000 _0_ RTR  --- 63 cbr 210 [0 0 0 0] ------- [0:0 2:0 32 0] [63] 0 0
s 3.628000000 _0_ RTR  --- 63 cbr 230 [0 0 0 0] ------- [0:0 2:0 30 1] [63] 0 0
r 3.631153767 _1_ RTR  --- 63 cbr 230 [5 1 0 0] ------- [0:0 2:0 30 1] [63] 1 0
f 3.631153767 _1_ RTR  --- 63 cbr 230 [5 1 0 0] ------- [0:0 2:0 29 2] [63] 1 0
s 3.678520462 _2_ RTR  --- 0 AODV 44 [0 0 0 0] ------- [2:255 -1:255 1 0] [0x1 1 [2 6] 4.000000] (HELLO)
r 3.684000000 _0_ RTR  --- 64 cbr 210 [0 0 0 0] ------- [0:0 2:0 32 0] [64] 0 0
s 3.684000000 _0_ RTR  --- 64 cbr 230 [0 0 0 0] ------- [0:0 2:0 30 1] [64] 0 0
r 3.702409767 _1_ RTR  --- 0 AODV 44 [0 ffffffff 2 0] ------- [2:255 -1:255 1 0] [0x1 1 [2 6] 4.000000] (HELLO)
r 3.715153767 _1_ RTR  --- 64 cbr 230 [5 1 0 0] ------- [0:0 2:0 30 1] [64] 1 0
f 3.715153767 _1_ RTR  --- 64 cbr 230 [5 1 0 0] ------- [0:0 2:0 29 2] [64] 1 0
r 3.740000000 _0_ RTR  --- 65 cbr 210 [0 0 0 0] ------- [0:0 2:0 32 0] [65] 0 0
s 3.740000000 _0_ RTR  --- 65 cbr 230 [0 0 0 0] ------- [0:0 2:0 30 1] [65] 0 0
r 3.757153767 _1_ RTR  --- 65 cbr 230 [5 1 0 0] ------- [0:0 2:0 30 1] [65] 1 0
f 3.757153767 _1_ RTR  --- 65 cbr 230 [5 1 0 0] ------- [0:0 2:0 29 2] [65] 1 0
r 3.796000000 _0_ RTR  --- 66 cbr 210 [0 0 0 0] ------- [0:0 2:0 32 0] [66] 0 0
s 3.796000000 _0_ RTR  --- 66 cbr 230 [0 0 0 0] ------- [0:0 2:0 30 1] [66] 0 0
r 3.799153767 _1_ RTR  --- 66 cbr 230 [5 1 0 0] ------- [0:0 2:0 30 1] [66] 1 0
f 3.799153767 _1_ RTR  --- 66 cbr 230 [5 1 0 0] ------- [0:0 2:0 29 2] [66] 1 0
s 3.835926519 _1_ RTR  --- 0 AODV 44 [0 0 0 0] ------- [1:255 -1:255 1 0] [0x1 1 [1 6] 4.000000] (HELLO)
r 3.852000000 _0_ RTR  --- 67 cbr 210 [0 0 0 0] ------- [0:0 2:0 32 0] [67] 0 0
s 3.852000000 _0_ RTR  --- 67 cbr 230 [0 0 0 0] ------- [0:0 2:0 30 1] [67] 0 0
r 3.870409767 _0_ RTR  --- 0 AODV 44 [0 ffffffff 1 0] ------- [1:255 -1:255 1 0] [0x1 1 [1 6] 4.000000] (HELLO)
r 3.870409767 _2_ RTR  --- 0 AODV 44 [0 ffffffff 1 0] ------- [1:255 -1:255 1 0] [0x1 1 [1 6] 4.000000] (HELLO)
r 3.883153767 _1_ RTR  --- 67 cbr 230 [5 1 0 0] ------- [0:0 2:0 30 1] [67] 1 0
f 3.883153767 _1_ RTR  --- 67 cbr 230 [5 1 0 0] ------- [0:0 2:0 29 2] [67] 1 0
r 3.908000000 _0_ RTR  --- 68 cbr 210 [0 0 0 0] ------- [0:0 2:0 32 0] [68] 0 0
s 3.908000000 _0_ RTR  --- 68 cbr 230 [0 0 0 0] ------- [0:0 2:0 30 1] [68] 0 0
r 3.925153767 _1_ RTR  --- 68 cbr 230 [5 1 0 0] ------- [0:0 2:0 30 1] [68] 1 0
f 3.925153767 _1_ RTR  --- 68 cbr 230 [5 1 0 0] ------- [0:0 2:0 29 2] [68] 1 0
r 3.964000000 _0_ RTR  --- 69 cbr 210 [0 0 0 0] ------- [0:0 2:0 32 0] [69] 0 0
s 3.964000000 _0_ RTR  --- 69 cbr 230 [0 0 0 0] ------- [0:0 2:0 30 1] [69] 0 0
r 3.967153767 _1_ RTR  --- 69 cbr 230 [5 1 0 0] ------- [0:0 2:0 30 1] [69] 1 0
f 3.967153767 _1_ RTR  --- 69 cbr 230 [5 1 0 0] ------- [0:0 2:0 29 2] [69] 1 0
r 4.020000000 _0_ RTR  --- 70 cbr 210 [0 0 0 0] ------- [0:0 2:0 32 0] [70] 0 0
s 4.020000000 _0_ RTR  --- 70 cbr 230 [0 0 0 0] ------- [0:0 2:0 30 1] [70] 0 0
s 4.047156274 _0_ RTR  --- 0 AODV 44 [0 0 0 0] ------- [0:255 -1:255 1 0] [0x1 1 [0 6] 4.000000] (HELLO)
r 4.051153767 _1_ RTR  --- 70 cbr 230 [5 1 0 0] ------- [0:0 2:0 30 1] [70] 1 0
f 4.051153767 _1_ RTR  --- 70 cbr 230 [5 1 0 0] ------- [0:0 2:0 29 2] [70] 1 0
r 4.076000000 _0_ RTR  --- 71 cbr 210 [0 0 0 0] ------- [0:0 2:0 32 0] [71] 0 0
s 4.076000000 _0_ RTR  --- 71 cbr 230 [0 0 0 0] ------- [0:0 2:0 30 1] [71] 0 0
r 4.080409767 _1_ RTR  --- 0 AODV 44 [0 ffffffff 0 0] ------- [0:255 -1:255 1 0] [0x1 1 [0 6] 4.000000] (HELLO)
r 4.093153767 _1_ RTR  --- 71 cbr 230 [5 1 0 0] ------- [0:0 2:0 30 1] [71] 1 0
f 4.093153767 _1_ RTR  --- 71 cbr 230 [5 1 0 0] ------- [0:0 2:0 29 2] [71] 1 0
r 4.132000000 _0_ RTR  --- 72 cbr 210 [0 0 0 0] ------- [0:0 2:0 32 0] [72] 0 0
s 4.132000000 _0_ RTR  --- 72 cbr 230 [0 0 0 0] ------- [0:0 2:0 30 1] [72] 0 0
r 4.135153767 _1_ RTR  --- 72 cbr 230 [5 1 0 0] ------- [0:0 2:0 30 1] [72] 1 0
f 4.135153767 _1_ RTR  --- 72 cbr 230 [5 1 0 0] ------- [0:0 2:0 29 2] [72] 1 0
r 4.188000000 _0_ RTR  --- 73 cbr 210 [0 0 0 0] ------- [0:0 2:0 32 0] [73] 0 0
s 4.188000000 _0_ RTR  --- 73 cbr 230 [0 0 0 0] ------- [0:0 2:0 30 1] [73] 0 0
r 4.219153767 _1_ RTR  --- 73 cbr 230 [5 1 0 0] ------- [0:0 2:0 30 1] [73] 1 0
f 4.219153767 _1_ RTR  --- 73 cbr 230 [5 1 0 0] ------- [0:0 2:0 29 2] [73] 1 0
r 4.244000000 _0_ RTR  --- 74 cbr 210 [0 0 0 0] ------- [0:0 2:0 32 0] [74] 0 0
s 4.244000000 _0_ RTR  --- 74 cbr 230 [0 0 0 0] ------- [0:0 2:0 30 1] [74] 0 0
r 4.261153767 _1_ RTR  --- 74 cbr 230 [5 1 0 0] ------- [0:0 2:0 30 1] [74] 1 0
f 4.261153767 _1_ RTR  --- 74 cbr 230 [5 1 0 0] ------- [0:0 2:0 29 2] [74] 1 0
r 4.300000000 _0_ RTR  --- 75 cbr 210 [0 0 0 0] ------- [0:0 2:0 32 0] [75] 0 0
s 4.300000000 _0_ RTR  --- 75 cbr 230 [0 0 0 0] ------- [0:0 2:0 30 1] [75] 0 0
r 4.303153767 _1_ RTR  --- 75 cbr 230 [5 1 0 0] ------- [0:0 2:0 30 1] [75] 1 0
f 4.303153767 _1_ RTR  --- 75 cbr 230 [5 1 0 0] ------- [0:0 2:0 29 2] [75] 1 0
r 4.356000000 _0_ RTR  --- 76 cbr 210 [0 0 0 0] ------- [0:0 2:0 32 0] [76] 0 0
s 4.356000000 _0_ RTR  --- 76 cbr 230 [0 0 0 0] ------- [0:0 2:0 30 1] [76] 0 0
r 4.387153767 _1_ RTR  --- 76 cbr 230 [5 1 0 0] ------- [0:0 2:0 30 1] [76] 1 0
f 4.387153767 _1_ RTR  --- 76 cbr 230 [5 1 0 0] ------- [0:0 2:0 29 2] [76] 1 0
r 4.412000000 _0_ RTR  --- 77 cbr 210 [0 0 0 0] ------- [0:0 2:0 32 0] [77] 0 0
s 4.412000000 _0_ RTR  --- 77 cbr 230 [0 0 0 0] ------- [0:0 2:0 30 1] [77] 0 0
r 4.429153767 _1_ RTR  --- 77 cbr 230 [5 1 0 0] ------- [0:0 2:0 30 1] [77] 1 0
f 4.429153767 _1_ RTR  --- 77 cbr 230 [5 1 0 0] ------- [0:0 2:0 29 2] [77] 1 0
s 4.449917741 _2_ RTR  --- 0 AODV 44 [0 0 0 0] ------- [2:255 -1:255 1 0] [0x1 1 [2 6] 4.000000] (HELLO)
r 4.458409767 _1_ RTR  --- 0 AODV 44 [0 ffffffff 2 0] ------- [2:255 -1:255 1 0] [0x1 1 [2 6] 4.000000] (HELLO)
r 4.468000000 _0_ RTR  --- 78 cbr 210 [0 0 0 0] ------- [0:0 2:0 32 0] [78] 0 0
s 4.468000000 _0_ RTR  --- 78 cbr 230 [0 0 0 0] ------- [0:0 2:0 30 1] [78] 0 0
r 4.471153767 _1_ RTR  --- 78 cbr 230 [5 1 0 0] ------- [0:0 2:0 30 1] [78] 1 0
f 4.471153767 _1_ RTR  --- 78 cbr 230 [5 1 0 0] ------- [0:0 2:0 29 2] [78] 1 0
r 4.524000000 _0_ RTR  --- 79 cbr 210 [0 0 0 0] ------- [0:0 2:0 32 0] [79] 0 0
s 4.524000000 _0_ RTR  --- 79 cbr 230 [0 0 0 0] ------- [0:0 2:0 30 1] [79] 0 0
r 4.555153767 _1_ RTR  --- 79 cbr 230 [5 1 0 0] ------- [0:0 2:0 30 1] [79] 1 0
f 4.555153767 _1_ RTR  --- 79 cbr 230 [5 1 0 0] ------- [0:0 2:0 29 2] [79] 1 0
r 4.580000000 _0_ RTR  --- 80 cbr 210 [0 0 0 0] ------- [0:0 2:0 32 0] [80] 0 0
s 4.580000000 _0_ RTR  --- 80 cbr 230 [0 0 0 0] ------- [0:0 2:0 30 1] [80] 0 0
r 4.597153767 _1_ RTR  --- 80 cbr 230 [5 1 0 0] ------- [0:0 2:0 30 1] [80] 1 0