s 0.100000000 _0_ AGT  --- 0 cbr 210 [0 0 0 0] ------- [0:0 2:0 32 0] [0] 0 0
s 0.100000000 _1_ AGT  --- 1 cbr 210 [0 0 0 0] ------- [1:0 2:1 32 0] [0] 0 0
s 0.156000000 _0_ AGT  --- 2 cbr 210 [0 0 0 0] ------- [0:0 2:0 32 0] [1] 0 0
s 0.156000000 _1_ AGT  --- 3 cbr 210 [0 0 0 0] ------- [1:0 2:1 32 0] [1] 0 0
s 0.212000000 _0_ AGT  --- 4 cbr 210 [0 0 0 0] ------- [0:0 2:0 32 0] [2] 0 0
s 0.212000000 _1_ AGT  --- 5 cbr 210 [0 0 0 0] ------- [1:0 2:1 32 0] [2] 0 0
r 0.223153471 _2_ AGT  --- 0 cbr 230 [5 2 0 0] ------- [0:0 2:0 30 2] [0] 1 0
r 0.247153471 _2_ AGT  --- 4 cbr 230 [5 2 0 0] ------- [0:0 2:0 30 2] [2] 1 0
r 0.253153471 _2_ AGT  --- 1 cbr 230 [5 2 1 0] ------- [1:0 2:1 30 2] [0] 1 0
s 0.268000000 _0_ AGT  --- 6 cbr 210 [0 0 0 0] ------- [0:0 2:0 32 0] [3] 0 0
s 0.268000000 _1_ AGT  --- 7 cbr 210 [0 0 0 0] ------- [1:0 2:1 32 0] [3] 0 0
r 0.271153471 _2_ AGT  --- 2 cbr 230 [5 2 0 0] ------- [0:0 2:0 30 2] [1] 1 0
r 0.277153471 _2_ AGT  --- 3 cbr 230 [5 2 1 0] ------- [1:0 2:1 30 2] [1] 1 0
r 0.295153471 _2_ AGT  --- 6 cbr 230 [5 2 0 0] ------- [0:0 2:0 30 2] [3] 1 0
r 0.301153471 _2_ AGT  --- 5 cbr 230 [5 2 1 0] ------- [1:0 2:1 30 2] [2] 1 0
s 0.324000000 _0_ AGT  --- 8 cbr 210 [0 0 0 0] ------- [0:0 2:0 32 0] [4] 0 0
s 0.324000000 _1_ AGT  --- 9 cbr 210 [0 0 0 0] ------- [1:0 2:1 32 0] [4] 0 0
r 0.325153471 _2_ AGT  --- 7 cbr 230 [5 2 1 0] ------- [1:0 2:1 30 2] [3] 1 0
r 0.343153471 _2_ AGT  --- 8 cbr 230 [5 2 0 0] ------- [0:0 2:0 30 2] [4] 1 0
r 0.349153471 _2_ AGT  --- 9 cbr 230 [5 2 1 0] ------- [1:0 2:1 30 2] [4] 1 0
s 0.380000000 _0_ AGT  --- 10 cbr 210 [0 0 0 0] ------- [0:0 2:0 32 0] [5] 0 0
s 0.380000000 _1_ AGT  --- 11 cbr 210 [0 0 0 0] ------- [1:0 2:1 32 0] [5] 0 0
r 0.391153471 _2_ AGT  --- 10 cbr 230 [5 2 0 0] ------- [0:0 2:0 30 2] [5] 1 0
r 0.397153471 _2_ AGT  --- 11 cbr 230 [5 2 1 0] ------- [1:0 2:1 30 2] [5] 1 0
s 0.436000000 _0_ AGT  --- 12 cbr 210 [0 0 0 0] ------- [0:0 2:0 32 0] [6] 0 0
s 0.436000000 _1_ AGT  --- 13 cbr 210 [0 0 0 0] ------- [1:0 2:1 32 0] [6] 0 0
r 0.463153471 _2_ AGT  --- 12 cbr 230 [5 2 0 0] ------- [0:0 2:0 30 2] [6] 1 0
r 0.469153471 _2_ AGT  --- 13 cbr 230 [5 2 1 0] ------- [1:0 2:1 30 2] [6] 1 0
s 0.492000000 _0_ AGT  --- 14 cbr 210 [0 0 0 0] ------- [0:0 2:0 32 0] [7] 0 0
s 0.492000000 _1_ AGT  --- 15 cbr 210 [0 0 0 0] ------- [1:0 2:1 32 0] [7] 0 0
r 0.511153471 _2_ AGT  --- 14 cbr 230 [5 2 0 0] ------- [0:0 2:0 30 2] [7] 1 0
r 0.517153471 _2_ AGT  --- 15 cbr 230 [5 2 1 0] ------- [1:0 2:1 30 2] [7] 1 0
s 0.548000000 _0_ AGT  --- 16 cbr 210 [0 0 0 0] ------- [0:0 2:0 32 0] [8] 0 0
s 0.548000000 _1_ AGT  --- 17 cbr 210 [0 0 0 0] ------- [1:0 2:1 32 0] [8] 0 0
r 0.559153471 _2_ AGT  --- 16 cbr 230 [5 2 0 0] ------- [0:0 2:0 30 2] [8] 1 0
r 0.565153471 _2_ AGT  --- 17 cbr 230 [5 2 1 0] ------- [1:0 2:1 30 2] [8] 1 0
s 0.604000000 _0_ AGT  --- 18 cbr 210 [0 0 0 0] ------- [0:0 2:0 32 0] [9] 0 0
s 0.604000000 _1_ AGT  --- 19 cbr 210 [0 0 0 0] ------- [1:0 2:1 32 0] [9] 0 0
r 0.631153471 _2_ AGT  --- 18 cbr 230 [5 2 0 0] ------- [0:0 2:0 30 2] [9] 1 0
r 0.637153471 _2_ AGT  --- 19 cbr 230 [5 2 1 0] ------- [1:0 2:1 30 2] [9] 1 0
s 0.660000000 _0_ AGT  --- 20 cbr 210 [0 0 0 0] ------- [0:0 2:0 32 0] [10] 0 0
s 0.660000000 _1_ AGT  --- 21 cbr 210 [0 0 0 0] ------- [1:0 2:1 32 0] [10] 0 0
r 0.679153471 _2_ AGT  --- 20 cbr 230 [5 2 0 0] ------- [0:0 2:0 30 2] [10] 1 0
r 0.685153471 _2_ AGT  --- 21 cbr 230 [5 2 1 0] ------- [1:0 2:1 30 2] [10] 1 0
s 0.716000000 _0_ AGT  --- 22 cbr 210 [0 0 0 0] ------- [0:0 2:0 32 0] [11] 0 0
s 0.716000000 _1_ AGT  --- 23 cbr 210 [0 0 0 0] ------- [1:0 2:1 32 0] [11] 0 0
r 0.727153471 _2_ AGT  --- 22 cbr 230 [5 2 0 0] ------- [0:0 2:0 30 2] [11] 1 0
r 0.733153471 _2_ AGT  --- 23 cbr 230 [5 2 1 0] ------- [1:0 2:1 30 2] [11] 1 0
s 0.772000000 _0_ AGT  --- 24 cbr 210 [0 0 0 0] ------- [0:0 2:0 32 0] [12] 0 0
s 0.772000000 _1_ AGT  --- 25 cbr 210 [0 0 0 0] ------- [1:0 2:1 32 0] [12] 0 0
r 0.799153471 _2_ AGT  --- 24 cbr 230 [5 2 0 0] ------- [0:0 2:0 30 2] [12] 1 0
r 0.805153471 _2_ AGT  --- 25 cbr 230 [5 2 1 0] ------- [1:0 2:1 30 2] [12] 1 0
s 0.828000000 _0_ AGT  --- 26 cbr 210 [0 0 0 0] ------- [0:0 2:0 32 0] [13] 0 0
s 0.828000000 _1_ AGT  --- 27 cbr 210 [0 0 0 0] ------- [1:0 2:1 32 0] [13] 0 0
r 0.847153471 _2_ AGT  --- 26 cbr 230 [5 2 0 0] ------- [0:0 2:0 30 2] [13] 1 0
r 0.853153471 _2_ AGT  --- 27 cbr 230 [5 2 1 0] ------- [1:0 2:1 30 2] [13] 1 0
s 0.884000000 _0_ AGT  --- 28 cbr 210 [0 0 0 0] ------- [0:0 2:0 32 0] [14] 0 0
s 0.884000000 _1_ AGT  --- 29 cbr 210 [0 0 0 0] ------- [1:0 2:1 32 0] [14] 0 0
r 0.895153471 _2_ AGT  --- 28 cbr 230 [5 2 0 0] ------- [0:0 2:0 30 2] [14] 1 0
r 0.901153471 _2_ AGT  --- 29 cbr 230 [5 2 1 0] ------- [1:0 2:1 30 2] [14] 1 0
s 0.940000000 _0_ AGT  --- 30 cbr 210 [0 0 0 0] ------- [0:0 2:0 32 0] [15] 0 0
s 0.940000000 _1_ AGT  --- 31 cbr 210 [0 0 0 0] ------- [1:0 2:1 32 0] [15] 0 0
r 0.967153471 _2_ AGT  --- 30 cbr 230 [5 2 0 0] ------- [0:0 2:0 30 2] [15] 1 0
r 0.973153471 _2_ AGT  --- 31 cbr 230 [5 2 1 0] ------- [1:0 2:1 30 2] [15] 1 0
s 0.996000000 _0_ AGT  --- 32 cbr 210 [0 0 0 0] ------- [0:0 2:0 32 0] [16] 0 0
s 0.996000000 _1_ AGT  --- 33 cbr 210 [0 0 0 0] ------- [1:0 2:1 32 0] [16] 0 0
r 1.015153471 _2_ AGT  --- 32 cbr 230 [5 2 0 0] ------- [0:0 2:0 30 2] [16] 1 0
r 1.021153471 _2_ AGT  --- 33 cbr 230 [5 2 1 0] ------- [1:0 2:1 30 2] [16] 1 0
s 1.052000000 _0_ AGT  --- 34 cbr 210 [0 0 0 0] ------- [0:0 2:0 32 0] [17] 0 0
s 1.052000000 _1_ AGT  --- 35 cbr 210 [0 0 0 0] ------- [1:0 2:1 32 0] [17] 0 0
r 1.063153471 _2_ AGT  --- 34 cbr 230 [5 2 0 0] ------- [0:0 2:0 30 2] [17] 1 0
r 1.069153471 _2_ AGT  --- 35 cbr 230 [5 2 1 0] ------- [1:0 2:1 30 2] [17] 1 0
s 1.108000000 _0_ AGT  --- 36 cbr 210 [0 0 0 0] ------- [0:0 2:0 32 0] [18] 0 0
s 1.108000000 _1_ AGT  --- 37 cbr 210 [0 0 0 0] ------- [1:0 2:1 32 0] [18] 0 0
r 1.135153471 _2_ AGT  --- 36 cbr 230 [5 2 0 0] ------- [0:0 2:0 30 2] [18] 1 0
r 1.141153471 _2_ AGT  --- 37 cbr 230 [5 2 1 0] ------- [1:0 2:1 30 2] [18] 1 0
s 1.164000000 _0_ AGT  --- 38 cbr 210 [0 0 0 0] ------- [0:0 2:0 32 0] [19] 0 0
s 1.164000000 _1_ AGT  --- 39 cbr 210 [0 0 0 0] ------- [1:0 2:1 32 0] [19] 0 0
r 1.183153471 _2_ AGT  --- 38 cbr 230 [5 2 0 0] ------- [0:0 2:0 30 2] [19] 1 0
r 1.189153471 _2_ AGT  --- 39 cbr 230 [5 2 1 0] ------- [1:0 2:1 30 2] [19] 1 0
s 1.220000000 _0_ AGT  --- 40 cbr 210 [0 0 0 0] ------- [0:0 2:0 32 0] [20] 0 0
s 1.220000000 _1_ AGT  --- 41 cbr 210 [0 0 0 0] ------- [1:0 2:1 32 0] [20] 0 0
r 1.231153471 _2_ AGT  --- 40 cbr 230 [5 2 0 0] ------- [0:0 2:0 30 2] [20] 1 0
r 1.237153471 _2_ AGT  --- 41 cbr 230 [5 2 1 0] ------- [1:0 2:1 30 2] [20] 1 0
s 1.276000000 _0_ AGT  --- 42 cbr 210 [0 0 0 0] ------- [0:0 2:0 32 0] [21] 0 0
s 1.276000000 _1_ AGT  --- 43 cbr 210 [0 0 0 0] ------- [1:0 2:1 32 0] [21] 0 0
r 1.303153471 _2_ AGT  --- 42 cbr 230 [5 2 0 0] ------- [0:0 2:0 30 2] [21] 1 0
r 1.309153471 _2_ AGT  --- 43 cbr 230 [5 2 1 0] ------- [1:0 2:1 30 2] [21] 1 0
s 1.332000000 _0_ AGT  --- 44 cbr 210 [0 0 0 0] ------- [0:0 2:0 32 0] [22] 0 0
s 1.332000000 _1_ AGT  --- 45 cbr 210 [0 0 0 0] ------- [1:0 2:1 32 0] [22] 0 0
r 1.351153471 _2_ AGT  --- 44 cbr 230 [5 2 0 0] ------- [0:0 2:0 30 2] [22] 1 0
r 1.357153471 _2_ AGT  --- 45 cbr 230 [5 2 1 0] ------- [1:0 2:1 30 2] [22] 1 0
s 1.388000000 _0_ AGT  --- 46 cbr 210 [0 0 0 0] ------- [0:0 2:0 32 0] [23] 0 0
s 1.388000000 _1_ AGT  --- 47 cbr 210 [0 0 0 0] ------- [1:0 2:1 32 0] [23] 0 0
r 1.399153471 _2_ AGT  --- 46 cbr 230 [5 2 0 0] ------- [0:0 2:0 30 2] [23] 1 0
r 1.405153471 _2_ AGT  --- 47 cbr 230 [5 2 1 0] ------- [1:0 2:1 30 2] [23] 1 0
s 1.444000000 _0_ AGT  --- 48 cbr 210 [0 0 0 0] ------- [0:0 2:0 32 0] [24] 0 0
s 1.444000000 _1_ AGT  --- 49 cbr 210 [0 0 0 0] ------- [1:0 2:1 32 0] [24] 0 0
r 1.471153471 _2_ AGT  --- 48 cbr 230 [5 2 0 0] ------- [0:0 2:0 30 2] [24] 1 0
r 1.477153471 _2_ AGT  --- 49 cbr 230 [5 2 1 0] ------- [1:0 2:1 30 2] [24] 1 0
s 1.500000000 _0_ AGT  --- 50 cbr 210 [0 0 0 0] ------- [0:0 2:0 32 0] [25] 0 0
s 1.500000000 _1_ AGT  --- 51 cbr 210 [0 0 0 0] ------- [1:0 2:1 32 0] [25] 0 0
r 1.519153471 _2_ AGT  --- 50 cbr 230 [5 2 0 0] ------- [0:0 2:0 30 2] [25] 1 0
r 1.525153471 _2_ AGT  --- 51 cbr 230 [5 2 1 0] ------- [1:0 2:1 30 2] [25] 1 0
s 1.556000000 _0_ AGT  --- 52 cbr 210 [0 0 0 0] ------- [0:0 2:0 32 0] [26] 0 0
s 1.556000000 _1_ AGT  --- 53 cbr 210 [0 0 0 0] ------- [1:0 2:1 32 0] [26] 0 0
r 1.567153471 _2_ AGT  --- 52 cbr 230 [5 2 0 0] ------- [0:0 2:0 30 2] [26] 1 0
r 1.573153471 _2_ AGT  --- 53 cbr 230 [5 2 1 0] ------- [1:0 2:1 30 2] [26] 1 0
s 1.612000000 _0_ AGT  --- 54 cbr 210 [0 0 0 0] ------- [0:0 2:0 32 0] [27] 0 0
s 1.612000000 _1_ AGT  --- 55 cbr 210 [0 0 0 0] ------- [1:0 2:1 32 0] [27] 0 0
r 1.639153471 _2_ AGT  --- 54 cbr 230 [5 2 0 0] ------- [0:0 2:0 30 2] [27] 1 0
r 1.645153471 _2_ AGT  --- 55 cbr 230 [5 2 1 0] ------- [1:0 2:1 30 2] [27] 1 0
s 1.668000000 _0_ AGT  --- 56 cbr 210 [0 0 0 0] ------- [0:0 2:0 32 0] [28] 0 0
s 1.668000000 _1_ AGT  --- 57 cbr 210 [0 0 0 0] ------- [1:0 2:1 32 0] [28] 0 0
r 1.687153471 _2_ AGT  --- 56 cbr 230 [5 2 0 0] ------- [0:0 2:0 30 2] [28] 1 0
r 1.693153471 _2_ AGT  --- 57 cbr 230 [5 2 1 0] ------- [1:0 2:1 30 2] [28] 1 0
s 1.724000000 _0_ AGT  --- 58 cbr 210 [0 0 0 0] ------- [0:0 2:0 32 0] [29] 0 0
s 1.724000000 _1_ AGT  --- 59 cbr 210 [0 0 0 0] ------- [1:0 2:1 32 0] [29] 0 0
r 1.735153471 _2_ AGT  --- 58 cbr 230 [5 2 0 0] ------- [0:0 2:0 30 2] [29] 1 0
r 1.741153471 _2_ AGT  --- 59 cbr 230 [5 2 1 0] ------- [1:0 2:1 30 2] [29] 1 0
s 1.780000000 _0_ AGT  --- 60 cbr 210 [0 0 0 0] ------- [0:0 2:0 32 0] [30] 0 0
s 1.780000000 _1_ AGT  --- 61 cbr 210 [0 0 0 0] ------- [1:0 2:1 32 0] [30] 0 0
r 1.807153471 _2_ AGT  --- 60 cbr 230 [5 2 0 0] ------- [0:0 2:0 30 2] [30] 1 0
r 1.813153471 _2_ AGT  --- 61 cbr 230 [5 2 1 0] ------- [1:0 2:1 30 2] [30] 1 0
s 1.836000000 _0_ AGT  --- 62 cbr 210 [0 0 0 0] ------- [0:0 2:0 32 0] [31] 0 0
s 1.836000000 _1_ AGT  --- 63 cbr 210 [0 0 0 0] ------- [1:0 2:1 32 0] [31] 0 0
r 1.855153471 _2_ AGT  --- 62 cbr 230 [5 2 0 0] ------- [0:0 2:0 30 2] [31] 1 0
r 1.861153471 _2_ AGT  --- 63 cbr 230 [5 2 1 0] ------- [1:0 2:1 30 2] [31] 1 0
s 1.892000000 _0_ AGT  --- 64 cbr 210 [0 0 0 0] ------- [0:0 2:0 32 0] [32] 0 0
s 1.892000000 _1_ AGT  --- 65 cbr 210 [0 0 0 0] ------- [1:0 2:1 32 0] [32] 0 0
r 1.903153471 _2_ AGT  --- 64 cbr 230 [5 2 0 0] ------- [0:0 2:0 30 2] [32] 1 0
r 1.909153471 _2_ AGT  --- 65 cbr 230 [5 2 1 0] ------- [1:0 2:1 30 2] [32] 1 0
s 1.948000000 _0_ AGT  --- 66 cbr 210 [0 0 0 0] ------- [0:0 2:0 32 0] [33] 0 0
s 1.948000000 _1_ AGT  --- 67 cbr 210 [0 0 0 0] ------- [1:0 2:1 32 0] [33] 0 0
r 1.975153471 _2_ AGT  --- 66 cbr 230 [5 2 0 0] ------- [0:0 2:0 30 2] [33] 1 0
r 1.981153471 _2_ AGT  --- 67 cbr 230 [5 2 1 0] ------- [1:0 2:1 30 2] [33] 1 0
