n -t * -s 0  -x 200 -y 800 -Z 0 -z 10  -v circle -c black
n -t * -s 1  -x 200 -y 570 -Z 0 -z 10  -v circle -c black
n -t * -s 2  -x 200 -y 340 -Z 0 -z 10  -v circle -c black
n -t * -s 3  -x 430 -y 630 -Z 0 -z 10  -v circle -c black
n -t * -s 4  -x 550 -y 630 -Z 0 -z 10  -v circle -c black
n -t * -s 5  -x 200 -y 110 -Z 0 -z 10  -v circle -c black
V -t * -v 1.0a5 -a 0
W -t * -x 1000 -y 1000
A -t * -n 1 -p 0 -o 0x7fffffff -c 30 -a 1
A -t * -h 1 -m 1073741823 -s 0
+ -t 0.000000000 -s 0 -d -1 -p AODV -e 44 -c 2 -a 0 -i 0 -k RTR 
- -t 0.000000000 -s 0 -d -1 -p AODV -e 44 -c 2 -a 0 -i 0 -k RTR
h -t 0.000000000 -s 0 -d -1 -p AODV -e 44 -c 2 -a 0 -i 0 -k RTR
+ -t 0.000000000 -s 1 -d -1 -p AODV -e 44 -c 2 -a 0 -i 0 -k RTR 
- -t 0.000000000 -s 1 -d -1 -p AODV -e 44 -c 2 -a 0 -i 0 -k RTR
h -t 0.000000000 -s 1 -d -1 -p AODV -e 44 -c 2 -a 0 -i 0 -k RTR
+ -t 0.000000000 -s 2 -d -1 -p AODV -e 44 -c 2 -a 0 -i 0 -k RTR 
- -t 0.000000000 -s 2 -d -1 -p AODV -e 44 -c 2 -a 0 -i 0 -k RTR
h -t 0.000000000 -s 2 -d -1 -p AODV -e 44 -c 2 -a 0 -i 0 -k RTR
+ -t 0.000000000 -s 3 -d -1 -p AODV -e 44 -c 2 -a 0 -i 0 -k RTR 
- -t 0.000000000 -s 3 -d -1 -p AODV -e 44 -c 2 -a 0 -i 0 -k RTR
h -t 0.000000000 -s 3 -d -1 -p AODV -e 44 -c 2 -a 0 -i 0 -k RTR
+ -t 0.000000000 -s 4 -d -1 -p AODV -e 44 -c 2 -a 0 -i 0 -k RTR 
- -t 0.000000000 -s 4 -d -1 -p AODV -e 44 -c 2 -a 0 -i 0 -k RTR
h -t 0.000000000 -s 4 -d -1 -p AODV -e 44 -c 2 -a 0 -i 0 -k RTR
+ -t 0.000000000 -s 5 -d -1 -p AODV -e 44 -c 2 -a 0 -i 0 -k RTR 
- -t 0.000000000 -s 5 -d -1 -p AODV -e 44 -c 2 -a 0 -i 0 -k RTR
h -t 0.000000000 -s 5 -d -1 -p AODV -e 44 -c 2 -a 0 -i 0 -k RTR
+ -t 0.100000000 -s 1 -d -1 -p AODV -e 48 -c 2 -a 0 -i 0 -k RTR 
- -t 0.100000000 -s 1 -d -1 -p AODV -e 48 -c 2 -a 0 -i 0 -k RTR
h -t 0.100000000 -s 1 -d -1 -p AODV -e 48 -c 2 -a 0 -i 0 -k RTR
r -t 0.132425767 -s 0 -d -1 -p AODV -e 48 -c 2 -a 0 -i 0 -k RTR
r -t 0.132425767 -s 2 -d -1 -p AODV -e 48 -c 2 -a 0 -i 0 -k RTR
+ -t 0.132425767 -s 0 -d 1 -p AODV -e 44 -c 2 -a 0 -i 0 -k RTR 
- -t 0.132425767 -s 0 -d 1 -p AODV -e 44 -c 2 -a 0 -i 0 -k RTR
h -t 0.132425767 -s 0 -d 1 -p AODV -e 44 -c 2 -a 0 -i 0 -k RTR
r -t 0.132425792 -s 3 -d -1 -p AODV -e 48 -c 2 -a 0 -i 0 -k RTR
+ -t 0.135555384 -s 2 -d -1 -p AODV -e 48 -c 2 -a 0 -i 0 -k RTR 
- -t 0.135555384 -s 2 -d -1 -p AODV -e 48 -c 2 -a 0 -i 0 -k RTR
h -t 0.135555384 -s 2 -d -1 -p AODV -e 48 -c 2 -a 0 -i 0 -k RTR
r -t 0.138425767 -s 5 -d -1 -p AODV -e 48 -c 2 -a 0 -i 0 -k RTR
+ -t 0.140590553 -s 3 -d -1 -p AODV -e 48 -c 2 -a 0 -i 0 -k RTR 
- -t 0.140590553 -s 3 -d -1 -p AODV -e 48 -c 2 -a 0 -i 0 -k RTR
h -t 0.140590553 -s 3 -d -1 -p AODV -e 48 -c 2 -a 0 -i 0 -k RTR
+ -t 0.140771784 -s 5 -d -1 -p AODV -e 48 -c 2 -a 0 -i 0 -k RTR 
- -t 0.140771784 -s 5 -d -1 -p AODV -e 48 -c 2 -a 0 -i 0 -k RTR
h -t 0.140771784 -s 5 -d -1 -p AODV -e 48 -c 2 -a 0 -i 0 -k RTR
r -t 0.174425400 -s 4 -d -1 -p AODV -e 48 -c 2 -a 0 -i 0 -k RTR
+ -t 0.180409767 -s 1 -d 0 -p cbr -e 230 -c 2 -a 0 -i 0 -k RTR 
- -t 0.180409767 -s 1 -d 0 -p cbr -e 230 -c 2 -a 0 -i 0 -k RTR
h -t 0.180409767 -s 1 -d 0 -p cbr -e 230 -c 2 -a 0 -i 0 -k RTR
+ -t 0.180814051 -s 4 -d -1 -p AODV -e 48 -c 2 -a 0 -i 0 -k RTR 
- -t 0.180814051 -s 4 -d -1 -p AODV -e 48 -c 2 -a 0 -i 0 -k RTR
h -t 0.180814051 -s 4 -d -1 -p AODV -e 48 -c 2 -a 0 -i 0 -k RTR
+ -t 0.190409767 -s 1 -d 0 -p cbr -e 230 -c 2 -a 0 -i 1 -k RTR 
- -t 0.190409767 -s 1 -d 0 -p cbr -e 230 -c 2 -a 0 -i 1 -k RTR
h -t 0.190409767 -s 1 -d 0 -p cbr -e 230 -c 2 -a 0 -i 1 -k RTR
+ -t 0.212000000 -s 1 -d 0 -p cbr -e 230 -c 2 -a 0 -i 2 -k RTR 
- -t 0.212000000 -s 1 -d 0 -p cbr -e 230 -c 2 -a 0 -i 2 -k RTR
h -t 0.212000000 -s 1 -d 0 -p cbr -e 230 -c 2 -a 0 -i 2 -k RTR
r -t 0.216425400 -s 3 -d -1 -p AODV -e 48 -c 2 -a 0 -i 0 -k RTR
+ -t 0.268000000 -s 1 -d 0 -p cbr -e 230 -c 2 -a 0 -i 3 -k RTR 
- -t 0.268000000 -s 1 -d 0 -p cbr -e 230 -c 2 -a 0 -i 3 -k RTR
h -t 0.268000000 -s 1 -d 0 -p cbr -e 230 -c 2 -a 0 -i 3 -k RTR
+ -t 0.324000000 -s 1 -d 0 -p cbr -e 230 -c 2 -a 0 -i 4 -k RTR 
- -t 0.324000000 -s 1 -d 0 -p cbr -e 230 -c 2 -a 0 -i 4 -k RTR
h -t 0.324000000 -s 1 -d 0 -p cbr -e 230 -c 2 -a 0 -i 4 -k RTR
+ -t 0.380000000 -s 1 -d 0 -p cbr -e 230 -c 2 -a 0 -i 5 -k RTR 
- -t 0.380000000 -s 1 -d 0 -p cbr -e 230 -c 2 -a 0 -i 5 -k RTR
h -t 0.380000000 -s 1 -d 0 -p cbr -e 230 -c 2 -a 0 -i 5 -k RTR
+ -t 0.436000000 -s 1 -d 0 -p cbr -e 230 -c 2 -a 0 -i 6 -k RTR 
- -t 0.436000000 -s 1 -d 0 -p cbr -e 230 -c 2 -a 0 -i 6 -k RTR
h -t 0.436000000 -s 1 -d 0 -p cbr -e 230 -c 2 -a 0 -i 6 -k RTR
+ -t 0.492000000 -s 1 -d 0 -p cbr -e 230 -c 2 -a 0 -i 7 -k RTR 
- -t 0.492000000 -s 1 -d 0 -p cbr -e 230 -c 2 -a 0 -i 7 -k RTR
h -t 0.492000000 -s 1 -d 0 -p cbr -e 230 -c 2 -a 0 -i 7 -k RTR
+ -t 0.548000000 -s 1 -d 0 -p cbr -e 230 -c 2 -a 0 -i 8 -k RTR 
- -t 0.548000000 -s 1 -d 0 -p cbr -e 230 -c 2 -a 0 -i 8 -k RTR
h -t 0.548000000 -s 1 -d 0 -p cbr -e 230 -c 2 -a 0 -i 8 -k RTR
+ -t 0.604000000 -s 1 -d 0 -p cbr -e 230 -c 2 -a 0 -i 9 -k RTR 
- -t 0.604000000 -s 1 -d 0 -p cbr -e 230 -c 2 -a 0 -i 9 -k RTR
h -t 0.604000000 -s 1 -d 0 -p cbr -e 230 -c 2 -a 0 -i 9 -k RTR
+ -t 0.660000000 -s 1 -d 0 -p cbr -e 230 -c 2 -a 0 -i 10 -k RTR 
- -t 0.660000000 -s 1 -d 0 -p cbr -e 230 -c 2 -a 0 -i 10 -k RTR
h -t 0.660000000 -s 1 -d 0 -p cbr -e 230 -c 2 -a 0 -i 10 -k RTR
+ -t 0.716000000 -s 1 -d 0 -p cbr -e 230 -c 2 -a 0 -i 11 -k RTR 
- -t 0.716000000 -s 1 -d 0 -p cbr -e 230 -c 2 -a 0 -i 11 -k RTR
h -t 0.716000000 -s 1 -d 0 -p cbr -e 230 -c 2 -a 0 -i 11 -k RTR
+ -t 0.750169789 -s 0 -d -1 -p AODV -e 44 -c 2 -a 0 -i 0 -k RTR 
- -t 0.750169789 -s 0 -d -1 -p AODV -e 44 -c 2 -a 0 -i 0 -k RTR
h -t 0.750169789 -s 0 -d -1 -p AODV -e 44 -c 2 -a 0 -i 0 -k RTR
+ -t 0.757102330 -s 2 -d -1 -p AODV -e 44 -c 2 -a 0 -i 0 -k RTR 
- -t 0.757102330 -s 2 -d -1 -p AODV -e 44 -c 2 -a 0 -i 0 -k RTR
h -t 0.757102330 -s 2 -d -1 -p AODV -e 44 -c 2 -a 0 -i 0 -k RTR
r -t 0.762409767 -s 1 -d -1 -p AODV -e 44 -c 2 -a 0 -i 0 -k RTR
r -t 0.762409767 -s 5 -d -1 -p AODV -e 44 -c 2 -a 0 -i 0 -k RTR
+ -t 0.772000000 -s 1 -d 0 -p cbr -e 230 -c 2 -a 0 -i 12 -k RTR 
- -t 0.772000000 -s 1 -d 0 -p cbr -e 230 -c 2 -a 0 -i 12 -k RTR
h -t 0.772000000 -s 1 -d 0 -p cbr -e 230 -c 2 -a 0 -i 12 -k RTR
+ -t 0.794061336 -s 3 -d -1 -p AODV -e 44 -c 2 -a 0 -i 0 -k RTR 
- -t 0.794061336 -s 3 -d -1 -p AODV -e 44 -c 2 -a 0 -i 0 -k RTR
h -t 0.794061336 -s 3 -d -1 -p AODV -e 44 -c 2 -a 0 -i 0 -k RTR
r -t 0.804409400 -s 4 -d -1 -p AODV -e 44 -c 2 -a 0 -i 0 -k RTR
r -t 0.804409792 -s 1 -d -1 -p AODV -e 44 -c 2 -a 0 -i 0 -k RTR
+ -t 0.828000000 -s 1 -d 0 -p cbr -e 230 -c 2 -a 0 -i 13 -k RTR 
- -t 0.828000000 -s 1 -d 0 -p cbr -e 230 -c 2 -a 0 -i 13 -k RTR
h -t 0.828000000 -s 1 -d 0 -p cbr -e 230 -c 2 -a 0 -i 13 -k RTR
+ -t 0.884000000 -s 1 -d 0 -p cbr -e 230 -c 2 -a 0 -i 14 -k RTR 
- -t 0.884000000 -s 1 -d 0 -p cbr -e 230 -c 2 -a 0 -i 14 -k RTR
h -t 0.884000000 -s 1 -d 0 -p cbr -e 230 -c 2 -a 0 -i 14 -k RTR
+ -t 0.940000000 -s 1 -d 0 -p cbr -e 230 -c 2 -a 0 -i 15 -k RTR 
- -t 0.940000000 -s 1 -d 0 -p cbr -e 230 -c 2 -a 0 -i 15 -k RTR
h -t 0.940000000 -s 1 -d 0 -p cbr -e 230 -c 2 -a 0 -i 15 -k RTR
+ -t 0.970586691 -s 4 -d -1 -p AODV -e 44 -c 2 -a 0 -i 0 -k RTR 
- -t 0.970586691 -s 4 -d -1 -p AODV -e 44 -c 2 -a 0 -i 0 -k RTR
h -t 0.970586691 -s 4 -d -1 -p AODV -e 44 -c 2 -a 0 -i 0 -k RTR
r -t 0.972409400 -s 3 -d -1 -p AODV -e 44 -c 2 -a 0 -i 0 -k RTR
+ -t 0.996000000 -s 1 -d 0 -p cbr -e 230 -c 2 -a 0 -i 16 -k RTR 
- -t 0.996000000 -s 1 -d 0 -p cbr -e 230 -c 2 -a 0 -i 16 -k RTR
h -t 0.996000000 -s 1 -d 0 -p cbr -e 230 -c 2 -a 0 -i 16 -k RTR
+ -t 1.027940358 -s 1 -d -1 -p AODV -e 44 -c 2 -a 0 -i 0 -k RTR 
- -t 1.027940358 -s 1 -d -1 -p AODV -e 44 -c 2 -a 0 -i 0 -k RTR
h -t 1.027940358 -s 1 -d -1 -p AODV -e 44 -c 2 -a 0 -i 0 -k RTR
+ -t 1.052000000 -s 1 -d 0 -p cbr -e 230 -c 2 -a 0 -i 17 -k RTR 
- -t 1.052000000 -s 1 -d 0 -p cbr -e 230 -c 2 -a 0 -i 17 -k RTR
h -t 1.052000000 -s 1 -d 0 -p cbr -e 230 -c 2 -a 0 -i 17 -k RTR
r -t 1.056409767 -s 0 -d -1 -p AODV -e 44 -c 2 -a 0 -i 0 -k RTR
r -t 1.056409767 -s 2 -d -1 -p AODV -e 44 -c 2 -a 0 -i 0 -k RTR
r -t 1.056409792 -s 3 -d -1 -p AODV -e 44 -c 2 -a 0 -i 0 -k RTR
+ -t 1.108000000 -s 1 -d 0 -p cbr -e 230 -c 2 -a 0 -i 18 -k RTR 
- -t 1.108000000 -s 1 -d 0 -p cbr -e 230 -c 2 -a 0 -i 18 -k RTR
h -t 1.108000000 -s 1 -d 0 -p cbr -e 230 -c 2 -a 0 -i 18 -k RTR
+ -t 1.149577727 -s 5 -d -1 -p AODV -e 44 -c 2 -a 0 -i 0 -k RTR 
- -t 1.149577727 -s 5 -d -1 -p AODV -e 44 -c 2 -a 0 -i 0 -k RTR
h -t 1.149577727 -s 5 -d -1 -p AODV -e 44 -c 2 -a 0 -i 0 -k RTR
+ -t 1.164000000 -s 1 -d 0 -p cbr -e 230 -c 2 -a 0 -i 19 -k RTR 
- -t 1.164000000 -s 1 -d 0 -p cbr -e 230 -c 2 -a 0 -i 19 -k RTR
h -t 1.164000000 -s 1 -d 0 -p cbr -e 230 -c 2 -a 0 -i 19 -k RTR
r -t 1.182409767 -s 2 -d -1 -p AODV -e 44 -c 2 -a 0 -i 0 -k RTR
+ -t 1.220000000 -s 1 -d 0 -p cbr -e 230 -c 2 -a 0 -i 20 -k RTR 
- -t 1.220000000 -s 1 -d 0 -p cbr -e 230 -c 2 -a 0 -i 20 -k RTR
h -t 1.220000000 -s 1 -d 0 -p cbr -e 230 -c 2 -a 0 -i 20 -k RTR
+ -t 1.276000000 -s 1 -d 0 -p cbr -e 230 -c 2 -a 0 -i 21 -k RTR 
- -t 1.276000000 -s 1 -d 0 -p cbr -e 230 -c 2 -a 0 -i 21 -k RTR
h -t 1.276000000 -s 1 -d 0 -p cbr -e 230 -c 2 -a 0 -i 21 -k RTR
+ -t 1.332000000 -s 1 -d 0 -p cbr -e 230 -c 2 -a 0 -i 22 -k RTR 
- -t 1.332000000 -s 1 -d 0 -p cbr -e 230 -c 2 -a 0 -i 22 -k RTR
h -t 1.332000000 -s 1 -d 0 -p cbr -e 230 -c 2 -a 0 -i 22 -k RTR
+ -t 1.388000000 -s 1 -d 0 -p cbr -e 230 -c 2 -a 0 -i 23 -k RTR 
- -t 1.388000000 -s 1 -d 0 -p cbr -e 230 -c 2 -a 0 -i 23 -k RTR
h -t 1.388000000 -s 1 -d 0 -p cbr -e 230 -c 2 -a 0 -i 23 -k RTR
+ -t 1.444000000 -s 1 -d 0 -p cbr -e 230 -c 2 -a 0 -i 24 -k RTR 
- -t 1.444000000 -s 1 -d 0 -p cbr -e 230 -c 2 -a 0 -i 24 -k RTR
h -t 1.444000000 -s 1 -d 0 -p cbr -e 230 -c 2 -a 0 -i 24 -k RTR
+ -t 1.500000000 -s 1 -d 0 -p cbr -e 230 -c 2 -a 0 -i 25 -k RTR 
- -t 1.500000000 -s 1 -d 0 -p cbr -e 230 -c 2 -a 0 -i 25 -k RTR
h -t 1.500000000 -s 1 -d 0 -p cbr -e 230 -c 2 -a 0 -i 25 -k RTR
+ -t 1.556000000 -s 1 -d 0 -p cbr -e 230 -c 2 -a 0 -i 26 -k RTR 
- -t 1.556000000 -s 1 -d 0 -p cbr -e 230 -c 2 -a 0 -i 26 -k RTR
h -t 1.556000000 -s 1 -d 0 -p cbr -e 230 -c 2 -a 0 -i 26 -k RTR
+ -t 1.612000000 -s 1 -d 0 -p cbr -e 230 -c 2 -a 0 -i 27 -k RTR 
- -t 1.612000000 -s 1 -d 0 -p cbr -e 230 -c 2 -a 0 -i 27 -k RTR
h -t 1.612000000 -s 1 -d 0 -p cbr -e 230 -c 2 -a 0 -i 27 -k RTR
+ -t 1.626134039 -s 3 -d -1 -p AODV -e 44 -c 2 -a 0 -i 0 -k RTR 
- -t 1.626134039 -s 3 -d -1 -p AODV -e 44 -c 2 -a 0 -i 0 -k RTR
h -t 1.626134039 -s 3 -d -1 -p AODV -e 44 -c 2 -a 0 -i 0 -k RTR
r -t 1.644409400 -s 4 -d -1 -p AODV -e 44 -c 2 -a 0 -i 0 -k RTR
r -t 1.644409792 -s 1 -d -1 -p AODV -e 44 -c 2 -a 0 -i 0 -k RTR
+ -t 1.654709318 -s 0 -d -1 -p AODV -e 44 -c 2 -a 0 -i 0 -k RTR 
- -t 1.654709318 -s 0 -d -1 -p AODV -e 44 -c 2 -a 0 -i 0 -k RTR
h -t 1.654709318 -s 0 -d -1 -p AODV -e 44 -c 2 -a 0 -i 0 -k RTR
+ -t 1.668000000 -s 1 -d 0 -p cbr -e 230 -c 2 -a 0 -i 28 -k RTR 
- -t 1.668000000 -s 1 -d 0 -p cbr -e 230 -c 2 -a 0 -i 28 -k RTR
h -t 1.668000000 -s 1 -d 0 -p cbr -e 230 -c 2 -a 0 -i 28 -k RTR
r -t 1.686409767 -s 1 -d -1 -p AODV -e 44 -c 2 -a 0 -i 0 -k RTR
+ -t 1.724000000 -s 1 -d 0 -p cbr -e 230 -c 2 -a 0 -i 29 -k RTR 
- -t 1.724000000 -s 1 -d 0 -p cbr -e 230 -c 2 -a 0 -i 29 -k RTR
h -t 1.724000000 -s 1 -d 0 -p cbr -e 230 -c 2 -a 0 -i 29 -k RTR
+ -t 1.741983970 -s 4 -d -1 -p AODV -e 44 -c 2 -a 0 -i 0 -k RTR 
- -t 1.741983970 -s 4 -d -1 -p AODV -e 44 -c 2 -a 0 -i 0 -k RTR
h -t 1.741983970 -s 4 -d -1 -p AODV -e 44 -c 2 -a 0 -i 0 -k RTR
r -t 1.770409400 -s 3 -d -1 -p AODV -e 44 -c 2 -a 0 -i 0 -k RTR
+ -t 1.780000000 -s 1 -d 0 -p cbr -e 230 -c 2 -a 0 -i 30 -k RTR 
- -t 1.780000000 -s 1 -d 0 -p cbr -e 230 -c 2 -a 0 -i 30 -k RTR
h -t 1.780000000 -s 1 -d 0 -p cbr -e 230 -c 2 -a 0 -i 30 -k RTR
+ -t 1.836000000 -s 1 -d 0 -p cbr -e 230 -c 2 -a 0 -i 31 -k RTR 
- -t 1.836000000 -s 1 -d 0 -p cbr -e 230 -c 2 -a 0 -i 31 -k RTR
h -t 1.836000000 -s 1 -d 0 -p cbr -e 230 -c 2 -a 0 -i 31 -k RTR
+ -t 1.892000000 -s 1 -d 0 -p cbr -e 230 -c 2 -a 0 -i 32 -k RTR 
- -t 1.892000000 -s 1 -d 0 -p cbr -e 230 -c 2 -a 0 -i 32 -k RTR
h -t 1.892000000 -s 1 -d 0 -p cbr -e 230 -c 2 -a 0 -i 32 -k RTR
+ -t 1.925264099 -s 2 -d -1 -p AODV -e 44 -c 2 -a 0 -i 0 -k RTR 
- -t 1.925264099 -s 2 -d -1 -p AODV -e 44 -c 2 -a 0 -i 0 -k RTR
h -t 1.925264099 -s 2 -d -1 -p AODV -e 44 -c 2 -a 0 -i 0 -k RTR
r -t 1.938409767 -s 1 -d -1 -p AODV -e 44 -c 2 -a 0 -i 0 -k RTR
r -t 1.938409767 -s 5 -d -1 -p AODV -e 44 -c 2 -a 0 -i 0 -k RTR
+ -t 1.948000000 -s 1 -d 0 -p cbr -e 230 -c 2 -a 0 -i 33 -k RTR 
- -t 1.948000000 -s 1 -d 0 -p cbr -e 230 -c 2 -a 0 -i 33 -k RTR
h -t 1.948000000 -s 1 -d 0 -p cbr -e 230 -c 2 -a 0 -i 33 -k RTR
+ -t 1.956481851 -s 5 -d -1 -p AODV -e 44 -c 2 -a 0 -i 0 -k RTR 
- -t 1.956481851 -s 5 -d -1 -p AODV -e 44 -c 2 -a 0 -i 0 -k RTR
h -t 1.956481851 -s 5 -d -1 -p AODV -e 44 -c 2 -a 0 -i 0 -k RTR
r -t 1.980409767 -s 2 -d -1 -p AODV -e 44 -c 2 -a 0 -i 0 -k RTR
+ -t 2.004000000 -s 1 -d 0 -p cbr -e 230 -c 2 -a 0 -i 34 -k RTR 
- -t 2.004000000 -s 1 -d 0 -p cbr -e 230 -c 2 -a 0 -i 34 -k RTR
h -t 2.004000000 -s 1 -d 0 -p cbr -e 230 -c 2 -a 0 -i 34 -k RTR
+ -t 2.060000000 -s 1 -d 0 -p cbr -e 230 -c 2 -a 0 -i 35 -k RTR 
- -t 2.060000000 -s 1 -d 0 -p cbr -e 230 -c 2 -a 0 -i 35 -k RTR
h -t 2.060000000 -s 1 -d 0 -p cbr -e 230 -c 2 -a 0 -i 35 -k RTR
+ -t 2.097974188 -s 1 -d -1 -p AODV -e 44 -c 2 -a 0 -i 0 -k RTR 
- -t 2.097974188 -s 1 -d -1 -p AODV -e 44 -c 2 -a 0 -i 0 -k RTR
h -t 2.097974188 -s 1 -d -1 -p AODV -e 44 -c 2 -a 0 -i 0 -k RTR
r -t 2.106409767 -s 0 -d -1 -p AODV -e 44 -c 2 -a 0 -i 0 -k RTR
r -t 2.106409767 -s 2 -d -1 -p AODV -e 44 -c 2 -a 0 -i 0 -k RTR
r -t 2.106409792 -s 3 -d -1 -p AODV -e 44 -c 2 -a 0 -i 0 -k RTR
+ -t 2.116000000 -s 1 -d 0 -p cbr -e 230 -c 2 -a 0 -i 36 -k RTR 
- -t 2.116000000 -s 1 -d 0 -p cbr -e 230 -c 2 -a 0 -i 36 -k RTR
h -t 2.116000000 -s 1 -d 0 -p cbr -e 230 -c 2 -a 0 -i 36 -k RTR
+ -t 2.172000000 -s 1 -d 0 -p cbr -e 230 -c 2 -a 0 -i 37 -k RTR 
- -t 2.172000000 -s 1 -d 0 -p cbr -e 230 -c 2 -a 0 -i 37 -k RTR
h -t 2.172000000 -s 1 -d 0 -p cbr -e 230 -c 2 -a 0 -i 37 -k RTR
+ -t 2.228000000 -s 1 -d 0 -p cbr -e 230 -c 2 -a 0 -i 38 -k RTR 
- -t 2.228000000 -s 1 -d 0 -p cbr -e 230 -c 2 -a 0 -i 38 -k RTR
h -t 2.228000000 -s 1 -d 0 -p cbr -e 230 -c 2 -a 0 -i 38 -k RTR
+ -t 2.284000000 -s 1 -d 0 -p cbr -e 230 -c 2 -a 0 -i 39 -k RTR 
- -t 2.284000000 -s 1 -d 0 -p cbr -e 230 -c 2 -a 0 -i 39 -k RTR
h -t 2.284000000 -s 1 -d 0 -p cbr -e 230 -c 2 -a 0 -i 39 -k RTR
+ -t 2.340000000 -s 1 -d 0 -p cbr -e 230 -c 2 -a 0 -i 40 -k RTR 
- -t 2.340000000 -s 1 -d 0 -p cbr -e 230 -c 2 -a 0 -i 40 -k RTR
h -t 2.340000000 -s 1 -d 0 -p cbr -e 230 -c 2 -a 0 -i 40 -k RTR
+ -t 2.396000000 -s 1 -d 0 -p cbr -e 230 -c 2 -a 0 -i 41 -k RTR 
- -t 2.396000000 -s 1 -d 0 -p cbr -e 230 -c 2 -a 0 -i 41 -k RTR
h -t 2.396000000 -s 1 -d 0 -p cbr -e 230 -c 2 -a 0 -i 41 -k RTR
+ -t 2.452000000 -s 1 -d 0 -p cbr -e 230 -c 2 -a 0 -i 42 -k RTR 
- -t 2.452000000 -s 1 -d 0 -p cbr -e 230 -c 2 -a 0 -i 42 -k RTR
h -t 2.452000000 -s 1 -d 0 -p cbr -e 230 -c 2 -a 0 -i 42 -k RTR
+ -t 2.508000000 -s 1 -d 0 -p cbr -e 230 -c 2 -a 0 -i 43 -k RTR 
- -t 2.508000000 -s 1 -d 0 -p cbr -e 230 -c 2 -a 0 -i 43 -k RTR
h -t 2.508000000 -s 1 -d 0 -p cbr -e 230 -c 2 -a 0 -i 43 -k RTR
+ -t 2.564000000 -s 1 -d 0 -p cbr -e 230 -c 2 -a 0 -i 44 -k RTR 
- -t 2.564000000 -s 1 -d 0 -p cbr -e 230 -c 2 -a 0 -i 44 -k RTR
h -t 2.564000000 -s 1 -d 0 -p cbr -e 230 -c 2 -a 0 -i 44 -k RTR
+ -t 2.579386597 -s 4 -d -1 -p AODV -e 44 -c 2 -a 0 -i 0 -k RTR 
- -t 2.579386597 -s 4 -d -1 -p AODV -e 44 -c 2 -a 0 -i 0 -k RTR
h -t 2.579386597 -s 4 -d -1 -p AODV -e 44 -c 2 -a 0 -i 0 -k RTR
r -t 2.610409400 -s 3 -d -1 -p AODV -e 44 -c 2 -a 0 -i 0 -k RTR
+ -t 2.616537686 -s 0 -d -1 -p AODV -e 44 -c 2 -a 0 -i 0 -k RTR 
- -t 2.616537686 -s 0 -d -1 -p AODV -e 44 -c 2 -a 0 -i 0 -k RTR
h -t 2.616537686 -s 0 -d -1 -p AODV -e 44 -c 2 -a 0 -i 0 -k RTR
+ -t 2.620000000 -s 1 -d 0 -p cbr -e 230 -c 2 -a 0 -i 45 -k RTR 
- -t 2.620000000 -s 1 -d 0 -p cbr -e 230 -c 2 -a 0 -i 45 -k RTR
h -t 2.620000000 -s 1 -d 0 -p cbr -e 230 -c 2 -a 0 -i 45 -k RTR
r -t 2.652409767 -s 1 -d -1 -p AODV -e 44 -c 2 -a 0 -i 0 -k RTR
+ -t 2.676000000 -s 1 -d 0 -p cbr -e 230 -c 2 -a 0 -i 46 -k RTR 
- -t 2.676000000 -s 1 -d 0 -p cbr -e 230 -c 2 -a 0 -i 46 -k RTR
h -t 2.676000000 -s 1 -d 0 -p cbr -e 230 -c 2 -a 0 -i 46 -k RTR
+ -t 2.722333526 -s 2 -d -1 -p AODV -e 44 -c 2 -a 0 -i 0 -k RTR 
- -t 2.722333526 -s 2 -d -1 -p AODV -e 44 -c 2 -a 0 -i 0 -k RTR
h -t 2.722333526 -s 2 -d -1 -p AODV -e 44 -c 2 -a 0 -i 0 -k RTR
+ -t 2.732000000 -s 1 -d 0 -p cbr -e 230 -c 2 -a 0 -i 47 -k RTR 
- -t 2.732000000 -s 1 -d 0 -p cbr -e 230 -c 2 -a 0 -i 47 -k RTR
h -t 2.732000000 -s 1 -d 0 -p cbr -e 230 -c 2 -a 0 -i 47 -k RTR
r -t 2.736409767 -s 1 -d -1 -p AODV -e 44 -c 2 -a 0 -i 0 -k RTR
r -t 2.736409767 -s 5 -d -1 -p AODV -e 44 -c 2 -a 0 -i 0 -k RTR
+ -t 2.788000000 -s 1 -d 0 -p cbr -e 230 -c 2 -a 0 -i 48 -k RTR 
- -t 2.788000000 -s 1 -d 0 -p cbr -e 230 -c 2 -a 0 -i 48 -k RTR
h -t 2.788000000 -s 1 -d 0 -p cbr -e 230 -c 2 -a 0 -i 48 -k RTR
+ -t 2.805997888 -s 3 -d -1 -p AODV -e 44 -c 2 -a 0 -i 0 -k RTR 
- -t 2.805997888 -s 3 -d -1 -p AODV -e 44 -c 2 -a 0 -i 0 -k RTR
h -t 2.805997888 -s 3 -d -1 -p AODV -e 44 -c 2 -a 0 -i 0 -k RTR
r -t 2.820409400 -s 4 -d -1 -p AODV -e 44 -c 2 -a 0 -i 0 -k RTR
r -t 2.820409792 -s 1 -d -1 -p AODV -e 44 -c 2 -a 0 -i 0 -k RTR
+ -t 2.844000000 -s 1 -d 0 -p cbr -e 230 -c 2 -a 0 -i 49 -k RTR 
- -t 2.844000000 -s 1 -d 0 -p cbr -e 230 -c 2 -a 0 -i 49 -k RTR
h -t 2.844000000 -s 1 -d 0 -p cbr -e 230 -c 2 -a 0 -i 49 -k RTR
+ -t 2.900000000 -s 1 -d 0 -p cbr -e 230 -c 2 -a 0 -i 50 -k RTR 
- -t 2.900000000 -s 1 -d 0 -p cbr -e 230 -c 2 -a 0 -i 50 -k RTR
h -t 2.900000000 -s 1 -d 0 -p cbr -e 230 -c 2 -a 0 -i 50 -k RTR
+ -t 2.956000000 -s 1 -d 0 -p cbr -e 230 -c 2 -a 0 -i 51 -k RTR 
- -t 2.956000000 -s 1 -d 0 -p cbr -e 230 -c 2 -a 0 -i 51 -k RTR
h -t 2.956000000 -s 1 -d 0 -p cbr -e 230 -c 2 -a 0 -i 51 -k RTR
+ -t 3.012000000 -s 1 -d 0 -p cbr -e 230 -c 2 -a 0 -i 52 -k RTR 
- -t 3.012000000 -s 1 -d 0 -p cbr -e 230 -c 2 -a 0 -i 52 -k RTR
h -t 3.012000000 -s 1 -d 0 -p cbr -e 230 -c 2 -a 0 -i 52 -k RTR
+ -t 3.022344700 -s 1 -d -1 -p AODV -e 44 -c 2 -a 0 -i 0 -k RTR 
- -t 3.022344700 -s 1 -d -1 -p AODV -e 44 -c 2 -a 0 -i 0 -k RTR
h -t 3.022344700 -s 1 -d -1 -p AODV -e 44 -c 2 -a 0 -i 0 -k RTR
+ -t 3.068000000 -s 1 -d 0 -p cbr -e 230 -c 2 -a 0 -i 53 -k RTR 
- -t 3.068000000 -s 1 -d 0 -p cbr -e 230 -c 2 -a 0 -i 53 -k RTR
h -t 3.068000000 -s 1 -d 0 -p cbr -e 230 -c 2 -a 0 -i 53 -k RTR
r -t 3.072409767 -s 0 -d -1 -p AODV -e 44 -c 2 -a 0 -i 0 -k RTR
r -t 3.072409767 -s 2 -d -1 -p AODV -e 44 -c 2 -a 0 -i 0 -k RTR
r -t 3.072409792 -s 3 -d -1 -p AODV -e 44 -c 2 -a 0 -i 0 -k RTR
+ -t 3.109996128 -s 5 -d -1 -p AODV -e 44 -c 2 -a 0 -i 0 -k RTR 
- -t 3.109996128 -s 5 -d -1 -p AODV -e 44 -c 2 -a 0 -i 0 -k RTR
h -t 3.109996128 -s 5 -d -1 -p AODV -e 44 -c 2 -a 0 -i 0 -k RTR
r -t 3.114409767 -s 2 -d -1 -p AODV -e 44 -c 2 -a 0 -i 0 -k RTR
+ -t 3.124000000 -s 1 -d 0 -p cbr -e 230 -c 2 -a 0 -i 54 -k RTR 
- -t 3.124000000 -s 1 -d 0 -p cbr -e 230 -c 2 -a 0 -i 54 -k RTR
h -t 3.124000000 -s 1 -d 0 -p cbr -e 230 -c 2 -a 0 -i 54 -k RTR
+ -t 3.180000000 -s 1 -d 0 -p cbr -e 230 -c 2 -a 0 -i 55 -k RTR 
- -t 3.180000000 -s 1 -d 0 -p cbr -e 230 -c 2 -a 0 -i 55 -k RTR
h -t 3.180000000 -s 1 -d 0 -p cbr -e 230 -c 2 -a 0 -i 55 -k RTR
+ -t 3.236000000 -s 1 -d 0 -p cbr -e 230 -c 2 -a 0 -i 56 -k RTR 
- -t 3.236000000 -s 1 -d 0 -p cbr -e 230 -c 2 -a 0 -i 56 -k RTR
h -t 3.236000000 -s 1 -d 0 -p cbr -e 230 -c 2 -a 0 -i 56 -k RTR
+ -t 3.292000000 -s 1 -d 0 -p cbr -e 230 -c 2 -a 0 -i 57 -k RTR 
- -t 3.292000000 -s 1 -d 0 -p cbr -e 230 -c 2 -a 0 -i 57 -k RTR
h -t 3.292000000 -s 1 -d 0 -p cbr -e 230 -c 2 -a 0 -i 57 -k RTR
+ -t 3.348000000 -s 1 -d 0 -p cbr -e 230 -c 2 -a 0 -i 58 -k RTR 
- -t 3.348000000 -s 1 -d 0 -p cbr -e 230 -c 2 -a 0 -i 58 -k RTR
h -t 3.348000000 -s 1 -d 0 -p cbr -e 230 -c 2 -a 0 -i 58 -k RTR
+ -t 3.404000000 -s 1 -d 0 -p cbr -e 230 -c 2 -a 0 -i 59 -k RTR 
- -t 3.404000000 -s 1 -d 0 -p cbr -e 230 -c 2 -a 0 -i 59 -k RTR
h -t 3.404000000 -s 1 -d 0 -p cbr -e 230 -c 2 -a 0 -i 59 -k RTR
+ -t 3.458430571 -s 4 -d -1 -p AODV -e 44 -c 2 -a 0 -i 0 -k RTR 
- -t 3.458430571 -s 4 -d -1 -p AODV -e 44 -c 2 -a 0 -i 0 -k RTR
h -t 3.458430571 -s 4 -d -1 -p AODV -e 44 -c 2 -a 0 -i 0 -k RTR
+ -t 3.460000000 -s 1 -d 0 -p cbr -e 230 -c 2 -a 0 -i 60 -k RTR 
- -t 3.460000000 -s 1 -d 0 -p cbr -e 230 -c 2 -a 0 -i 60 -k RTR
h -t 3.460000000 -s 1 -d 0 -p cbr -e 230 -c 2 -a 0 -i 60 -k RTR
r -t 3.492409400 -s 3 -d -1 -p AODV -e 44 -c 2 -a 0 -i 0 -k RTR
+ -t 3.516000000 -s 1 -d 0 -p cbr -e 230 -c 2 -a 0 -i 61 -k RTR 
- -t 3.516000000 -s 1 -d 0 -p cbr -e 230 -c 2 -a 0 -i 61 -k RTR
h -t 3.516000000 -s 1 -d 0 -p cbr -e 230 -c 2 -a 0 -i 61 -k RTR
+ -t 3.570880524 -s 0 -d -1 -p AODV -e 44 -c 2 -a 0 -i 0 -k RTR 
- -t 3.570880524 -s 0 -d -1 -p AODV -e 44 -c 2 -a 0 -i 0 -k RTR
h -t 3.570880524 -s 0 -d -1 -p AODV -e 44 -c 2 -a 0 -i 0 -k RTR
+ -t 3.572000000 -s 1 -d 0 -p cbr -e 230 -c 2 -a 0 -i 62 -k RTR 
- -t 3.572000000 -s 1 -d 0 -p cbr -e 230 -c 2 -a 0 -i 62 -k RTR
h -t 3.572000000 -s 1 -d 0 -p cbr -e 230 -c 2 -a 0 -i 62 -k RTR
r -t 3.576409767 -s 1 -d -1 -p AODV -e 44 -c 2 -a 0 -i 0 -k RTR
+ -t 3.628000000 -s 1 -d 0 -p cbr -e 230 -c 2 -a 0 -i 63 -k RTR 
- -t 3.628000000 -s 1 -d 0 -p cbr -e 230 -c 2 -a 0 -i 63 -k RTR
h -t 3.628000000 -s 1 -d 0 -p cbr -e 230 -c 2 -a 0 -i 63 -k RTR
+ -t 3.684000000 -s 1 -d 0 -p cbr -e 230 -c 2 -a 0 -i 64 -k RTR 
- -t 3.684000000 -s 1 -d 0 -p cbr -e 230 -c 2 -a 0 -i 64 -k RTR
h -t 3.684000000 -s 1 -d 0 -p cbr -e 230 -c 2 -a 0 -i 64 -k RTR
+ -t 3.731657923 -s 2 -d -1 -p AODV -e 44 -c 2 -a 0 -i 0 -k RTR 
- -t 3.731657923 -s 2 -d -1 -p AODV -e 44 -c 2 -a 0 -i 0 -k RTR
h -t 3.731657923 -s 2 -d -1 -p AODV -e 44 -c 2 -a 0 -i 0 -k RTR
+ -t 3.740000000 -s 1 -d 0 -p cbr -e 230 -c 2 -a 0 -i 65 -k RTR 
- -t 3.740000000 -s 1 -d 0 -p cbr -e 230 -c 2 -a 0 -i 65 -k RTR
h -t 3.740000000 -s 1 -d 0 -p cbr -e 230 -c 2 -a 0 -i 65 -k RTR
r -t 3.744409767 -s 1 -d -1 -p AODV -e 44 -c 2 -a 0 -i 0 -k RTR
r -t 3.744409767 -s 5 -d -1 -p AODV -e 44 -c 2 -a 0 -i 0 -k RTR
+ -t 3.789055856 -s 3 -d -1 -p AODV -e 44 -c 2 -a 0 -i 0 -k RTR 
- -t 3.789055856 -s 3 -d -1 -p AODV -e 44 -c 2 -a 0 -i 0 -k RTR
h -t 3.789055856 -s 3 -d -1 -p AODV -e 44 -c 2 -a 0 -i 0 -k RTR
r -t 3.792409400 -s 4 -d -1 -p AODV -e 44 -c 2 -a 0 -i 0 -k RTR
r -t 3.792409792 -s 1 -d -1 -p AODV -e 44 -c 2 -a 0 -i 0 -k RTR
+ -t 3.796000000 -s 1 -d 0 -p cbr -e 230 -c 2 -a 0 -i 66 -k RTR 
- -t 3.796000000 -s 1 -d 0 -p cbr -e 230 -c 2 -a 0 -i 66 -k RTR
h -t 3.796000000 -s 1 -d 0 -p cbr -e 230 -c 2 -a 0 -i 66 -k RTR
+ -t 3.852000000 -s 1 -d 0 -p cbr -e 230 -c 2 -a 0 -i 67 -k RTR 
- -t 3.852000000 -s 1 -d 0 -p cbr -e 230 -c 2 -a 0 -i 67 -k RTR
h -t 3.852000000 -s 1 -d 0 -p cbr -e 230 -c 2 -a 0 -i 67 -k RTR
+ -t 3.908000000 -s 1 -d 0 -p cbr -e 230 -c 2 -a 0 -i 68 -k RTR 
- -t 3.908000000 -s 1 -d 0 -p cbr -e 230 -c 2 -a 0 -i 68 -k RTR
h -t 3.908000000 -s 1 -d 0 -p cbr -e 230 -c 2 -a 0 -i 68 -k RTR
+ -t 3.964000000 -s 1 -d 0 -p cbr -e 230 -c 2 -a 0 -i 69 -k RTR 
- -t 3.964000000 -s 1 -d 0 -p cbr -e 230 -c 2 -a 0 -i 69 -k RTR
h -t 3.964000000 -s 1 -d 0 -p cbr -e 230 -c 2 -a 0 -i 69 -k RTR
+ -t 4.020000000 -s 1 -d 0 -p cbr -e 230 -c 2 -a 0 -i 70 -k RTR 
- -t 4.020000000 -s 1 -d 0 -p cbr -e 230 -c 2 -a 0 -i 70 -k RTR
h -t 4.020000000 -s 1 -d 0 -p cbr -e 230 -c 2 -a 0 -i 70 -k RTR
+ -t 4.076000000 -s 1 -d 0 -p cbr -e 230 -c 2 -a 0 -i 71 -k RTR 
- -t 4.076000000 -s 1 -d 0 -p cbr -e 230 -c 2 -a 0 -i 71 -k RTR
h -t 4.076000000 -s 1 -d 0 -p cbr -e 230 -c 2 -a 0 -i 71 -k RTR
+ -t 4.118498117 -s 1 -d -1 -p AODV -e 44 -c 2 -a 0 -i 0 -k RTR 
- -t 4.118498117 -s 1 -d -1 -p AODV -e 44 -c 2 -a 0 -i 0 -k RTR
h -t 4.118498117 -s 1 -d -1 -p AODV -e 44 -c 2 -a 0 -i 0 -k RTR
r -t 4.122409767 -s 0 -d -1 -p AODV -e 44 -c 2 -a 0 -i 0 -k RTR
r -t 4.122409767 -s 2 -d -1 -p AODV -e 44 -c 2 -a 0 -i 0 -k RTR
r -t 4.122409792 -s 3 -d -1 -p AODV -e 44 -c 2 -a 0 -i 0 -k RTR
+ -t 4.132000000 -s 1 -d 0 -p cbr -e 230 -c 2 -a 0 -i 72 -k RTR 
- -t 4.132000000 -s 1 -d 0 -p cbr -e 230 -c 2 -a 0 -i 72 -k RTR
h -t 4.132000000 -s 1 -d 0 -p cbr -e 230 -c 2 -a 0 -i 72 -k RTR
+ -t 4.188000000 -s 1 -d 0 -p cbr -e 230 -c 2 -a 0 -i 73 -k RTR 
- -t 4.188000000 -s 1 -d 0 -p cbr -e 230 -c 2 -a 0 -i 73 -k RTR
h -t 4.188000000 -s 1 -d 0 -p cbr -e 230 -c 2 -a 0 -i 73 -k RTR
+ -t 4.244000000 -s 1 -d 0 -p cbr -e 230 -c 2 -a 0 -i 74 -k RTR 
- -t 4.244000000 -s 1 -d 0 -p cbr -e 230 -c 2 -a 0 -i 74 -k RTR
h -t 4.244000000 -s 1 -d 0 -p cbr -e 230 -c 2 -a 0 -i 74 -k RTR
+ -t 4.291029768 -s 5 -d -1 -p AODV -e 44 -c 2 -a 0 -i 0 -k RTR 
- -t 4.291029768 -s 5 -d -1 -p AODV -e 44 -c 2 -a 0 -i 0 -k RTR
h -t 4.291029768 -s 5 -d -1 -p AODV -e 44 -c 2 -a 0 -i 0 -k RTR
r -t 4.296409767 -s 2 -d -1 -p AODV -e 44 -c 2 -a 0 -i 0 -k RTR
+ -t 4.300000000 -s 1 -d 0 -p cbr -e 230 -c 2 -a 0 -i 75 -k RTR 
- -t 4.300000000 -s 1 -d 0 -p cbr -e 230 -c 2 -a 0 -i 75 -k RTR
h -t 4.300000000 -s 1 -d 0 -p cbr -e 230 -c 2 -a 0 -i 75 -k RTR
+ -t 4.356000000 -s 1 -d 0 -p cbr -e 230 -c 2 -a 0 -i 76 -k RTR 
- -t 4.356000000 -s 1 -d 0 -p cbr -e 230 -c 2 -a 0 -i 76 -k RTR
h -t 4.356000000 -s 1 -d 0 -p cbr -e 230 -c 2 -a 0 -i 76 -k RTR
+ -t 4.412000000 -s 1 -d 0 -p cbr -e 230 -c 2 -a 0 -i 77 -k RTR 
- -t 4.412000000 -s 1 -d 0 -p cbr -e 230 -c 2 -a 0 -i 77 -k RTR
h -t 4.412000000 -s 1 -d 0 -p cbr -e 230 -c 2 -a 0 -i 77 -k RTR
+ -t 4.429460253 -s 0 -d -1 -p AODV -e 44 -c 2 -a 0 -i 0 -k RTR 
- -t 4.429460253 -s 0 -d -1 -p AODV -e 44 -c 2 -a 0 -i 0 -k RTR
h -t 4.429460253 -s 0 -d -1 -p AODV -e 44 -c 2 -a 0 -i 0 -k RTR
r -t 4.458409767 -s 1 -d -1 -p AODV -e 44 -c 2 -a 0 -i 0 -k RTR
+ -t 4.468000000 -s 1 -d 0 -p cbr -e 230 -c 2 -a 0 -i 78 -k RTR 
- -t 4.468000000 -s 1 -d 0 -p cbr -e 230 -c 2 -a 0 -i 78 -k RTR
h -t 4.468000000 -s 1 -d 0 -p cbr -e 230 -c 2 -a 0 -i 78 -k RTR
+ -t 4.524000000 -s 1 -d 0 -p cbr -e 230 -c 2 -a 0 -i 79 -k RTR 
- -t 4.524000000 -s 1 -d 0 -p cbr -e 230 -c 2 -a 0 -i 79 -k RTR
h -t 4.524000000 -s 1 -d 0 -p cbr -e 230 -c 2 -a 0 -i 79 -k RTR
+ -t 4.580000000 -s 1 -d 0 -p cbr -e 230 -c 2 -a 0 -i 80 -k RTR 
- -t 4.580000000 -s 1 -d 0 -p cbr -e 230 -c 2 -a 0 -i 80 -k RTR
h -t 4.580000000 -s 1 -d 0 -p cbr -e 230 -c 2 -a 0 -i 80 -k RTR
+ -t 4.602270737 -s 2 -d -1 -p AODV -e 44 -c 2 -a 0 -i 0 -k RTR 
- -t 4.602270737 -s 2 -d -1 -p AODV -e 44 -c 2 -a 0 -i 0 -k RTR
h -t 4.602270737 -s 2 -d -1 -p AODV -e 44 -c 2 -a 0 -i 0 -k RTR
r -t 4.626409767 -s 1 -d -1 -p AODV -e 44 -c 2 -a 0 -i 0 -k RTR
r -t 4.626409767 -s 5 -d -1 -p AODV -e 44 -c 2 -a 0 -i 0 -k RTR
+ -t 4.628343173 -s 4 -d -1 -p AODV -e 44 -c 2 -a 0 -i 0 -k RTR 
- -t 4.628343173 -s 4 -d -1 -p AODV -e 44 -c 2 -a 0 -i 0 -k RTR
h -t 4.628343173 -s 4 -d -1 -p AODV -e 44 -c 2 -a 0 -i 0 -k RTR
r -t 4.632409400 -s 3 -d -1 -p AODV -e 44 -c 2 -a 0 -i 0 -k RTR
+ -t 4.636000000 -s 1 -d 0 -p cbr -e 230 -c 2 -a 0 -i 81 -k RTR 
- -t 4.636000000 -s 1 -d 0 -p cbr -e 230 -c 2 -a 0 -i 81 -k RTR
h -t 4.636000000 -s 1 -d 0 -p cbr -e 230 -c 2 -a 0 -i 81 -k RTR
+ -t 4.692000000 -s 1 -d 0 -p cbr -e 230 -c 2 -a 0 -i 82 -k RTR 
- -t 4.692000000 -s 1 -d 0 -p cbr -e 230 -c 2 -a 0 -i 82 -k RTR
h -t 4.692000000 -s 1 -d 0 -p cbr -e 230 -c 2 -a 0 -i 82 -k RTR
+ -t 4.748000000 -s 1 -d 0 -p cbr -e 230 -c 2 -a 0 -i 83 -k RTR 
- -t 4.748000000 -s 1 -d 0 -p cbr -e 230 -c 2 -a 0 -i 83 -k RTR
h -t 4.748000000 -s 1 -d 0 -p cbr -e 230 -c 2 -a 0 -i 83 -k RTR
+ -t 4.804000000 -s 1 -d 0 -p cbr -e 230 -c 2 -a 0 -i 84 -k RTR 
- -t 4.804000000 -s 1 -d 0 -p cbr -e 230 -c 2 -a 0 -i 84 -k RTR
h -t 4.804000000 -s 1 -d 0 -p cbr -e 230 -c 2 -a 0 -i 84 -k RTR
+ -t 4.860000000 -s 1 -d 0 -p cbr -e 230 -c 2 -a 0 -i 85 -k RTR 
- -t 4.860000000 -s 1 -d 0 -p cbr -e 230 -c 2 -a 0 -i 85 -k RTR
h -t 4.860000000 -s 1 -d 0 -p cbr -e 230 -c 2 -a 0 -i 85 -k RTR
+ -t 4.916000000 -s 1 -d 0 -p cbr -e 230 -c 2 -a 0 -i 86 -k RTR 
- -t 4.916000000 -s 1 -d 0 -p cbr -e 230 -c 2 -a 0 -i 86 -k RTR
h -t 4.916000000 -s 1 -d 0 -p cbr -e 230 -c 2 -a 0 -i 86 -k RTR
+ -t 4.964609132 -s 3 -d -1 -p AODV -e 44 -c 2 -a 0 -i 0 -k RTR 
- -t 4.964609132 -s 3 -d -1 -p AODV -e 44 -c 2 -a 0 -i 0 -k RTR
h -t 4.964609132 -s 3 -d -1 -p AODV -e 44 -c 2 -a 0 -i 0 -k RTR
r -t 4.968409400 -s 4 -d -1 -p AODV -e 44 -c 2 -a 0 -i 0 -k RTR
r -t 4.968409792 -s 1 -d -1 -p AODV -e 44 -c 2 -a 0 -i 0 -k RTR
+ -t 4.972000000 -s 1 -d 0 -p cbr -e 230 -c 2 -a 0 -i 87 -k RTR 
- -t 4.972000000 -s 1 -d 0 -p cbr -e 230 -c 2 -a 0 -i 87 -k RTR
h -t 4.972000000 -s 1 -d 0 -p cbr -e 230 -c 2 -a 0 -i 87 -k RTR
+ -t 5.028000000 -s 1 -d 0 -p cbr -e 230 -c 2 -a 0 -i 88 -k RTR 
- -t 5.028000000 -s 1 -d 0 -p cbr -e 230 -c 2 -a 0 -i 88 -k RTR
h -t 5.028000000 -s 1 -d 0 -p cbr -e 230 -c 2 -a 0 -i 88 -k RTR
+ -t 5.084000000 -s 1 -d 0 -p cbr -e 230 -c 2 -a 0 -i 89 -k RTR 
- -t 5.084000000 -s 1 -d 0 -p cbr -e 230 -c 2 -a 0 -i 89 -k RTR
h -t 5.084000000 -s 1 -d 0 -p cbr -e 230 -c 2 -a 0 -i 89 -k RTR
+ -t 5.140000000 -s 1 -d 0 -p cbr -e 230 -c 2 -a 0 -i 90 -k RTR 
- -t 5.140000000 -s 1 -d 0 -p cbr -e 230 -c 2 -a 0 -i 90 -k RTR
h -t 5.140000000 -s 1 -d 0 -p cbr -e 230 -c 2 -a 0 -i 90 -k RTR
+ -t 5.196000000 -s 1 -d 0 -p cbr -e 230 -c 2 -a 0 -i 91 -k RTR 
- -t 5.196000000 -s 1 -d 0 -p cbr -e 230 -c 2 -a 0 -i 91 -k RTR
h -t 5.196000000 -s 1 -d 0 -p cbr -e 230 -c 2 -a 0 -i 91 -k RTR
+ -t 5.207172588 -s 1 -d -1 -p AODV -e 44 -c 2 -a 0 -i 0 -k RTR 
- -t 5.207172588 -s 1 -d -1 -p AODV -e 44 -c 2 -a 0 -i 0 -k RTR
h -t 5.207172588 -s 1 -d -1 -p AODV -e 44 -c 2 -a 0 -i 0 -k RTR
+ -t 5.252000000 -s 1 -d 0 -p cbr -e 230 -c 2 -a 0 -i 92 -k RTR 
- -t 5.252000000 -s 1 -d 0 -p cbr -e 230 -c 2 -a 0 -i 92 -k RTR
h -t 5.252000000 -s 1 -d 0 -p cbr -e 230 -c 2 -a 0 -i 92 -k RTR
r -t 5.256409767 -s 0 -d -1 -p AODV -e 44 -c 2 -a 0 -i 0 -k RTR
r -t 5.256409767 -s 2 -d -1 -p AODV -e 44 -c 2 -a 0 -i 0 -k RTR
r -t 5.256409792 -s 3 -d -1 -p AODV -e 44 -c 2 -a 0 -i 0 -k RTR
+ -t 5.308000000 -s 1 -d 0 -p cbr -e 230 -c 2 -a 0 -i 93 -k RTR 
- -t 5.308000000 -s 1 -d 0 -p cbr -e 230 -c 2 -a 0 -i 93 -k RTR
h -t 5.308000000 -s 1 -d 0 -p cbr -e 230 -c 2 -a 0 -i 93 -k RTR