s 0.006000000 _0_ MAC  --- 0 AODV 100 [0 ffffffff 0 0] ------- [0:255 -1:255 30 0] [0x2 1 1 [1 0] [0 4]] (REQUEST)
r 0.006400767 _1_ MAC  --- 0 AODV 48 [0 ffffffff 0 0] ------- [0:255 -1:255 30 0] [0x2 1 1 [1 0] [0 4]] (REQUEST)
s 0.012000000 _1_ MAC  --- 0 ARP 80 [0 ffffffff 1 0] ------- [REQUEST 1/1 0/0]
r 0.012320767 _0_ MAC  --- 0 ARP 28 [0 ffffffff 1 0] ------- [REQUEST 1/1 0/0]
s 0.024000000 _0_ MAC  --- 0 ARP 80 [5 1 0 0] ------- [REPLY 0/0 1/1]
r 0.024320767 _1_ MAC  --- 0 ARP 28 [5 1 0 0] ------- [REPLY 0/0 1/1]
s 0.030000000 _1_ MAC  --- 0 AODV 96 [5 0 1 0] ------- [1:255 0:255 30 0] [0x4 1 [1 4] 10.000000] (REPLY)
r 0.030384767 _0_ MAC  --- 0 AODV 44 [5 0 1 0] ------- [1:255 0:255 30 0] [0x4 1 [1 4] 10.000000] (REPLY)
s 0.042000000 _0_ MAC  --- 0 cbr 282 [5 1 0 0] ------- [0:0 1:0 30 1] [0] 0 0
r 0.043128767 _1_ MAC  --- 0 cbr 230 [5 1 0 0] ------- [0:0 1:0 30 1] [0] 1 0
s 0.060000000 _0_ MAC  --- 1 cbr 282 [5 1 0 0] ------- [0:0 1:0 30 1] [1] 0 0
r 0.061128767 _1_ MAC  --- 1 cbr 230 [5 1 0 0] ------- [0:0 1:0 30 1] [1] 1 0
s 0.114000000 _0_ MAC  --- 2 cbr 282 [5 1 0 0] ------- [0:0 1:0 30 1] [2] 0 0
r 0.115128767 _1_ MAC  --- 2 cbr 230 [5 1 0 0] ------- [0:0 1:0 30 1] [2] 1 0
s 0.186000000 _0_ MAC  --- 3 cbr 282 [5 1 0 0] ------- [0:0 1:0 30 1] [3] 0 0
r 0.187128767 _1_ MAC  --- 3 cbr 230 [5 1 0 0] ------- [0:0 1:0 30 1] [3] 1 0
s 0.240000000 _0_ MAC  --- 4 cbr 282 [5 1 0 0] ------- [0:0 1:0 30 1] [4] 0 0
r 0.241128767 _1_ MAC  --- 4 cbr 230 [5 1 0 0] ------- [0:0 1:0 30 1] [4] 1 0
s 0.294000000 _0_ MAC  --- 5 cbr 282 [5 1 0 0] ------- [0:0 1:0 30 1] [5] 0 0
r 0.295128767 _1_ MAC  --- 5 cbr 230 [5 1 0 0] ------- [0:0 1:0 30 1] [5] 1 0
s 0.348000000 _0_ MAC  --- 6 cbr 282 [5 1 0 0] ------- [0:0 1:0 30 1] [6] 0 0
r 0.349128767 _1_ MAC  --- 6 cbr 230 [5 1 0 0] ------- [0:0 1:0 30 1] [6] 1 0
s 0.402000000 _0_ MAC  --- 7 cbr 282 [5 1 0 0] ------- [0:0 1:0 30 1] [7] 0 0
r 0.403128767 _1_ MAC  --- 7 cbr 230 [5 1 0 0] ------- [0:0 1:0 30 1] [7] 1 0
s 0.456000000 _0_ MAC  --- 8 cbr 282 [5 1 0 0] ------- [0:0 1:0 30 1] [8] 0 0
r 0.457128767 _1_ MAC  --- 8 cbr 230 [5 1 0 0] ------- [0:0 1:0 30 1] [8] 1 0
s 0.510000000 _0_ MAC  --- 9 cbr 282 [5 1 0 0] ------- [0:0 1:0 30 1] [9] 0 0
r 0.511128767 _1_ MAC  --- 9 cbr 230 [5 1 0 0] ------- [0:0 1:0 30 1] [9] 1 0
s 0.564000000 _0_ MAC  --- 10 cbr 282 [5 1 0 0] ------- [0:0 1:0 30 1] [10] 0 0
r 0.565128767 _1_ MAC  --- 10 cbr 230 [5 1 0 0] ------- [0:0 1:0 30 1] [10] 1 0
s 0.618000000 _0_ MAC  --- 11 cbr 282 [5 1 0 0] ------- [0:0 1:0 30 1] [11] 0 0
r 0.619128767 _1_ MAC  --- 11 cbr 230 [5 1 0 0] ------- [0:0 1:0 30 1] [11] 1 0
s 0.690000000 _0_ MAC  --- 12 cbr 282 [5 1 0 0] ------- [0:0 1:0 30 1] [12] 0 0
r 0.691128767 _1_ MAC  --- 12 cbr 230 [5 1 0 0] ------- [0:0 1:0 30 1] [12] 1 0
s 0.744000000 _0_ MAC  --- 13 cbr 282 [5 1 0 0] ------- [0:0 1:0 30 1] [13] 0 0
r 0.745128767 _1_ MAC  --- 13 cbr 230 [5 1 0 0] ------- [0:0 1:0 30 1] [13] 1 0
s 0.798000000 _0_ MAC  --- 14 cbr 282 [5 1 0 0] ------- [0:0 1:0 30 1] [14] 0 0
r 0.799128767 _1_ MAC  --- 14 cbr 230 [5 1 0 0] ------- [0:0 1:0 30 1] [14] 1 0
s 0.852000000 _0_ MAC  --- 15 cbr 282 [5 1 0 0] ------- [0:0 1:0 30 1] [15] 0 0
r 0.853128767 _1_ MAC  --- 15 cbr 230 [5 1 0 0] ------- [0:0 1:0 30 1] [15] 1 0
s 0.906000000 _0_ MAC  --- 16 cbr 282 [5 1 0 0] ------- [0:0 1:0 30 1] [16] 0 0
r 0.907128767 _1_ MAC  --- 16 cbr 230 [5 1 0 0] ------- [0:0 1:0 30 1] [16] 1 0
s 0.960000000 _0_ MAC  --- 17 cbr 282 [5 1 0 0] ------- [0:0 1:0 30 1] [17] 0 0
r 0.961128767 _1_ MAC  --- 17 cbr 230 [5 1 0 0] ------- [0:0 1:0 30 1] [17] 1 0
s 1.014000000 _0_ MAC  --- 18 cbr 282 [5 1 0 0] ------- [0:0 1:0 30 1] [18] 0 0
r 1.015128767 _1_ MAC  --- 18 cbr 230 [5 1 0 0] ------- [0:0 1:0 30 1] [18] 1 0
s 1.068000000 _0_ MAC  --- 19 cbr 282 [5 1 0 0] ------- [0:0 1:0 30 1] [19] 0 0
r 1.069128767 _1_ MAC  --- 19 cbr 230 [5 1 0 0] ------- [0:0 1:0 30 1] [19] 1 0
s 1.122000000 _0_ MAC  --- 20 cbr 282 [5 1 0 0] ------- [0:0 1:0 30 1] [20] 0 0
r 1.123128767 _1_ MAC  --- 20 cbr 230 [5 1 0 0] ------- [0:0 1:0 30 1] [20] 1 0
s 1.194000000 _0_ MAC  --- 21 cbr 282 [5 1 0 0] ------- [0:0 1:0 30 1] [21] 0 0
r 1.195128767 _1_ MAC  --- 21 cbr 230 [5 1 0 0] ------- [0:0 1:0 30 1] [21] 1 0
s 1.248000000 _0_ MAC  --- 22 cbr 282 [5 1 0 0] ------- [0:0 1:0 30 1] [22] 0 0
r 1.249128767 _1_ MAC  --- 22 cbr 230 [5 1 0 0] ------- [0:0 1:0 30 1] [22] 1 0
s 1.302000000 _0_ MAC  --- 23 cbr 282 [5 1 0 0] ------- [0:0 1:0 30 1] [23] 0 0
r 1.303128767 _1_ MAC  --- 23 cbr 230 [5 1 0 0] ------- [0:0 1:0 30 1] [23] 1 0
s 1.356000000 _0_ MAC  --- 24 cbr 282 [5 1 0 0] ------- [0:0 1:0 30 1] [24] 0 0
r 1.357128767 _1_ MAC  --- 24 cbr 230 [5 1 0 0] ------- [0:0 1:0 30 1] [24] 1 0
s 1.410000000 _0_ MAC  --- 25 cbr 282 [5 1 0 0] ------- [0:0 1:0 30 1] [25] 0 0
r 1.411128767 _1_ MAC  --- 25 cbr 230 [5 1 0 0] ------- [0:0 1:0 30 1] [25] 1 0
s 1.464000000 _0_ MAC  --- 26 cbr 282 [5 1 0 0] ------- [0:0 1:0 30 1] [26] 0 0
r 1.465128767 _1_ MAC  --- 26 cbr 230 [5 1 0 0] ------- [0:0 1:0 30 1] [26] 1 0
s 1.518000000 _0_ MAC  --- 27 cbr 282 [5 1 0 0] ------- [0:0 1:0 30 1] [27] 0 0
r 1.519128767 _1_ MAC  --- 27 cbr 230 [5 1 0 0] ------- [0:0 1:0 30 1] [27] 1 0
s 1.572000000 _0_ MAC  --- 28 cbr 282 [5 1 0 0] ------- [0:0 1:0 30 1] [28] 0 0
r 1.573128767 _1_ MAC  --- 28 cbr 230 [5 1 0 0] ------- [0:0 1:0 30 1] [28] 1 0
s 1.626000000 _0_ MAC  --- 29 cbr 282 [5 1 0 0] ------- [0:0 1:0 30 1] [29] 0 0
r 1.627128767 _1_ MAC  --- 29 cbr 230 [5 1 0 0] ------- [0:0 1:0 30 1] [29] 1 0
s 1.698000000 _0_ MAC  --- 30 cbr 282 [5 1 0 0] ------- [0:0 1:0 30 1] [30] 0 0
r 1.699128767 _1_ MAC  --- 30 cbr 230 [5 1 0 0] ------- [0:0 1:0 30 1] [30] 1 0
s 1.752000000 _0_ MAC  --- 31 cbr 282 [5 1 0 0] ------- [0:0 1:0 30 1] [31] 0 0
r 1.753128767 _1_ MAC  --- 31 cbr 230 [5 1 0 0] ------- [0:0 1:0 30 1] [31] 1 0
s 1.806000000 _0_ MAC  --- 32 cbr 282 [5 1 0 0] ------- [0:0 1:0 30 1] [32] 0 0
r 1.807128767 _1_ MAC  --- 32 cbr 230 [5 1 0 0] ------- [0:0 1:0 30 1] [32] 1 0
s 1.860000000 _0_ MAC  --- 33 cbr 282 [5 1 0 0] ------- [0:0 1:0 30 1] [33] 0 0
r 1.861128767 _1_ MAC  --- 33 cbr 230 [5 1 0 0] ------- [0:0 1:0 30 1] [33] 1 0
s 1.914000000 _0_ MAC  --- 34 cbr 282 [5 1 0 0] ------- [0:0 1:0 30 1] [34] 0 0
r 1.915128767 _1_ MAC  --- 34 cbr 230 [5 1 0 0] ------- [0:0 1:0 30 1] [34] 1 0
s 1.968000000 _0_ MAC  --- 35 cbr 282 [5 1 0 0] ------- [0:0 1:0 30 1] [35] 0 0
r 1.969128767 _1_ MAC  --- 35 cbr 230 [5 1 0 0] ------- [0:0 1:0 30 1] [35] 1 0
s 2.022000000 _0_ MAC  --- 36 cbr 282 [5 1 0 0] ------- [0:0 1:0 30 1] [36] 0 0
r 2.023128767 _1_ MAC  --- 36 cbr 230 [5 1 0 0] ------- [0:0 1:0 30 1] [36] 1 0
s 2.076000000 _0_ MAC  --- 37 cbr 282 [5 1 0 0] ------- [0:0 1:0 30 1] [37] 0 0
r 2.077128767 _1_ MAC  --- 37 cbr 230 [5 1 0 0] ------- [0:0 1:0 30 1] [37] 1 0
s 2.130000000 _0_ MAC  --- 38 cbr 282 [5 1 0 0] ------- [0:0 1:0 30 1] [38] 0 0
r 2.131128767 _1_ MAC  --- 38 cbr 230 [5 1 0 0] ------- [0:0 1:0 30 1] [38] 1 0
s 2.202000000 _0_ MAC  --- 39 cbr 282 [5 1 0 0] ------- [0:0 1:0 30 1] [39] 0 0
r 2.203128767 _1_ MAC  --- 39 cbr 230 [5 1 0 0] ------- [0:0 1:0 30 1] [39] 1 0
s 2.256000000 _0_ MAC  --- 40 cbr 282 [5 1 0 0] ------- [0:0 1:0 30 1] [40] 0 0
r 2.257128767 _1_ MAC  --- 40 cbr 230 [5 1 0 0] ------- [0:0 1:0 30 1] [40] 1 0
s 2.310000000 _0_ MAC  --- 41 cbr 282 [5 1 0 0] ------- [0:0 1:0 30 1] [41] 0 0
r 2.311128767 _1_ MAC  --- 41 cbr 230 [5 1 0 0] ------- [0:0 1:0 30 1] [41] 1 0
s 2.364000000 _0_ MAC  --- 42 cbr 282 [5 1 0 0] ------- [0:0 1:0 30 1] [42] 0 0
r 2.365128767 _1_ MAC  --- 42 cbr 230 [5 1 0 0] ------- [0:0 1:0 30 1] [42] 1 0
s 2.418000000 _0_ MAC  --- 43 cbr 282 [5 1 0 0] ------- [0:0 1:0 30 1] [43] 0 0
r 2.419128767 _1_ MAC  --- 43 cbr 230 [5 1 0 0] ------- [0:0 1:0 30 1] [43] 1 0
s 2.472000000 _0_ MAC  --- 44 cbr 282 [5 1 0 0] ------- [0:0 1:0 30 1] [44] 0 0
r 2.473128767 _1_ MAC  --- 44 cbr 230 [5 1 0 0] ------- [0:0 1:0 30 1] [44] 1 0
s 2.526000000 _0_ MAC  --- 45 cbr 282 [5 1 0 0] ------- [0:0 1:0 30 1] [45] 0 0
r 2.527128767 _1_ MAC  --- 45 cbr 230 [5 1 0 0] ------- [0:0 1:0 30 1] [45] 1 0
s 2.580000000 _0_ MAC  --- 46 cbr 282 [5 1 0 0] ------- [0:0 1:0 30 1] [46] 0 0
r 2.581128767 _1_ MAC  --- 46 cbr 230 [5 1 0 0] ------- [0:0 1:0 30 1] [46] 1 0
s 2.634000000 _0_ MAC  --- 47 cbr 282 [5 1 0 0] ------- [0:0 1:0 30 1] [47] 0 0
r 2.635128767 _1_ MAC  --- 47 cbr 230 [5 1 0 0] ------- [0:0 1:0 30 1] [47] 1 0
s 2.706000000 _0_ MAC  --- 48 cbr 282 [5 1 0 0] ------- [0:0 1:0 30 1] [48] 0 0
r 2.707128767 _1_ MAC  --- 48 cbr 230 [5 1 0 0] ------- [0:0 1:0 30 1] [48] 1 0
s 2.760000000 _0_ MAC  --- 49 cbr 282 [5 1 0 0] ------- [0:0 1:0 30 1] [49] 0 0
r 2.761128767 _1_ MAC  --- 49 cbr 230 [5 1 0 0] ------- [0:0 1:0 30 1] [49] 1 0
s 2.814000000 _0_ MAC  --- 50 cbr 282 [5 1 0 0] ------- [0:0 1:0 30 1] [50] 0 0
r 2.815128767 _1_ MAC  --- 50 cbr 230 [5 1 0 0] ------- [0:0 1:0 30 1] [50] 1 0
s 2.868000000 _0_ MAC  --- 51 cbr 282 [5 1 0 0] ------- [0:0 1:0 30 1] [51] 0 0
r 2.869128767 _1_ MAC  --- 51 cbr 230 [5 1 0 0] ------- [0:0 1:0 30 1] [51] 1 0
s 2.922000000 _0_ MAC  --- 52 cbr 282 [5 1 0 0] ------- [0:0 1:0 30 1] [52] 0 0
r 2.923128767 _1_ MAC  --- 52 cbr 230 [5 1 0 0] ------- [0:0 1:0 30 1] [52] 1 0
s 2.976000000 _0_ MAC  --- 53 cbr 282 [5 1 0 0] ------- [0:0 1:0 30 1] [53] 0 0
r 2.977128767 _1_ MAC  --- 53 cbr 230 [5 1 0 0] ------- [0:0 1:0 30 1] [53] 1 0
s 3.030000000 _0_ MAC  --- 54 cbr 282 [5 1 0 0] ------- [0:0 1:0 30 1] [54] 0 0
r 3.031128767 _1_ MAC  --- 54 cbr 230 [5 1 0 0] ------- [0:0 1:0 30 1] [54] 1 0
s 3.084000000 _0_ MAC  --- 55 cbr 282 [5 1 0 0] ------- [0:0 1:0 30 1] [55] 0 0
r 3.085128767 _1_ MAC  --- 55 cbr 230 [5 1 0 0] ------- [0:0 1:0 30 1] [55] 1 0
s 3.138000000 _0_ MAC  --- 56 cbr 282 [5 1 0 0] ------- [0:0 1:0 30 1] [56] 0 0
r 3.139128767 _1_ MAC  --- 56 cbr 230 [5 1 0 0] ------- [0:0 1:0 30 1] [56] 1 0
s 3.210000000 _0_ MAC  --- 57 cbr 282 [5 1 0 0] ------- [0:0 1:0 30 1] [57] 0 0
r 3.211128767 _1_ MAC  --- 57 cbr 230 [5 1 0 0] ------- [0:0 1:0 30 1] [57] 1 0
s 3.264000000 _0_ MAC  --- 58 cbr 282 [5 1 0 0] ------- [0:0 1:0 30 1] [58] 0 0
r 3.265128767 _1_ MAC  --- 58 cbr 230 [5 1 0 0] ------- [0:0 1:0 30 1] [58] 1 0
s 3.318000000 _0_ MAC  --- 59 cbr 282 [5 1 0 0] ------- [0:0 1:0 30 1] [59] 0 0
r 3.319128767 _1_ MAC  --- 59 cbr 230 [5 1 0 0] ------- [0:0 1:0 30 1] [59] 1 0
s 3.372000000 _0_ MAC  --- 60 cbr 282 [5 1 0 0] ------- [0:0 1:0 30 1] [60] 0 0
r 3.373128767 _1_ MAC  --- 60 cbr 230 [5 1 0 0] ------- [0:0 1:0 30 1] [60] 1 0
s 3.426000000 _0_ MAC  --- 61 cbr 282 [5 1 0 0] ------- [0:0 1:0 30 1] [61] 0 0
r 3.427128767 _1_ MAC  --- 61 cbr 230 [5 1 0 0] ------- [0:0 1:0 30 1] [61] 1 0
s 3.480000000 _0_ MAC  --- 62 cbr 282 [5 1 0 0] ------- [0:0 1:0 30 1] [62] 0 0
r 3.481128767 _1_ MAC  --- 62 cbr 230 [5 1 0 0] ------- [0:0 1:0 30 1] [62] 1 0
s 3.534000000 _0_ MAC  --- 63 cbr 282 [5 1 0 0] ------- [0:0 1:0 30 1] [63] 0 0
r 3.535128767 _1_ MAC  --- 63 cbr 230 [5 1 0 0] ------- [0:0 1:0 30 1] [63] 1 0
s 3.588000000 _0_ MAC  --- 64 cbr 282 [5 1 0 0] ------- [0:0 1:0 30 1] [64] 0 0
r 3.589128767 _1_ MAC  --- 64 cbr 230 [5 1 0 0] ------- [0:0 1:0 30 1] [64] 1 0
s 3.642000000 _0_ MAC  --- 65 cbr 282 [5 1 0 0] ------- [0:0 1:0 30 1] [65] 0 0
r 3.643128767 _1_ MAC  --- 65 cbr 230 [5 1 0 0] ------- [0:0 1:0 30 1] [65] 1 0
s 3.714000000 _0_ MAC  --- 66 cbr 282 [5 1 0 0] ------- [0:0 1:0 30 1] [66] 0 0
r 3.715128767 _1_ MAC  --- 66 cbr 230 [5 1 0 0] ------- [0:0 1:0 30 1] [66] 1 0
s 3.768000000 _0_ MAC  --- 67 cbr 282 [5 1 0 0] ------- [0:0 1:0 30 1] [67] 0 0
r 3.769128767 _1_ MAC  --- 67 cbr 230 [5 1 0 0] ------- [0:0 1:0 30 1] [67] 1 0
s 3.822000000 _0_ MAC  --- 68 cbr 282 [5 1 0 0] ------- [0:0 1:0 30 1] [68] 0 0
r 3.823128767 _1_ MAC  --- 68 cbr 230 [5 1 0 0] ------- [0:0 1:0 30 1] [68] 1 0
s 3.876000000 _0_ MAC  --- 69 cbr 282 [5 1 0 0] ------- [0:0 1:0 30 1] [69] 0 0
r 3.877128767 _1_ MAC  --- 69 cbr 230 [5 1 0 0] ------- [0:0 1:0 30 1] [69] 1 0
s 3.930000000 _0_ MAC  --- 70 cbr 282 [5 1 0 0] ------- [0:0 1:0 30 1] [70] 0 0
r 3.931128767 _1_ MAC  --- 70 cbr 230 [5 1 0 0] ------- [0:0 1:0 30 1] [70] 1 0
s 3.984000000 _0_ MAC  --- 71 cbr 282 [5 1 0 0] ------- [0:0 1:0 30 1] [71] 0 0
r 3.985128767 _1_ MAC  --- 71 cbr 230 [5 1 0 0] ------- [0:0 1:0 30 1] [71] 1 0
s 4.038000000 _0_ MAC  --- 72 cbr 282 [5 1 0 0] ------- [0:0 1:0 30 1] [72] 0 0
r 4.039128767 _1_ MAC  --- 72 cbr 230 [5 1 0 0] ------- [0:0 1:0 30 1] [72] 1 0
s 4.092000000 _0_ MAC  --- 73 cbr 282 [5 1 0 0] ------- [0:0 1:0 30 1] [73] 0 0
r 4.093128767 _1_ MAC  --- 73 cbr 230 [5 1 0 0] ------- [0:0 1:0 30 1] [73] 1 0
s 4.146000000 _0_ MAC  --- 74 cbr 282 [5 1 0 0] ------- [0:0 1:0 30 1] [74] 0 0
r 4.147128767 _1_ MAC  --- 74 cbr 230 [5 1 0 0] ------- [0:0 1:0 30 1] [74] 1 0
s 4.218000000 _0_ MAC  --- 75 cbr 282 [5 1 0 0] ------- [0:0 1:0 30 1] [75] 0 0
r 4.219128767 _1_ MAC  --- 75 cbr 230 [5 1 0 0] ------- [0:0 1:0 30 1] [75] 1 0
s 4.272000000 _0_ MAC  --- 76 cbr 282 [5 1 0 0] ------- [0:0 1:0 30 1] [76] 0 0
r 4.273128767 _1_ MAC  --- 76 cbr 230 [5 1 0 0] ------- [0:0 1:0 30 1] [76] 1 0
s 4.326000000 _0_ MAC  --- 77 cbr 282 [5 1 0 0] ------- [0:0 1:0 30 1] [77] 0 0
r 4.327128767 _1_ MAC  --- 77 cbr 230 [5 1 0 0] ------- [0:0 1:0 30 1] [77] 1 0
s 4.380000000 _0_ MAC  --- 78 cbr 282 [5 1 0 0] ------- [0:0 1:0 30 1] [78] 0 0
r 4.381128767 _1_ MAC  --- 78 cbr 230 [5 1 0 0] ------- [0:0 1:0 30 1] [78] 1 0
s 4.434000000 _0_ MAC  --- 79 cbr 282 [5 1 0 0] ------- [0:0 1:0 30 1] [79] 0 0
r 4.435128767 _1_ MAC  --- 79 cbr 230 [5 1 0 0] ------- [0:0 1:0 30 1] [79] 1 0
s 4.488000000 _0_ MAC  --- 80 cbr 282 [5 1 0 0] ------- [0:0 1:0 30 1] [80] 0 0
r 4.489128767 _1_ MAC  --- 80 cbr 230 [5 1 0 0] ------- [0:0 1:0 30 1] [80] 1 0
s 4.542000000 _0_ MAC  --- 81 cbr 282 [5 1 0 0] ------- [0:0 1:0 30 1] [81] 0 0
r 4.543128767 _1_ MAC  --- 81 cbr 230 [5 1 0 0] ------- [0:0 1:0 30 1] [81] 1 0
s 4.596000000 _0_ MAC  --- 82 cbr 282 [5 1 0 0] ------- [0:0 1:0 30 1] [82] 0 0
r 4.597128767 _1_ MAC  --- 82 cbr 230 [5 1 0 0] ------- [0:0 1:0 30 1] [82] 1 0
s 4.650000000 _0_ MAC  --- 83 cbr 282 [5 1 0 0] ------- [0:0 1:0 30 1] [83] 0 0
r 4.651128767 _1_ MAC  --- 83 cbr 230 [5 1 0 0] ------- [0:0 1:0 30 1] [83] 1 0
s 4.722000000 _0_ MAC  --- 84 cbr 282 [5 1 0 0] ------- [0:0 1:0 30 1] [84] 0 0
r 4.723128767 _1_ MAC  --- 84 cbr 230 [5 1 0 0] ------- [0:0 1:0 30 1] [84] 1 0
s 4.776000000 _0_ MAC  --- 85 cbr 282 [5 1 0 0] ------- [0:0 1:0 30 1] [85] 0 0
r 4.777128767 _1_ MAC  --- 85 cbr 230 [5 1 0 0] ------- [0:0 1:0 30 1] [85] 1 0
s 4.830000000 _0_ MAC  --- 86 cbr 282 [5 1 0 0] ------- [0:0 1:0 30 1] [86] 0 0
r 4.831128767 _1_ MAC  --- 86 cbr 230 [5 1 0 0] ------- [0:0 1:0 30 1] [86] 1 0
s 4.884000000 _0_ MAC  --- 87 cbr 282 [5 1 0 0] ------- [0:0 1:0 30 1] [87] 0 0
r 4.885128767 _1_ MAC  --- 87 cbr 230 [5 1 0 0] ------- [0:0 1:0 30 1] [87] 1 0
s 4.938000000 _0_ MAC  --- 88 cbr 282 [5 1 0 0] ------- [0:0 1:0 30 1] [88] 0 0
r 4.939128767 _1_ MAC  --- 88 cbr 230 [5 1 0 0] ------- [0:0 1:0 30 1] [88] 1 0
s 4.992000000 _0_ MAC  --- 89 cbr 282 [5 1 0 0] ------- [0:0 1:0 30 1] [89] 0 0
r 4.993128767 _1_ MAC  --- 89 cbr 230 [5 1 0 0] ------- [0:0 1:0 30 1] [89] 1 0
s 5.046000000 _0_ MAC  --- 90 cbr 282 [5 1 0 0] ------- [0:0 1:0 30 1] [90] 0 0
r 5.047128767 _1_ MAC  --- 90 cbr 230 [5 1 0 0] ------- [0:0 1:0 30 1] [90] 1 0
s 5.100000000 _0_ MAC  --- 91 cbr 282 [5 1 0 0] ------- [0:0 1:0 30 1] [91] 0 0
r 5.101128767 _1_ MAC  --- 91 cbr 230 [5 1 0 0] ------- [0:0 1:0 30 1] [91] 1 0
s 5.154000000 _0_ MAC  --- 92 cbr 282 [5 1 0 0] ------- [0:0 1:0 30 1] [92] 0 0
r 5.155128767 _1_ MAC  --- 92 cbr 230 [5 1 0 0] ------- [0:0 1:0 30 1] [92] 1 0
s 5.226000000 _0_ MAC  --- 93 cbr 282 [5 1 0 0] ------- [0:0 1:0 30 1] [93] 0 0
r 5.227128767 _1_ MAC  --- 93 cbr 230 [5 1 0 0] ------- [0:0 1:0 30 1] [93] 1 0
s 5.280000000 _0_ MAC  --- 94 cbr 282 [5 1 0 0] ------- [0:0 1:0 30 1] [94] 0 0
r 5.281128767 _1_ MAC  --- 94 cbr 230 [5 1 0 0] ------- [0:0 1:0 30 1] [94] 1 0
s 5.334000000 _0_ MAC  --- 95 cbr 282 [5 1 0 0] ------- [0:0 1:0 30 1] [95] 0 0
r 5.335128767 _1_ MAC  --- 95 cbr 230 [5 1 0 0] ------- [0:0 1:0 30 1] [95] 1 0
s 5.388000000 _0_ MAC  --- 96 cbr 282 [5 1 0 0] ------- [0:0 1:0 30 1] [96] 0 0
r 5.389128767 _1_ MAC  --- 96 cbr 230 [5 1 0 0] ------- [0:0 1:0 30 1] [96] 1 0
s 5.442000000 _0_ MAC  --- 97 cbr 282 [5 1 0 0] ------- [0:0 1:0 30 1] [97] 0 0
r 5.443128767 _1_ MAC  --- 97 cbr 230 [5 1 0 0] ------- [0:0 1:0 30 1] [97] 1 0
s 5.496000000 _0_ MAC  --- 98 cbr 282 [5 1 0 0] ------- [0:0 1:0 30 1] [98] 0 0
r 5.497128767 _1_ MAC  --- 98 cbr 230 [5 1 0 0] ------- [0:0 1:0 30 1] [98] 1 0
s 5.550000000 _0_ MAC  --- 99 cbr 282 [5 1 0 0] ------- [0:0 1:0 30 1] [99] 0 0
r 5.551128767 _1_ MAC  --- 99 cbr 230 [5 1 0 0] ------- [0:0 1:0 30 1] [99] 1 0
s 5.604000000 _0_ MAC  --- 100 cbr 282 [5 1 0 0] ------- [0:0 1:0 30 1] [100] 0 0
r 5.605128767 _1_ MAC  --- 100 cbr 230 [5 1 0 0] ------- [0:0 1:0 30 1] [100] 1 0
s 5.658000000 _0_ MAC  --- 101 cbr 282 [5 1 0 0] ------- [0:0 1:0 30 1] [101] 0 0
r 5.659128767 _1_ MAC  --- 101 cbr 230 [5 1 0 0] ------- [0:0 1:0 30 1] [101] 1 0
s 5.730000000 _0_ MAC  --- 102 cbr 282 [5 1 0 0] ------- [0:0 1:0 30 1] [102] 0 0
r 5.731128767 _1_ MAC  --- 102 cbr 230 [5 1 0 0] ------- [0:0 1:0 30 1] [102] 1 0
s 5.784000000 _0_ MAC  --- 103 cbr 282 [5 1 0 0] ------- [0:0 1:0 30 1] [103] 0 0
r 5.785128767 _1_ MAC  --- 103 cbr 230 [5 1 0 0] ------- [0:0 1:0 30 1] [103] 1 0
s 5.838000000 _0_ MAC  --- 104 cbr 282 [5 1 0 0] ------- [0:0 1:0 30 1] [104] 0 0
r 5.839128767 _1_ MAC  --- 104 cbr 230 [5 1 0 0] ------- [0:0 1:0 30 1] [104] 1 0
s 5.892000000 _0_ MAC  --- 105 cbr 282 [5 1 0 0] ------- [0:0 1:0 30 1] [105] 0 0
r 5.893128767 _1_ MAC  --- 105 cbr 230 [5 1 0 0] ------- [0:0 1:0 30 1] [105] 1 0
s 5.946000000 _0_ MAC  --- 106 cbr 282 [5 1 0 0] ------- [0:0 1:0 30 1] [106] 0 0
r 5.947128767 _1_ MAC  --- 106 cbr 230 [5 1 0 0] ------- [0:0 1:0 30 1] [106] 1 0
s 6.000000000 _0_ MAC  --- 107 cbr 282 [5 1 0 0] ------- [0:0 1:0 30 1] [107] 0 0
r 6.001128767 _1_ MAC  --- 107 cbr 230 [5 1 0 0] ------- [0:0 1:0 30 1] [107] 1 0
s 6.054000000 _0_ MAC  --- 108 cbr 282 [5 1 0 0] ------- [0:0 1:0 30 1] [108] 0 0
r 6.055128767 _1_ MAC  --- 108 cbr 230 [5 1 0 0] ------- [0:0 1:0 30 1] [108] 1 0
s 6.108000000 _0_ MAC  --- 109 cbr 282 [5 1 0 0] ------- [0:0 1:0 30 1] [109] 0 0
r 6.109128767 _1_ MAC  --- 109 cbr 230 [5 1 0 0] ------- [0:0 1:0 30 1] [109] 1 0
s 6.162000000 _0_ MAC  --- 110 cbr 282 [5 1 0 0] ------- [0:0 1:0 30 1] [110] 0 0
r 6.163128767 _1_ MAC  --- 110 cbr 230 [5 1 0 0] ------- [0:0 1:0 30 1] [110] 1 0
s 6.234000000 _0_ MAC  --- 111 cbr 282 [5 1 0 0] ------- [0:0 1:0 30 1] [111] 0 0
r 6.235128767 _1_ MAC  --- 111 cbr 230 [5 1 0 0] ------- [0:0 1:0 30 1] [111] 1 0
s 6.288000000 _0_ MAC  --- 112 cbr 282 [5 1 0 0] ------- [0:0 1:0 30 1] [112] 0 0
r 6.289128767 _1_ MAC  --- 112 cbr 230 [5 1 0 0] ------- [0:0 1:0 30 1] [112] 1 0
s 6.342000000 _0_ MAC  --- 113 cbr 282 [5 1 0 0] ------- [0:0 1:0 30 1] [113] 0 0
r 6.343128767 _1_ MAC  --- 113 cbr 230 [5 1 0 0] ------- [0:0 1:0 30 1] [113] 1 0
s 6.396000000 _0_ MAC  --- 114 cbr 282 [5 1 0 0] ------- [0:0 1:0 30 1] [114] 0 0
r 6.397128767 _1_ MAC  --- 114 cbr 230 [5 1 0 0] ------- [0:0 1:0 30 1] [114] 1 0
s 6.450000000 _0_ MAC  --- 115 cbr 282 [5 1 0 0] ------- [0:0 1:0 30 1] [115] 0 0
r 6.451128767 _1_ MAC  --- 115 cbr 230 [5 1 0 0] ------- [0:0 1:0 30 1] [115] 1 0
s 6.504000000 _0_ MAC  --- 116 cbr 282 [5 1 0 0] ------- [0:0 1:0 30 1] [116] 0 0
r 6.505128767 _1_ MAC  --- 116 cbr 230 [5 1 0 0] ------- [0:0 1:0 30 1] [116] 1 0
s 6.558000000 _0_ MAC  --- 117 cbr 282 [5 1 0 0] ------- [0:0 1:0 30 1] [117] 0 0
r 6.559128767 _1_ MAC  --- 117 cbr 230 [5 1 0 0] ------- [0:0 1:0 30 1] [117] 1 0
s 6.612000000 _0_ MAC  --- 118 cbr 282 [5 1 0 0] ------- [0:0 1:0 30 1] [118] 0 0
r 6.613128767 _1_ MAC  --- 118 cbr 230 [5 1 0 0] ------- [0:0 1:0 30 1] [118] 1 0
s 6.666000000 _0_ MAC  --- 119 cbr 282 [5 1 0 0] ------- [0:0 1:0 30 1] [119] 0 0
r 6.667128767 _1_ MAC  --- 119 cbr 230 [5 1 0 0] ------- [0:0 1:0 30 1] [119] 1 0
s 6.738000000 _0_ MAC  --- 120 cbr 282 [5 1 0 0] ------- [0:0 1:0 30 1] [120] 0 0
r 6.739128767 _1_ MAC  --- 120 cbr 230 [5 1 0 0] ------- [0:0 1:0 30 1] [120] 1 0
s 6.792000000 _0_ MAC  --- 121 cbr 282 [5 1 0 0] ------- [0:0 1:0 30 1] [121] 0 0
r 6.793128767 _1_ MAC  --- 121 cbr 230 [5 1 0 0] ------- [0:0 1:0 30 1] [121] 1 0
s 6.846000000 _0_ MAC  --- 122 cbr 282 [5 1 0 0] ------- [0:0 1:0 30 1] [122] 0 0
r 6.847128767 _1_ MAC  --- 122 cbr 230 [5 1 0 0] ------- [0:0 1:0 30 1] [122] 1 0
s 6.900000000 _0_ MAC  --- 123 cbr 282 [5 1 0 0] ------- [0:0 1:0 30 1] [123] 0 0
r 6.901128767 _1_ MAC  --- 123 cbr 230 [5 1 0 0] ------- [0:0 1:0 30 1] [123] 1 0
s 6.954000000 _0_ MAC  --- 124 cbr 282 [5 1 0 0] ------- [0:0 1:0 30 1] [124] 0 0
r 6.955128767 _1_ MAC  --- 124 cbr 230 [5 1 0 0] ------- [0:0 1:0 30 1] [124] 1 0
s 7.008000000 _0_ MAC  --- 125 cbr 282 [5 1 0 0] ------- [0:0 1:0 30 1] [125] 0 0
r 7.009128767 _1_ MAC  --- 125 cbr 230 [5 1 0 0] ------- [0:0 1:0 30 1] [125] 1 0
s 7.062000000 _0_ MAC  --- 126 cbr 282 [5 1 0 0] ------- [0:0 1:0 30 1] [126] 0 0
r 7.063128767 _1_ MAC  --- 126 cbr 230 [5 1 0 0] ------- [0:0 1:0 30 1] [126] 1 0
s 7.116000000 _0_ MAC  --- 127 cbr 282 [5 1 0 0] ------- [0:0 1:0 30 1] [127] 0 0
r 7.117128767 _1_ MAC  --- 127 cbr 230 [5 1 0 0] ------- [0:0 1:0 30 1] [127] 1 0
s 7.170000000 _0_ MAC  --- 128 cbr 282 [5 1 0 0] ------- [0:0 1:0 30 1] [128] 0 0
r 7.171128767 _1_ MAC  --- 128 cbr 230 [5 1 0 0] ------- [0:0 1:0 30 1] [128] 1 0
s 7.242000000 _0_ MAC  --- 129 cbr 282 [5 1 0 0] ------- [0:0 1:0 30 1] [129] 0 0
r 7.243128767 _1_ MAC  --- 129 cbr 230 [5 1 0 0] ------- [0:0 1:0 30 1] [129] 1 0
s 7.296000000 _0_ MAC  --- 130 cbr 282 [5 1 0 0] ------- [0:0 1:0 30 1] [130] 0 0
r 7.297128767 _1_ MAC  --- 130 cbr 230 [5 1 0 0] ------- [0:0 1:0 30 1] [130] 1 0
s 7.350000000 _0_ MAC  --- 131 cbr 282 [5 1 0 0] ------- [0:0 1:0 30 1] [131] 0 0
r 7.351128767 _1_ MAC  --- 131 cbr 230 [5 1 0 0] ------- [0:0 1:0 30 1] [131] 1 0
s 7.404000000 _0_ MAC  --- 132 cbr 282 [5 1 0 0] ------- [0:0 1:0 30 1] [132] 0 0
r 7.405128767 _1_ MAC  --- 132 cbr 230 [5 1 0 0] ------- [0:0 1:0 30 1] [132] 1 0
s 7.458000000 _0_ MAC  --- 133 cbr 282 [5 1 0 0] ------- [0:0 1:0 30 1] [133] 0 0
r 7.459128767 _1_ MAC  --- 133 cbr 230 [5 1 0 0] ------- [0:0 1:0 30 1] [133] 1 0
s 7.512000000 _0_ MAC  --- 134 cbr 282 [5 1 0 0] ------- [0:0 1:0 30 1] [134] 0 0
r 7.513128767 _1_ MAC  --- 134 cbr 230 [5 1 0 0] ------- [0:0 1:0 30 1] [134] 1 0
s 7.566000000 _0_ MAC  --- 135 cbr 282 [5 1 0 0] ------- [0:0 1:0 30 1] [135] 0 0
r 7.567128767 _1_ MAC  --- 135 cbr 230 [5 1 0 0] ------- [0:0 1:0 30 1] [135] 1 0
s 7.620000000 _0_ MAC  --- 136 cbr 282 [5 1 0 0] ------- [0:0 1:0 30 1] [136] 0 0
r 7.621128767 _1_ MAC  --- 136 cbr 230 [5 1 0 0] ------- [0:0 1:0 30 1] [136] 1 0
s 7.674000000 _0_ MAC  --- 137 cbr 282 [5 1 0 0] ------- [0:0 1:0 30 1] [137] 0 0
r 7.675128767 _1_ MAC  --- 137 cbr 230 [5 1 0 0] ------- [0:0 1:0 30 1] [137] 1 0
s 7.746000000 _0_ MAC  --- 138 cbr 282 [5 1 0 0] ------- [0:0 1:0 30 1] [138] 0 0
r 7.747128767 _1_ MAC  --- 138 cbr 230 [5 1 0 0] ------- [0:0 1:0 30 1] [138] 1 0
s 7.800000000 _0_ MAC  --- 139 cbr 282 [5 1 0 0] ------- [0:0 1:0 30 1] [139] 0 0
r 7.801128767 _1_ MAC  --- 139 cbr 230 [5 1 0 0] ------- [0:0 1:0 30 1] [139] 1 0
s 7.854000000 _0_ MAC  --- 140 cbr 282 [5 1 0 0] ------- [0:0 1:0 30 1] [140] 0 0
r 7.855128767 _1_ MAC  --- 140 cbr 230 [5 1 0 0] ------- [0:0 1:0 30 1] [140] 1 0
s 7.908000000 _0_ MAC  --- 141 cbr 282 [5 1 0 0] ------- [0:0 1:0 30 1] [141] 0 0
r 7.909128767 _1_ MAC  --- 141 cbr 230 [5 1 0 0] ------- [0:0 1:0 30 1] [141] 1 0
s 7.962000000 _0_ MAC  --- 142 cbr 282 [5 1 0 0] ------- [0:0 1:0 30 1] [142] 0 0
r 7.963128767 _1_ MAC  --- 142 cbr 230 [5 1 0 0] ------- [0:0 1:0 30 1] [142] 1 0
s 8.016000000 _0_ MAC  --- 143 cbr 282 [5 1 0 0] ------- [0:0 1:0 30 1] [143] 0 0
r 8.017128767 _1_ MAC  --- 143 cbr 230 [5 1 0 0] ------- [0:0 1:0 30 1] [143] 1 0
s 8.070000000 _0_ MAC  --- 144 cbr 282 [5 1 0 0] ------- [0:0 1:0 30 1] [144] 0 0
r 8.071128767 _1_ MAC  --- 144 cbr 230 [5 1 0 0] ------- [0:0 1:0 30 1] [144] 1 0
s 8.124000000 _0_ MAC  --- 145 cbr 282 [5 1 0 0] ------- [0:0 1:0 30 1] [145] 0 0
r 8.125128767 _1_ MAC  --- 145 cbr 230 [5 1 0 0] ------- [0:0 1:0 30 1] [145] 1 0
s 8.178000000 _0_ MAC  --- 146 cbr 282 [5 1 0 0] ------- [0:0 1:0 30 1] [146] 0 0
r 8.179128767 _1_ MAC  --- 146 cbr 230 [5 1 0 0] ------- [0:0 1:0 30 1] [146] 1 0
s 8.250000000 _0_ MAC  --- 147 cbr 282 [5 1 0 0] ------- [0:0 1:0 30 1] [147] 0 0
r 8.251128767 _1_ MAC  --- 147 cbr 230 [5 1 0 0] ------- [0:0 1:0 30 1] [147] 1 0
s 8.304000000 _0_ MAC  --- 148 cbr 282 [5 1 0 0] ------- [0:0 1:0 30 1] [148] 0 0
r 8.305128767 _1_ MAC  --- 148 cbr 230 [5 1 0 0] ------- [0:0 1:0 30 1] [148] 1 0
s 8.358000000 _0_ MAC  --- 149 cbr 282 [5 1 0 0] ------- [0:0 1:0 30 1] [149] 0 0
r 8.359128767 _1_ MAC  --- 149 cbr 230 [5 1 0 0] ------- [0:0 1:0 30 1] [149] 1 0
s 8.412000000 _0_ MAC  --- 150 cbr 282 [5 1 0 0] ------- [0:0 1:0 30 1] [150] 0 0
r 8.413128767 _1_ MAC  --- 150 cbr 230 [5 1 0 0] ------- [0:0 1:0 30 1] [150] 1 0
s 8.466000000 _0_ MAC  --- 151 cbr 282 [5 1 0 0] ------- [0:0 1:0 30 1] [151] 0 0
r 8.467128767 _1_ MAC  --- 151 cbr 230 [5 1 0 0] ------- [0:0 1:0 30 1] [151] 1 0
s 8.520000000 _0_ MAC  --- 152 cbr 282 [5 1 0 0] ------- [0:0 1:0 30 1] [152] 0 0
r 8.521128767 _1_ MAC  --- 152 cbr 230 [5 1 0 0] ------- [0:0 1:0 30 1] [152] 1 0
s 8.574000000 _0_ MAC  --- 153 cbr 282 [5 1 0 0] ------- [0:0 1:0 30 1] [153] 0 0
r 8.575128767 _1_ MAC  --- 153 cbr 230 [5 1 0 0] ------- [0:0 1:0 30 1] [153] 1 0
s 8.628000000 _0_ MAC  --- 154 cbr 282 [5 1 0 0] ------- [0:0 1:0 30 1] [154] 0 0
r 8.629128767 _1_ MAC  --- 154 cbr 230 [5 1 0 0] ------- [0:0 1:0 30 1] [154] 1 0
s 8.682000000 _0_ MAC  --- 155 cbr 282 [5 1 0 0] ------- [0:0 1:0 30 1] [155] 0 0
r 8.683128767 _1_ MAC  --- 155 cbr 230 [5 1 0 0] ------- [0:0 1:0 30 1] [155] 1 0
s 8.754000000 _0_ MAC  --- 156 cbr 282 [5 1 0 0] ------- [0:0 1:0 30 1] [156] 0 0
r 8.755128767 _1_ MAC  --- 156 cbr 230 [5 1 0 0] ------- [0:0 1:0 30 1] [156] 1 0
s 8.808000000 _0_ MAC  --- 157 cbr 282 [5 1 0 0] ------- [0:0 1:0 30 1] [157] 0 0
r 8.809128767 _1_ MAC  --- 157 cbr 230 [5 1 0 0] ------- [0:0 1:0 30 1] [157] 1 0
s 8.862000000 _0_ MAC  --- 158 cbr 282 [5 1 0 0] ------- [0:0 1:0 30 1] [158] 0 0
r 8.863128767 _1_ MAC  --- 158 cbr 230 [5 1 0 0] ------- [0:0 1:0 30 1] [158] 1 0
s 8.916000000 _0_ MAC  --- 159 cbr 282 [5 1 0 0] ------- [0:0 1:0 30 1] [159] 0 0
r 8.917128767 _1_ MAC  --- 159 cbr 230 [5 1 0 0] ------- [0:0 1:0 30 1] [159] 1 0
s 8.970000000 _0_ MAC  --- 160 cbr 282 [5 1 0 0] ------- [0:0 1:0 30 1] [160] 0 0
r 8.971128767 _1_ MAC  --- 160 cbr 230 [5 1 0 0] ------- [0:0 1:0 30 1] [160] 1 0
s 9.024000000 _0_ MAC  --- 161 cbr 282 [5 1 0 0] ------- [0:0 1:0 30 1] [161] 0 0
r 9.025128767 _1_ MAC  --- 161 cbr 230 [5 1 0 0] ------- [0:0 1:0 30 1] [161] 1 0
s 9.078000000 _0_ MAC  --- 162 cbr 282 [5 1 0 0] ------- [0:0 1:0 30 1] [162] 0 0
r 9.079128767 _1_ MAC  --- 162 cbr 230 [5 1 0 0] ------- [0:0 1:0 30 1] [162] 1 0
s 9.132000000 _0_ MAC  --- 163 cbr 282 [5 1 0 0] ------- [0:0 1:0 30 1] [163] 0 0
r 9.133128767 _1_ MAC  --- 163 cbr 230 [5 1 0 0] ------- [0:0 1:0 30 1] [163] 1 0
s 9.186000000 _0_ MAC  --- 164 cbr 282 [5 1 0 0] ------- [0:0 1:0 30 1] [164] 0 0
r 9.187128767 _1_ MAC  --- 164 cbr 230 [5 1 0 0] ------- [0:0 1:0 30 1] [164] 1 0
s 9.258000000 _0_ MAC  --- 165 cbr 282 [5 1 0 0] ------- [0:0 1:0 30 1] [165] 0 0
r 9.259128767 _1_ MAC  --- 165 cbr 230 [5 1 0 0] ------- [0:0 1:0 30 1] [165] 1 0
s 9.312000000 _0_ MAC  --- 166 cbr 282 [5 1 0 0] ------- [0:0 1:0 30 1] [166] 0 0
r 9.313128767 _1_ MAC  --- 166 cbr 230 [5 1 0 0] ------- [0:0 1:0 30 1] [166] 1 0
s 9.366000000 _0_ MAC  --- 167 cbr 282 [5 1 0 0] ------- [0:0 1:0 30 1] [167] 0 0
r 9.367128767 _1_ MAC  --- 167 cbr 230 [5 1 0 0] ------- [0:0 1:0 30 1] [167] 1 0
s 9.420000000 _0_ MAC  --- 168 cbr 282 [5 1 0 0] ------- [0:0 1:0 30 1] [168] 0 0
r 9.421128767 _1_ MAC  --- 168 cbr 230 [5 1 0 0] ------- [0:0 1:0 30 1] [168] 1 0
s 9.474000000 _0_ MAC  --- 169 cbr 282 [5 1 0 0] ------- [0:0 1:0 30 1] [169] 0 0
r 9.475128767 _1_ MAC  --- 169 cbr 230 [5 1 0 0] ------- [0:0 1:0 30 1] [169] 1 0
s 9.528000000 _0_ MAC  --- 170 cbr 282 [5 1 0 0] ------- [0:0 1:0 30 1] [170] 0 0
r 9.529128767 _1_ MAC  --- 170 cbr 230 [5 1 0 0] ------- [0:0 1:0 30 1] [170] 1 0
s 9.582000000 _0_ MAC  --- 171 cbr 282 [5 1 0 0] ------- [0:0 1:0 30 1] [171] 0 0
r 9.583128767 _1_ MAC  --- 171 cbr 230 [5 1 0 0] ------- [0:0 1:0 30 1] [171] 1 0
s 9.636000000 _0_ MAC  --- 172 cbr 282 [5 1 0 0] ------- [0:0 1:0 30 1] [172] 0 0
r 9.637128767 _1_ MAC  --- 172 cbr 230 [5 1 0 0] ------- [0:0 1:0 30 1] [172] 1 0
s 9.690000000 _0_ MAC  --- 173 cbr 282 [5 1 0 0] ------- [0:0 1:0 30 1] [173] 0 0
r 9.691128767 _1_ MAC  --- 173 cbr 230 [5 1 0 0] ------- [0:0 1:0 30 1] [173] 1 0
s 9.762000000 _0_ MAC  --- 174 cbr 282 [5 1 0 0] ------- [0:0 1:0 30 1] [174] 0 0
r 9.763128767 _1_ MAC  --- 174 cbr 230 [5 1 0 0] ------- [0:0 1:0 30 1] [174] 1 0
s 9.816000000 _0_ MAC  --- 175 cbr 282 [5 1 0 0] ------- [0:0 1:0 30 1] [175] 0 0
r 9.817128767 _1_ MAC  --- 175 cbr 230 [5 1 0 0] ------- [0:0 1:0 30 1] [175] 1 0
s 9.870000000 _0_ MAC  --- 176 cbr 282 [5 1 0 0] ------- [0:0 1:0 30 1] [176] 0 0
r 9.871128767 _1_ MAC  --- 176 cbr 230 [5 1 0 0] ------- [0:0 1:0 30 1] [176] 1 0
s 9.924000000 _0_ MAC  --- 177 cbr 282 [5 1 0 0] ------- [0:0 1:0 30 1] [177] 0 0
r 9.925128767 _1_ MAC  --- 177 cbr 230 [5 1 0 0] ------- [0:0 1:0 30 1] [177] 1 0
s 9.978000000 _0_ MAC  --- 178 cbr 282 [5 1 0 0] ------- [0:0 1:0 30 1] [178] 0 0
r 9.979128767 _1_ MAC  --- 178 cbr 230 [5 1 0 0] ------- [0:0 1:0 30 1] [178] 1 0
