s 0.500000000 _0_ AGT  --- 0 cbr 210 [0 0 0 0] ------- [0:0 2:0 32 0] [0] 0 0
s 0.500000000 _1_ AGT  --- 1 cbr 210 [0 0 0 0] ------- [1:0 2:1 32 0] [0] 0 0
s 0.556000000 _0_ AGT  --- 2 cbr 210 [0 0 0 0] ------- [0:0 2:0 32 0] [1] 0 0
s 0.556000000 _1_ AGT  --- 3 cbr 210 [0 0 0 0] ------- [1:0 2:1 32 0] [1] 0 0
s 0.600000000 _2_ AGT  --- 4 cbr 210 [0 0 0 0] ------- [2:2 1:1 32 0] [0] 0 0
s 0.656000000 _2_ AGT  --- 5 cbr 210 [0 0 0 0] ------- [2:2 1:1 32 0] [1] 0 0
s 0.712000000 _2_ AGT  --- 6 cbr 210 [0 0 0 0] ------- [2:2 1:1 32 0] [2] 0 0
s 0.768000000 _2_ AGT  --- 7 cbr 210 [0 0 0 0] ------- [2:2 1:1 32 0] [3] 0 0
s 0.824000000 _2_ AGT  --- 8 cbr 210 [0 0 0 0] ------- [2:2 1:1 32 0] [4] 0 0
s 0.880000000 _2_ AGT  --- 9 cbr 210 [0 0 0 0] ------- [2:2 1:1 32 0] [5] 0 0
s 0.936000000 _2_ AGT  --- 10 cbr 210 [0 0 0 0] ------- [2:2 1:1 32 0] [6] 0 0
s 0.992000000 _2_ AGT  --- 11 cbr 210 [0 0 0 0] ------- [2:2 1:1 32 0] [7] 0 0
