n -t * -s 0  -x 200 -y 800 -Z 0 -z 10  -v circle -c black
n -t * -s 1  -x 200 -y 570 -Z 0 -z 10  -v circle -c black
n -t * -s 2  -x 430 -y 800 -Z 0 -z 10  -v circle -c black
n -t * -s 3  -x 200 -y 100 -Z 0 -z 10  -v circle -c black
V -t * -v 1.0a5 -a 0
W -t * -x 1000 -y 1000
A -t * -n 1 -p 0 -o 0x7fffffff -c 30 -a 1
A -t * -h 1 -m 1073741823 -s 0
+ -t 0.012000000 -s 0 -d -1 -p AODV -e 100 -c 2 -a 0 -i 0 -k MAC 
- -t 0.012000000 -s 0 -d -1 -p AODV -e 100 -c 2 -a 0 -i 0 -k MAC
h -t 0.012000000 -s 0 -d -1 -p AODV -e 100 -c 2 -a 0 -i 0 -k MAC
r -t 0.012400767 -s 1 -d -1 -p AODV -e 48 -c 2 -a 0 -i 0 -k MAC
r -t 0.012400767 -s 2 -d -1 -p AODV -e 48 -c 2 -a 0 -i 0 -k MAC
+ -t 0.018000000 -s 0 -d -1 -p AODV -e 100 -c 2 -a 0 -i 0 -k MAC 
- -t 0.018000000 -s 0 -d -1 -p AODV -e 100 -c 2 -a 0 -i 0 -k MAC
h -t 0.018000000 -s 0 -d -1 -p AODV -e 100 -c 2 -a 0 -i 0 -k MAC
r -t 0.018400767 -s 1 -d -1 -p AODV -e 48 -c 2 -a 0 -i 0 -k MAC
r -t 0.018400767 -s 2 -d -1 -p AODV -e 48 -c 2 -a 0 -i 0 -k MAC
+ -t 0.024000000 -s 2 -d -1 -p AODV -e 100 -c 2 -a 0 -i 0 -k MAC 
- -t 0.024000000 -s 2 -d -1 -p AODV -e 100 -c 2 -a 0 -i 0 -k MAC
h -t 0.024000000 -s 2 -d -1 -p AODV -e 100 -c 2 -a 0 -i 0 -k MAC
r -t 0.024400767 -s 0 -d -1 -p AODV -e 48 -c 2 -a 0 -i 0 -k MAC
r -t 0.024401084 -s 1 -d -1 -p AODV -e 48 -c 2 -a 0 -i 0 -k MAC
+ -t 0.030000000 -s 1 -d -1 -p ARP -e 80 -c 2 -a 0 -i 0 -k MAC 
- -t 0.030000000 -s 1 -d -1 -p ARP -e 80 -c 2 -a 0 -i 0 -k MAC
h -t 0.030000000 -s 1 -d -1 -p ARP -e 80 -c 2 -a 0 -i 0 -k MAC
r -t 0.030320767 -s 0 -d -1 -p ARP -e 28 -c 2 -a 0 -i 0 -k MAC
r -t 0.030321084 -s 2 -d -1 -p ARP -e 28 -c 2 -a 0 -i 0 -k MAC
+ -t 0.036000000 -s 0 -d -1 -p ARP -e 80 -c 2 -a 0 -i 0 -k MAC 
- -t 0.036000000 -s 0 -d -1 -p ARP -e 80 -c 2 -a 0 -i 0 -k MAC
h -t 0.036000000 -s 0 -d -1 -p ARP -e 80 -c 2 -a 0 -i 0 -k MAC
r -t 0.036320767 -s 1 -d -1 -p ARP -e 28 -c 2 -a 0 -i 0 -k MAC
d -t 0.036320767 -s 2 -d -1 -p ARP -e 80 -c 2 -a 0 -i 0 -k MAC
+ -t 0.048000000 -s 2 -d -1 -p ARP -e 80 -c 2 -a 0 -i 0 -k MAC 
- -t 0.048000000 -s 2 -d -1 -p ARP -e 80 -c 2 -a 0 -i 0 -k MAC
h -t 0.048000000 -s 2 -d -1 -p ARP -e 80 -c 2 -a 0 -i 0 -k MAC
r -t 0.048320767 -s 0 -d -1 -p ARP -e 28 -c 2 -a 0 -i 0 -k MAC
r -t 0.048321084 -s 1 -d -1 -p ARP -e 28 -c 2 -a 0 -i 0 -k MAC
+ -t 0.054000000 -s 1 -d -1 -p AODV -e 100 -c 2 -a 0 -i 0 -k MAC 
- -t 0.054000000 -s 1 -d -1 -p AODV -e 100 -c 2 -a 0 -i 0 -k MAC
h -t 0.054000000 -s 1 -d -1 -p AODV -e 100 -c 2 -a 0 -i 0 -k MAC
r -t 0.054400767 -s 0 -d -1 -p AODV -e 48 -c 2 -a 0 -i 0 -k MAC
r -t 0.054401084 -s 2 -d -1 -p AODV -e 48 -c 2 -a 0 -i 0 -k MAC
+ -t 0.060000000 -s 0 -d -1 -p ARP -e 80 -c 2 -a 0 -i 0 -k MAC 
- -t 0.060000000 -s 0 -d -1 -p ARP -e 80 -c 2 -a 0 -i 0 -k MAC
h -t 0.060000000 -s 0 -d -1 -p ARP -e 80 -c 2 -a 0 -i 0 -k MAC
d -t 0.060320767 -s 1 -d -1 -p ARP -e 80 -c 2 -a 0 -i 0 -k MAC
r -t 0.060320767 -s 2 -d -1 -p ARP -e 28 -c 2 -a 0 -i 0 -k MAC
+ -t 0.072000000 -s 2 -d 0 -p AODV -e 96 -c 2 -a 0 -i 0 -k MAC 
- -t 0.072000000 -s 2 -d 0 -p AODV -e 96 -c 2 -a 0 -i 0 -k MAC
h -t 0.072000000 -s 2 -d 0 -p AODV -e 96 -c 2 -a 0 -i 0 -k MAC
r -t 0.072384767 -s 0 -d 0 -p AODV -e 44 -c 2 -a 0 -i 0 -k MAC
d -t 0.072385084 -s 1 -d 0 -p AODV -e 96 -c 2 -a 0 -i 0 -k MAC
+ -t 0.078000000 -s 1 -d 0 -p AODV -e 96 -c 2 -a 0 -i 0 -k MAC 
- -t 0.078000000 -s 1 -d 0 -p AODV -e 96 -c 2 -a 0 -i 0 -k MAC
h -t 0.078000000 -s 1 -d 0 -p AODV -e 96 -c 2 -a 0 -i 0 -k MAC
r -t 0.078384767 -s 0 -d 0 -p AODV -e 44 -c 2 -a 0 -i 0 -k MAC
d -t 0.078385084 -s 2 -d 0 -p AODV -e 96 -c 2 -a 0 -i 0 -k MAC
+ -t 0.084000000 -s 0 -d 2 -p cbr -e 282 -c 2 -a 0 -i 1 -k MAC 
- -t 0.084000000 -s 0 -d 2 -p cbr -e 282 -c 2 -a 0 -i 1 -k MAC
h -t 0.084000000 -s 0 -d 2 -p cbr -e 282 -c 2 -a 0 -i 1 -k MAC
d -t 0.085128767 -s 1 -d 2 -p cbr -e 282 -c 2 -a 0 -i 1 -k MAC
r -t 0.085128767 -s 2 -d 2 -p cbr -e 230 -c 2 -a 0 -i 1 -k MAC
+ -t 0.090000000 -s 0 -d 1 -p cbr -e 282 -c 2 -a 0 -i 0 -k MAC 
- -t 0.090000000 -s 0 -d 1 -p cbr -e 282 -c 2 -a 0 -i 0 -k MAC
h -t 0.090000000 -s 0 -d 1 -p cbr -e 282 -c 2 -a 0 -i 0 -k MAC
r -t 0.091128767 -s 1 -d 1 -p cbr -e 230 -c 2 -a 0 -i 0 -k MAC
d -t 0.091128767 -s 2 -d 1 -p cbr -e 282 -c 2 -a 0 -i 0 -k MAC
+ -t 0.108000000 -s 0 -d 2 -p cbr -e 282 -c 2 -a 0 -i 3 -k MAC 
- -t 0.108000000 -s 0 -d 2 -p cbr -e 282 -c 2 -a 0 -i 3 -k MAC
h -t 0.108000000 -s 0 -d 2 -p cbr -e 282 -c 2 -a 0 -i 3 -k MAC
d -t 0.109128767 -s 1 -d 2 -p cbr -e 282 -c 2 -a 0 -i 3 -k MAC
r -t 0.109128767 -s 2 -d 2 -p cbr -e 230 -c 2 -a 0 -i 3 -k MAC
+ -t 0.114000000 -s 0 -d 1 -p cbr -e 282 -c 2 -a 0 -i 2 -k MAC 
- -t 0.114000000 -s 0 -d 1 -p cbr -e 282 -c 2 -a 0 -i 2 -k MAC
h -t 0.114000000 -s 0 -d 1 -p cbr -e 282 -c 2 -a 0 -i 2 -k MAC
r -t 0.115128767 -s 1 -d 1 -p cbr -e 230 -c 2 -a 0 -i 2 -k MAC
d -t 0.115128767 -s 2 -d 1 -p cbr -e 282 -c 2 -a 0 -i 2 -k MAC
+ -t 0.132000000 -s 0 -d 1 -p cbr -e 282 -c 2 -a 0 -i 4 -k MAC 
- -t 0.132000000 -s 0 -d 1 -p cbr -e 282 -c 2 -a 0 -i 4 -k MAC
h -t 0.132000000 -s 0 -d 1 -p cbr -e 282 -c 2 -a 0 -i 4 -k MAC
r -t 0.133128767 -s 1 -d 1 -p cbr -e 230 -c 2 -a 0 -i 4 -k MAC
d -t 0.133128767 -s 2 -d 1 -p cbr -e 282 -c 2 -a 0 -i 4 -k MAC
+ -t 0.138000000 -s 0 -d 2 -p cbr -e 282 -c 2 -a 0 -i 5 -k MAC 
- -t 0.138000000 -s 0 -d 2 -p cbr -e 282 -c 2 -a 0 -i 5 -k MAC
h -t 0.138000000 -s 0 -d 2 -p cbr -e 282 -c 2 -a 0 -i 5 -k MAC
d -t 0.139128767 -s 1 -d 2 -p cbr -e 282 -c 2 -a 0 -i 5 -k MAC
r -t 0.139128767 -s 2 -d 2 -p cbr -e 230 -c 2 -a 0 -i 5 -k MAC
+ -t 0.180000000 -s 0 -d 1 -p cbr -e 282 -c 2 -a 0 -i 6 -k MAC 
- -t 0.180000000 -s 0 -d 1 -p cbr -e 282 -c 2 -a 0 -i 6 -k MAC
h -t 0.180000000 -s 0 -d 1 -p cbr -e 282 -c 2 -a 0 -i 6 -k MAC
r -t 0.181128767 -s 1 -d 1 -p cbr -e 230 -c 2 -a 0 -i 6 -k MAC
d -t 0.181128767 -s 2 -d 1 -p cbr -e 282 -c 2 -a 0 -i 6 -k MAC
+ -t 0.186000000 -s 0 -d 2 -p cbr -e 282 -c 2 -a 0 -i 7 -k MAC 
- -t 0.186000000 -s 0 -d 2 -p cbr -e 282 -c 2 -a 0 -i 7 -k MAC
h -t 0.186000000 -s 0 -d 2 -p cbr -e 282 -c 2 -a 0 -i 7 -k MAC
d -t 0.187128767 -s 1 -d 2 -p cbr -e 282 -c 2 -a 0 -i 7 -k MAC
r -t 0.187128767 -s 2 -d 2 -p cbr -e 230 -c 2 -a 0 -i 7 -k MAC
+ -t 0.228000000 -s 0 -d 1 -p cbr -e 282 -c 2 -a 0 -i 8 -k MAC 
- -t 0.228000000 -s 0 -d 1 -p cbr -e 282 -c 2 -a 0 -i 8 -k MAC
h -t 0.228000000 -s 0 -d 1 -p cbr -e 282 -c 2 -a 0 -i 8 -k MAC
r -t 0.229128767 -s 1 -d 1 -p cbr -e 230 -c 2 -a 0 -i 8 -k MAC
d -t 0.229128767 -s 2 -d 1 -p cbr -e 282 -c 2 -a 0 -i 8 -k MAC
+ -t 0.234000000 -s 0 -d 2 -p cbr -e 282 -c 2 -a 0 -i 9 -k MAC 
- -t 0.234000000 -s 0 -d 2 -p cbr -e 282 -c 2 -a 0 -i 9 -k MAC
h -t 0.234000000 -s 0 -d 2 -p cbr -e 282 -c 2 -a 0 -i 9 -k MAC
d -t 0.235128767 -s 1 -d 2 -p cbr -e 282 -c 2 -a 0 -i 9 -k MAC
r -t 0.235128767 -s 2 -d 2 -p cbr -e 230 -c 2 -a 0 -i 9 -k MAC
+ -t 0.282000000 -s 0 -d 1 -p cbr -e 282 -c 2 -a 0 -i 10 -k MAC 
- -t 0.282000000 -s 0 -d 1 -p cbr -e 282 -c 2 -a 0 -i 10 -k MAC
h -t 0.282000000 -s 0 -d 1 -p cbr -e 282 -c 2 -a 0 -i 10 -k MAC
r -t 0.283128767 -s 1 -d 1 -p cbr -e 230 -c 2 -a 0 -i 10 -k MAC
d -t 0.283128767 -s 2 -d 1 -p cbr -e 282 -c 2 -a 0 -i 10 -k MAC
+ -t 0.300000000 -s 0 -d 2 -p cbr -e 282 -c 2 -a 0 -i 11 -k MAC 
- -t 0.300000000 -s 0 -d 2 -p cbr -e 282 -c 2 -a 0 -i 11 -k MAC
h -t 0.300000000 -s 0 -d 2 -p cbr -e 282 -c 2 -a 0 -i 11 -k MAC
d -t 0.301128767 -s 1 -d 2 -p cbr -e 282 -c 2 -a 0 -i 11 -k MAC
r -t 0.301128767 -s 2 -d 2 -p cbr -e 230 -c 2 -a 0 -i 11 -k MAC
+ -t 0.348000000 -s 0 -d 1 -p cbr -e 282 -c 2 -a 0 -i 12 -k MAC 
- -t 0.348000000 -s 0 -d 1 -p cbr -e 282 -c 2 -a 0 -i 12 -k MAC
h -t 0.348000000 -s 0 -d 1 -p cbr -e 282 -c 2 -a 0 -i 12 -k MAC
r -t 0.349128767 -s 1 -d 1 -p cbr -e 230 -c 2 -a 0 -i 12 -k MAC
d -t 0.349128767 -s 2 -d 1 -p cbr -e 282 -c 2 -a 0 -i 12 -k MAC
+ -t 0.354000000 -s 0 -d 2 -p cbr -e 282 -c 2 -a 0 -i 13 -k MAC 
- -t 0.354000000 -s 0 -d 2 -p cbr -e 282 -c 2 -a 0 -i 13 -k MAC
h -t 0.354000000 -s 0 -d 2 -p cbr -e 282 -c 2 -a 0 -i 13 -k MAC
d -t 0.355128767 -s 1 -d 2 -p cbr -e 282 -c 2 -a 0 -i 13 -k MAC
r -t 0.355128767 -s 2 -d 2 -p cbr -e 230 -c 2 -a 0 -i 13 -k MAC
+ -t 0.396000000 -s 0 -d 1 -p cbr -e 282 -c 2 -a 0 -i 14 -k MAC 
- -t 0.396000000 -s 0 -d 1 -p cbr -e 282 -c 2 -a 0 -i 14 -k MAC
h -t 0.396000000 -s 0 -d 1 -p cbr -e 282 -c 2 -a 0 -i 14 -k MAC
r -t 0.397128767 -s 1 -d 1 -p cbr -e 230 -c 2 -a 0 -i 14 -k MAC
d -t 0.397128767 -s 2 -d 1 -p cbr -e 282 -c 2 -a 0 -i 14 -k MAC
+ -t 0.402000000 -s 0 -d 2 -p cbr -e 282 -c 2 -a 0 -i 15 -k MAC 
- -t 0.402000000 -s 0 -d 2 -p cbr -e 282 -c 2 -a 0 -i 15 -k MAC
h -t 0.402000000 -s 0 -d 2 -p cbr -e 282 -c 2 -a 0 -i 15 -k MAC
d -t 0.403128767 -s 1 -d 2 -p cbr -e 282 -c 2 -a 0 -i 15 -k MAC
r -t 0.403128767 -s 2 -d 2 -p cbr -e 230 -c 2 -a 0 -i 15 -k MAC
+ -t 0.450000000 -s 0 -d 1 -p cbr -e 282 -c 2 -a 0 -i 16 -k MAC 
- -t 0.450000000 -s 0 -d 1 -p cbr -e 282 -c 2 -a 0 -i 16 -k MAC
h -t 0.450000000 -s 0 -d 1 -p cbr -e 282 -c 2 -a 0 -i 16 -k MAC
r -t 0.451128767 -s 1 -d 1 -p cbr -e 230 -c 2 -a 0 -i 16 -k MAC
d -t 0.451128767 -s 2 -d 1 -p cbr -e 282 -c 2 -a 0 -i 16 -k MAC
+ -t 0.468000000 -s 0 -d 2 -p cbr -e 282 -c 2 -a 0 -i 17 -k MAC 
- -t 0.468000000 -s 0 -d 2 -p cbr -e 282 -c 2 -a 0 -i 17 -k MAC
h -t 0.468000000 -s 0 -d 2 -p cbr -e 282 -c 2 -a 0 -i 17 -k MAC
d -t 0.469128767 -s 1 -d 2 -p cbr -e 282 -c 2 -a 0 -i 17 -k MAC
r -t 0.469128767 -s 2 -d 2 -p cbr -e 230 -c 2 -a 0 -i 17 -k MAC
+ -t 0.516000000 -s 0 -d 1 -p cbr -e 282 -c 2 -a 0 -i 18 -k MAC 
- -t 0.516000000 -s 0 -d 1 -p cbr -e 282 -c 2 -a 0 -i 18 -k MAC
h -t 0.516000000 -s 0 -d 1 -p cbr -e 282 -c 2 -a 0 -i 18 -k MAC
r -t 0.517128767 -s 1 -d 1 -p cbr -e 230 -c 2 -a 0 -i 18 -k MAC
d -t 0.517128767 -s 2 -d 1 -p cbr -e 282 -c 2 -a 0 -i 18 -k MAC
+ -t 0.522000000 -s 0 -d 2 -p cbr -e 282 -c 2 -a 0 -i 19 -k MAC 
- -t 0.522000000 -s 0 -d 2 -p cbr -e 282 -c 2 -a 0 -i 19 -k MAC
h -t 0.522000000 -s 0 -d 2 -p cbr -e 282 -c 2 -a 0 -i 19 -k MAC
d -t 0.523128767 -s 1 -d 2 -p cbr -e 282 -c 2 -a 0 -i 19 -k MAC
r -t 0.523128767 -s 2 -d 2 -p cbr -e 230 -c 2 -a 0 -i 19 -k MAC
+ -t 0.564000000 -s 0 -d 1 -p cbr -e 282 -c 2 -a 0 -i 20 -k MAC 
- -t 0.564000000 -s 0 -d 1 -p cbr -e 282 -c 2 -a 0 -i 20 -k MAC
h -t 0.564000000 -s 0 -d 1 -p cbr -e 282 -c 2 -a 0 -i 20 -k MAC
r -t 0.565128767 -s 1 -d 1 -p cbr -e 230 -c 2 -a 0 -i 20 -k MAC
d -t 0.565128767 -s 2 -d 1 -p cbr -e 282 -c 2 -a 0 -i 20 -k MAC
+ -t 0.570000000 -s 0 -d 2 -p cbr -e 282 -c 2 -a 0 -i 21 -k MAC 
- -t 0.570000000 -s 0 -d 2 -p cbr -e 282 -c 2 -a 0 -i 21 -k MAC
h -t 0.570000000 -s 0 -d 2 -p cbr -e 282 -c 2 -a 0 -i 21 -k MAC
d -t 0.571128767 -s 1 -d 2 -p cbr -e 282 -c 2 -a 0 -i 21 -k MAC
r -t 0.571128767 -s 2 -d 2 -p cbr -e 230 -c 2 -a 0 -i 21 -k MAC
+ -t 0.618000000 -s 0 -d 1 -p cbr -e 282 -c 2 -a 0 -i 22 -k MAC 
- -t 0.618000000 -s 0 -d 1 -p cbr -e 282 -c 2 -a 0 -i 22 -k MAC
h -t 0.618000000 -s 0 -d 1 -p cbr -e 282 -c 2 -a 0 -i 22 -k MAC
r -t 0.619128767 -s 1 -d 1 -p cbr -e 230 -c 2 -a 0 -i 22 -k MAC
d -t 0.619128767 -s 2 -d 1 -p cbr -e 282 -c 2 -a 0 -i 22 -k MAC
+ -t 0.636000000 -s 0 -d 2 -p cbr -e 282 -c 2 -a 0 -i 23 -k MAC 
- -t 0.636000000 -s 0 -d 2 -p cbr -e 282 -c 2 -a 0 -i 23 -k MAC
h -t 0.636000000 -s 0 -d 2 -p cbr -e 282 -c 2 -a 0 -i 23 -k MAC
d -t 0.637128767 -s 1 -d 2 -p cbr -e 282 -c 2 -a 0 -i 23 -k MAC
r -t 0.637128767 -s 2 -d 2 -p cbr -e 230 -c 2 -a 0 -i 23 -k MAC
+ -t 0.684000000 -s 0 -d 1 -p cbr -e 282 -c 2 -a 0 -i 24 -k MAC 
- -t 0.684000000 -s 0 -d 1 -p cbr -e 282 -c 2 -a 0 -i 24 -k MAC
h -t 0.684000000 -s 0 -d 1 -p cbr -e 282 -c 2 -a 0 -i 24 -k MAC
r -t 0.685128767 -s 1 -d 1 -p cbr -e 230 -c 2 -a 0 -i 24 -k MAC
d -t 0.685128767 -s 2 -d 1 -p cbr -e 282 -c 2 -a 0 -i 24 -k MAC
+ -t 0.690000000 -s 0 -d 2 -p cbr -e 282 -c 2 -a 0 -i 25 -k MAC 
- -t 0.690000000 -s 0 -d 2 -p cbr -e 282 -c 2 -a 0 -i 25 -k MAC
h -t 0.690000000 -s 0 -d 2 -p cbr -e 282 -c 2 -a 0 -i 25 -k MAC
d -t 0.691128767 -s 1 -d 2 -p cbr -e 282 -c 2 -a 0 -i 25 -k MAC
r -t 0.691128767 -s 2 -d 2 -p cbr -e 230 -c 2 -a 0 -i 25 -k MAC
+ -t 0.732000000 -s 0 -d 1 -p cbr -e 282 -c 2 -a 0 -i 26 -k MAC 
- -t 0.732000000 -s 0 -d 1 -p cbr -e 282 -c 2 -a 0 -i 26 -k MAC
h -t 0.732000000 -s 0 -d 1 -p cbr -e 282 -c 2 -a 0 -i 26 -k MAC
r -t 0.733128767 -s 1 -d 1 -p cbr -e 230 -c 2 -a 0 -i 26 -k MAC
d -t 0.733128767 -s 2 -d 1 -p cbr -e 282 -c 2 -a 0 -i 26 -k MAC
+ -t 0.738000000 -s 0 -d 2 -p cbr -e 282 -c 2 -a 0 -i 27 -k MAC 
- -t 0.738000000 -s 0 -d 2 -p cbr -e 282 -c 2 -a 0 -i 27 -k MAC
h -t 0.738000000 -s 0 -d 2 -p cbr -e 282 -c 2 -a 0 -i 27 -k MAC
d -t 0.739128767 -s 1 -d 2 -p cbr -e 282 -c 2 -a 0 -i 27 -k MAC
r -t 0.739128767 -s 2 -d 2 -p cbr -e 230 -c 2 -a 0 -i 27 -k MAC
+ -t 0.786000000 -s 0 -d 1 -p cbr -e 282 -c 2 -a 0 -i 28 -k MAC 
- -t 0.786000000 -s 0 -d 1 -p cbr -e 282 -c 2 -a 0 -i 28 -k MAC
h -t 0.786000000 -s 0 -d 1 -p cbr -e 282 -c 2 -a 0 -i 28 -k MAC
r -t 0.787128767 -s 1 -d 1 -p cbr -e 230 -c 2 -a 0 -i 28 -k MAC
d -t 0.787128767 -s 2 -d 1 -p cbr -e 282 -c 2 -a 0 -i 28 -k MAC
+ -t 0.804000000 -s 0 -d 2 -p cbr -e 282 -c 2 -a 0 -i 29 -k MAC 
- -t 0.804000000 -s 0 -d 2 -p cbr -e 282 -c 2 -a 0 -i 29 -k MAC
h -t 0.804000000 -s 0 -d 2 -p cbr -e 282 -c 2 -a 0 -i 29 -k MAC
d -t 0.805128767 -s 1 -d 2 -p cbr -e 282 -c 2 -a 0 -i 29 -k MAC
r -t 0.805128767 -s 2 -d 2 -p cbr -e 230 -c 2 -a 0 -i 29 -k MAC
+ -t 0.852000000 -s 0 -d 1 -p cbr -e 282 -c 2 -a 0 -i 30 -k MAC 
- -t 0.852000000 -s 0 -d 1 -p cbr -e 282 -c 2 -a 0 -i 30 -k MAC
h -t 0.852000000 -s 0 -d 1 -p cbr -e 282 -c 2 -a 0 -i 30 -k MAC
r -t 0.853128767 -s 1 -d 1 -p cbr -e 230 -c 2 -a 0 -i 30 -k MAC
d -t 0.853128767 -s 2 -d 1 -p cbr -e 282 -c 2 -a 0 -i 30 -k MAC
+ -t 0.858000000 -s 0 -d 2 -p cbr -e 282 -c 2 -a 0 -i 31 -k MAC 
- -t 0.858000000 -s 0 -d 2 -p cbr -e 282 -c 2 -a 0 -i 31 -k MAC
h -t 0.858000000 -s 0 -d 2 -p cbr -e 282 -c 2 -a 0 -i 31 -k MAC
d -t 0.859128767 -s 1 -d 2 -p cbr -e 282 -c 2 -a 0 -i 31 -k MAC
r -t 0.859128767 -s 2 -d 2 -p cbr -e 230 -c 2 -a 0 -i 31 -k MAC
+ -t 0.900000000 -s 0 -d 1 -p cbr -e 282 -c 2 -a 0 -i 32 -k MAC 
- -t 0.900000000 -s 0 -d 1 -p cbr -e 282 -c 2 -a 0 -i 32 -k MAC
h -t 0.900000000 -s 0 -d 1 -p cbr -e 282 -c 2 -a 0 -i 32 -k MAC
r -t 0.901128767 -s 1 -d 1 -p cbr -e 230 -c 2 -a 0 -i 32 -k MAC
d -t 0.901128767 -s 2 -d 1 -p cbr -e 282 -c 2 -a 0 -i 32 -k MAC
+ -t 0.906000000 -s 0 -d 2 -p cbr -e 282 -c 2 -a 0 -i 33 -k MAC 
- -t 0.906000000 -s 0 -d 2 -p cbr -e 282 -c 2 -a 0 -i 33 -k MAC
h -t 0.906000000 -s 0 -d 2 -p cbr -e 282 -c 2 -a 0 -i 33 -k MAC
d -t 0.907128767 -s 1 -d 2 -p cbr -e 282 -c 2 -a 0 -i 33 -k MAC
r -t 0.907128767 -s 2 -d 2 -p cbr -e 230 -c 2 -a 0 -i 33 -k MAC
+ -t 0.954000000 -s 0 -d 1 -p cbr -e 282 -c 2 -a 0 -i 34 -k MAC 
- -t 0.954000000 -s 0 -d 1 -p cbr -e 282 -c 2 -a 0 -i 34 -k MAC
h -t 0.954000000 -s 0 -d 1 -p cbr -e 282 -c 2 -a 0 -i 34 -k MAC
r -t 0.955128767 -s 1 -d 1 -p cbr -e 230 -c 2 -a 0 -i 34 -k MAC
d -t 0.955128767 -s 2 -d 1 -p cbr -e 282 -c 2 -a 0 -i 34 -k MAC
+ -t 0.972000000 -s 0 -d 2 -p cbr -e 282 -c 2 -a 0 -i 35 -k MAC 
- -t 0.972000000 -s 0 -d 2 -p cbr -e 282 -c 2 -a 0 -i 35 -k MAC
h -t 0.972000000 -s 0 -d 2 -p cbr -e 282 -c 2 -a 0 -i 35 -k MAC
d -t 0.973128767 -s 1 -d 2 -p cbr -e 282 -c 2 -a 0 -i 35 -k MAC
r -t 0.973128767 -s 2 -d 2 -p cbr -e 230 -c 2 -a 0 -i 35 -k MAC
+ -t 1.020000000 -s 0 -d 1 -p cbr -e 282 -c 2 -a 0 -i 36 -k MAC 
- -t 1.020000000 -s 0 -d 1 -p cbr -e 282 -c 2 -a 0 -i 36 -k MAC
h -t 1.020000000 -s 0 -d 1 -p cbr -e 282 -c 2 -a 0 -i 36 -k MAC
r -t 1.021128767 -s 1 -d 1 -p cbr -e 230 -c 2 -a 0 -i 36 -k MAC
d -t 1.021128767 -s 2 -d 1 -p cbr -e 282 -c 2 -a 0 -i 36 -k MAC
+ -t 1.026000000 -s 0 -d 2 -p cbr -e 282 -c 2 -a 0 -i 37 -k MAC 
- -t 1.026000000 -s 0 -d 2 -p cbr -e 282 -c 2 -a 0 -i 37 -k MAC
h -t 1.026000000 -s 0 -d 2 -p cbr -e 282 -c 2 -a 0 -i 37 -k MAC
d -t 1.027128767 -s 1 -d 2 -p cbr -e 282 -c 2 -a 0 -i 37 -k MAC
r -t 1.027128767 -s 2 -d 2 -p cbr -e 230 -c 2 -a 0 -i 37 -k MAC
+ -t 1.068000000 -s 0 -d 1 -p cbr -e 282 -c 2 -a 0 -i 38 -k MAC 
- -t 1.068000000 -s 0 -d 1 -p cbr -e 282 -c 2 -a 0 -i 38 -k MAC
h -t 1.068000000 -s 0 -d 1 -p cbr -e 282 -c 2 -a 0 -i 38 -k MAC
r -t 1.069128767 -s 1 -d 1 -p cbr -e 230 -c 2 -a 0 -i 38 -k MAC
d -t 1.069128767 -s 2 -d 1 -p cbr -e 282 -c 2 -a 0 -i 38 -k MAC
+ -t 1.074000000 -s 0 -d 2 -p cbr -e 282 -c 2 -a 0 -i 39 -k MAC 
- -t 1.074000000 -s 0 -d 2 -p cbr -e 282 -c 2 -a 0 -i 39 -k MAC
h -t 1.074000000 -s 0 -d 2 -p cbr -e 282 -c 2 -a 0 -i 39 -k MAC
d -t 1.075128767 -s 1 -d 2 -p cbr -e 282 -c 2 -a 0 -i 39 -k MAC
r -t 1.075128767 -s 2 -d 2 -p cbr -e 230 -c 2 -a 0 -i 39 -k MAC
+ -t 1.122000000 -s 0 -d 1 -p cbr -e 282 -c 2 -a 0 -i 40 -k MAC 
- -t 1.122000000 -s 0 -d 1 -p cbr -e 282 -c 2 -a 0 -i 40 -k MAC
h -t 1.122000000 -s 0 -d 1 -p cbr -e 282 -c 2 -a 0 -i 40 -k MAC
r -t 1.123128767 -s 1 -d 1 -p cbr -e 230 -c 2 -a 0 -i 40 -k MAC
d -t 1.123128767 -s 2 -d 1 -p cbr -e 282 -c 2 -a 0 -i 40 -k MAC
+ -t 1.140000000 -s 0 -d 2 -p cbr -e 282 -c 2 -a 0 -i 41 -k MAC 
- -t 1.140000000 -s 0 -d 2 -p cbr -e 282 -c 2 -a 0 -i 41 -k MAC
h -t 1.140000000 -s 0 -d 2 -p cbr -e 282 -c 2 -a 0 -i 41 -k MAC
d -t 1.141128767 -s 1 -d 2 -p cbr -e 282 -c 2 -a 0 -i 41 -k MAC
r -t 1.141128767 -s 2 -d 2 -p cbr -e 230 -c 2 -a 0 -i 41 -k MAC
+ -t 1.188000000 -s 0 -d 1 -p cbr -e 282 -c 2 -a 0 -i 42 -k MAC 
- -t 1.188000000 -s 0 -d 1 -p cbr -e 282 -c 2 -a 0 -i 42 -k MAC
h -t 1.188000000 -s 0 -d 1 -p cbr -e 282 -c 2 -a 0 -i 42 -k MAC
r -t 1.189128767 -s 1 -d 1 -p cbr -e 230 -c 2 -a 0 -i 42 -k MAC
d -t 1.189128767 -s 2 -d 1 -p cbr -e 282 -c 2 -a 0 -i 42 -k MAC
+ -t 1.194000000 -s 0 -d 2 -p cbr -e 282 -c 2 -a 0 -i 43 -k MAC 
- -t 1.194000000 -s 0 -d 2 -p cbr -e 282 -c 2 -a 0 -i 43 -k MAC
h -t 1.194000000 -s 0 -d 2 -p cbr -e 282 -c 2 -a 0 -i 43 -k MAC
d -t 1.195128767 -s 1 -d 2 -p cbr -e 282 -c 2 -a 0 -i 43 -k MAC
r -t 1.195128767 -s 2 -d 2 -p cbr -e 230 -c 2 -a 0 -i 43 -k MAC
+ -t 1.236000000 -s 0 -d 1 -p cbr -e 282 -c 2 -a 0 -i 44 -k MAC 
- -t 1.236000000 -s 0 -d 1 -p cbr -e 282 -c 2 -a 0 -i 44 -k MAC
h -t 1.236000000 -s 0 -d 1 -p cbr -e 282 -c 2 -a 0 -i 44 -k MAC
r -t 1.237128767 -s 1 -d 1 -p cbr -e 230 -c 2 -a 0 -i 44 -k MAC
d -t 1.237128767 -s 2 -d 1 -p cbr -e 282 -c 2 -a 0 -i 44 -k MAC
+ -t 1.242000000 -s 0 -d 2 -p cbr -e 282 -c 2 -a 0 -i 45 -k MAC 
- -t 1.242000000 -s 0 -d 2 -p cbr -e 282 -c 2 -a 0 -i 45 -k MAC
h -t 1.242000000 -s 0 -d 2 -p cbr -e 282 -c 2 -a 0 -i 45 -k MAC
d -t 1.243128767 -s 1 -d 2 -p cbr -e 282 -c 2 -a 0 -i 45 -k MAC
r -t 1.243128767 -s 2 -d 2 -p cbr -e 230 -c 2 -a 0 -i 45 -k MAC
+ -t 1.290000000 -s 0 -d 1 -p cbr -e 282 -c 2 -a 0 -i 46 -k MAC 
- -t 1.290000000 -s 0 -d 1 -p cbr -e 282 -c 2 -a 0 -i 46 -k MAC
h -t 1.290000000 -s 0 -d 1 -p cbr -e 282 -c 2 -a 0 -i 46 -k MAC
r -t 1.291128767 -s 1 -d 1 -p cbr -e 230 -c 2 -a 0 -i 46 -k MAC
d -t 1.291128767 -s 2 -d 1 -p cbr -e 282 -c 2 -a 0 -i 46 -k MAC
+ -t 1.308000000 -s 0 -d 2 -p cbr -e 282 -c 2 -a 0 -i 47 -k MAC 
- -t 1.308000000 -s 0 -d 2 -p cbr -e 282 -c 2 -a 0 -i 47 -k MAC
h -t 1.308000000 -s 0 -d 2 -p cbr -e 282 -c 2 -a 0 -i 47 -k MAC
d -t 1.309128767 -s 1 -d 2 -p cbr -e 282 -c 2 -a 0 -i 47 -k MAC
r -t 1.309128767 -s 2 -d 2 -p cbr -e 230 -c 2 -a 0 -i 47 -k MAC
+ -t 1.356000000 -s 0 -d 1 -p cbr -e 282 -c 2 -a 0 -i 48 -k MAC 
- -t 1.356000000 -s 0 -d 1 -p cbr -e 282 -c 2 -a 0 -i 48 -k MAC
h -t 1.356000000 -s 0 -d 1 -p cbr -e 282 -c 2 -a 0 -i 48 -k MAC
r -t 1.357128767 -s 1 -d 1 -p cbr -e 230 -c 2 -a 0 -i 48 -k MAC
d -t 1.357128767 -s 2 -d 1 -p cbr -e 282 -c 2 -a 0 -i 48 -k MAC
+ -t 1.362000000 -s 0 -d 2 -p cbr -e 282 -c 2 -a 0 -i 49 -k MAC 
- -t 1.362000000 -s 0 -d 2 -p cbr -e 282 -c 2 -a 0 -i 49 -k MAC
h -t 1.362000000 -s 0 -d 2 -p cbr -e 282 -c 2 -a 0 -i 49 -k MAC
d -t 1.363128767 -s 1 -d 2 -p cbr -e 282 -c 2 -a 0 -i 49 -k MAC
r -t 1.363128767 -s 2 -d 2 -p cbr -e 230 -c 2 -a 0 -i 49 -k MAC
+ -t 1.404000000 -s 0 -d 1 -p cbr -e 282 -c 2 -a 0 -i 50 -k MAC 
- -t 1.404000000 -s 0 -d 1 -p cbr -e 282 -c 2 -a 0 -i 50 -k MAC
h -t 1.404000000 -s 0 -d 1 -p cbr -e 282 -c 2 -a 0 -i 50 -k MAC
r -t 1.405128767 -s 1 -d 1 -p cbr -e 230 -c 2 -a 0 -i 50 -k MAC
d -t 1.405128767 -s 2 -d 1 -p cbr -e 282 -c 2 -a 0 -i 50 -k MAC
+ -t 1.410000000 -s 0 -d 2 -p cbr -e 282 -c 2 -a 0 -i 51 -k MAC 
- -t 1.410000000 -s 0 -d 2 -p cbr -e 282 -c 2 -a 0 -i 51 -k MAC
h -t 1.410000000 -s 0 -d 2 -p cbr -e 282 -c 2 -a 0 -i 51 -k MAC
d -t 1.411128767 -s 1 -d 2 -p cbr -e 282 -c 2 -a 0 -i 51 -k MAC
r -t 1.411128767 -s 2 -d 2 -p cbr -e 230 -c 2 -a 0 -i 51 -k MAC
+ -t 1.458000000 -s 0 -d 1 -p cbr -e 282 -c 2 -a 0 -i 52 -k MAC 
- -t 1.458000000 -s 0 -d 1 -p cbr -e 282 -c 2 -a 0 -i 52 -k MAC
h -t 1.458000000 -s 0 -d 1 -p cbr -e 282 -c 2 -a 0 -i 52 -k MAC
r -t 1.459128767 -s 1 -d 1 -p cbr -e 230 -c 2 -a 0 -i 52 -k MAC
d -t 1.459128767 -s 2 -d 1 -p cbr -e 282 -c 2 -a 0 -i 52 -k MAC
+ -t 1.476000000 -s 0 -d 2 -p cbr -e 282 -c 2 -a 0 -i 53 -k MAC 
- -t 1.476000000 -s 0 -d 2 -p cbr -e 282 -c 2 -a 0 -i 53 -k MAC
h -t 1.476000000 -s 0 -d 2 -p cbr -e 282 -c 2 -a 0 -i 53 -k MAC
d -t 1.477128767 -s 1 -d 2 -p cbr -e 282 -c 2 -a 0 -i 53 -k MAC
r -t 1.477128767 -s 2 -d 2 -p cbr -e 230 -c 2 -a 0 -i 53 -k MAC
+ -t 1.524000000 -s 0 -d 1 -p cbr -e 282 -c 2 -a 0 -i 54 -k MAC 
- -t 1.524000000 -s 0 -d 1 -p cbr -e 282 -c 2 -a 0 -i 54 -k MAC
h -t 1.524000000 -s 0 -d 1 -p cbr -e 282 -c 2 -a 0 -i 54 -k MAC
r -t 1.525128767 -s 1 -d 1 -p cbr -e 230 -c 2 -a 0 -i 54 -k MAC
d -t 1.525128767 -s 2 -d 1 -p cbr -e 282 -c 2 -a 0 -i 54 -k MAC
+ -t 1.530000000 -s 0 -d 2 -p cbr -e 282 -c 2 -a 0 -i 55 -k MAC 
- -t 1.530000000 -s 0 -d 2 -p cbr -e 282 -c 2 -a 0 -i 55 -k MAC
h -t 1.530000000 -s 0 -d 2 -p cbr -e 282 -c 2 -a 0 -i 55 -k MAC
d -t 1.531128767 -s 1 -d 2 -p cbr -e 282 -c 2 -a 0 -i 55 -k MAC
r -t 1.531128767 -s 2 -d 2 -p cbr -e 230 -c 2 -a 0 -i 55 -k MAC
+ -t 1.572000000 -s 0 -d 1 -p cbr -e 282 -c 2 -a 0 -i 56 -k MAC 
- -t 1.572000000 -s 0 -d 1 -p cbr -e 282 -c 2 -a 0 -i 56 -k MAC
h -t 1.572000000 -s 0 -d 1 -p cbr -e 282 -c 2 -a 0 -i 56 -k MAC
r -t 1.573128767 -s 1 -d 1 -p cbr -e 230 -c 2 -a 0 -i 56 -k MAC
d -t 1.573128767 -s 2 -d 1 -p cbr -e 282 -c 2 -a 0 -i 56 -k MAC
+ -t 1.578000000 -s 0 -d 2 -p cbr -e 282 -c 2 -a 0 -i 57 -k MAC 
- -t 1.578000000 -s 0 -d 2 -p cbr -e 282 -c 2 -a 0 -i 57 -k MAC
h -t 1.578000000 -s 0 -d 2 -p cbr -e 282 -c 2 -a 0 -i 57 -k MAC
d -t 1.579128767 -s 1 -d 2 -p cbr -e 282 -c 2 -a 0 -i 57 -k MAC
r -t 1.579128767 -s 2 -d 2 -p cbr -e 230 -c 2 -a 0 -i 57 -k MAC
+ -t 1.626000000 -s 0 -d 1 -p cbr -e 282 -c 2 -a 0 -i 58 -k MAC 
- -t 1.626000000 -s 0 -d 1 -p cbr -e 282 -c 2 -a 0 -i 58 -k MAC
h -t 1.626000000 -s 0 -d 1 -p cbr -e 282 -c 2 -a 0 -i 58 -k MAC
r -t 1.627128767 -s 1 -d 1 -p cbr -e 230 -c 2 -a 0 -i 58 -k MAC
d -t 1.627128767 -s 2 -d 1 -p cbr -e 282 -c 2 -a 0 -i 58 -k MAC
+ -t 1.644000000 -s 0 -d 2 -p cbr -e 282 -c 2 -a 0 -i 59 -k MAC 
- -t 1.644000000 -s 0 -d 2 -p cbr -e 282 -c 2 -a 0 -i 59 -k MAC
h -t 1.644000000 -s 0 -d 2 -p cbr -e 282 -c 2 -a 0 -i 59 -k MAC
d -t 1.645128767 -s 1 -d 2 -p cbr -e 282 -c 2 -a 0 -i 59 -k MAC
r -t 1.645128767 -s 2 -d 2 -p cbr -e 230 -c 2 -a 0 -i 59 -k MAC
+ -t 1.692000000 -s 0 -d 1 -p cbr -e 282 -c 2 -a 0 -i 60 -k MAC 
- -t 1.692000000 -s 0 -d 1 -p cbr -e 282 -c 2 -a 0 -i 60 -k MAC
h -t 1.692000000 -s 0 -d 1 -p cbr -e 282 -c 2 -a 0 -i 60 -k MAC
r -t 1.693128767 -s 1 -d 1 -p cbr -e 230 -c 2 -a 0 -i 60 -k MAC
d -t 1.693128767 -s 2 -d 1 -p cbr -e 282 -c 2 -a 0 -i 60 -k MAC
+ -t 1.698000000 -s 0 -d 2 -p cbr -e 282 -c 2 -a 0 -i 61 -k MAC 
- -t 1.698000000 -s 0 -d 2 -p cbr -e 282 -c 2 -a 0 -i 61 -k MAC
h -t 1.698000000 -s 0 -d 2 -p cbr -e 282 -c 2 -a 0 -i 61 -k MAC
d -t 1.699128767 -s 1 -d 2 -p cbr -e 282 -c 2 -a 0 -i 61 -k MAC
r -t 1.699128767 -s 2 -d 2 -p cbr -e 230 -c 2 -a 0 -i 61 -k MAC
+ -t 1.740000000 -s 0 -d 1 -p cbr -e 282 -c 2 -a 0 -i 62 -k MAC 
- -t 1.740000000 -s 0 -d 1 -p cbr -e 282 -c 2 -a 0 -i 62 -k MAC
h -t 1.740000000 -s 0 -d 1 -p cbr -e 282 -c 2 -a 0 -i 62 -k MAC
r -t 1.741128767 -s 1 -d 1 -p cbr -e 230 -c 2 -a 0 -i 62 -k MAC
d -t 1.741128767 -s 2 -d 1 -p cbr -e 282 -c 2 -a 0 -i 62 -k MAC
+ -t 1.746000000 -s 0 -d 2 -p cbr -e 282 -c 2 -a 0 -i 63 -k MAC 
- -t 1.746000000 -s 0 -d 2 -p cbr -e 282 -c 2 -a 0 -i 63 -k MAC
h -t 1.746000000 -s 0 -d 2 -p cbr -e 282 -c 2 -a 0 -i 63 -k MAC
d -t 1.747128767 -s 1 -d 2 -p cbr -e 282 -c 2 -a 0 -i 63 -k MAC
r -t 1.747128767 -s 2 -d 2 -p cbr -e 230 -c 2 -a 0 -i 63 -k MAC
+ -t 1.794000000 -s 0 -d 1 -p cbr -e 282 -c 2 -a 0 -i 64 -k MAC 
- -t 1.794000000 -s 0 -d 1 -p cbr -e 282 -c 2 -a 0 -i 64 -k MAC
h -t 1.794000000 -s 0 -d 1 -p cbr -e 282 -c 2 -a 0 -i 64 -k MAC
r -t 1.795128767 -s 1 -d 1 -p cbr -e 230 -c 2 -a 0 -i 64 -k MAC
d -t 1.795128767 -s 2 -d 1 -p cbr -e 282 -c 2 -a 0 -i 64 -k MAC
+ -t 1.812000000 -s 0 -d 2 -p cbr -e 282 -c 2 -a 0 -i 65 -k MAC 
- -t 1.812000000 -s 0 -d 2 -p cbr -e 282 -c 2 -a 0 -i 65 -k MAC
h -t 1.812000000 -s 0 -d 2 -p cbr -e 282 -c 2 -a 0 -i 65 -k MAC
d -t 1.813128767 -s 1 -d 2 -p cbr -e 282 -c 2 -a 0 -i 65 -k MAC
r -t 1.813128767 -s 2 -d 2 -p cbr -e 230 -c 2 -a 0 -i 65 -k MAC
+ -t 1.860000000 -s 0 -d 1 -p cbr -e 282 -c 2 -a 0 -i 66 -k MAC 
- -t 1.860000000 -s 0 -d 1 -p cbr -e 282 -c 2 -a 0 -i 66 -k MAC
h -t 1.860000000 -s 0 -d 1 -p cbr -e 282 -c 2 -a 0 -i 66 -k MAC
r -t 1.861128767 -s 1 -d 1 -p cbr -e 230 -c 2 -a 0 -i 66 -k MAC
d -t 1.861128767 -s 2 -d 1 -p cbr -e 282 -c 2 -a 0 -i 66 -k MAC
+ -t 1.866000000 -s 0 -d 2 -p cbr -e 282 -c 2 -a 0 -i 67 -k MAC 
- -t 1.866000000 -s 0 -d 2 -p cbr -e 282 -c 2 -a 0 -i 67 -k MAC
h -t 1.866000000 -s 0 -d 2 -p cbr -e 282 -c 2 -a 0 -i 67 -k MAC
d -t 1.867128767 -s 1 -d 2 -p cbr -e 282 -c 2 -a 0 -i 67 -k MAC
r -t 1.867128767 -s 2 -d 2 -p cbr -e 230 -c 2 -a 0 -i 67 -k MAC
+ -t 1.908000000 -s 0 -d 1 -p cbr -e 282 -c 2 -a 0 -i 68 -k MAC 
- -t 1.908000000 -s 0 -d 1 -p cbr -e 282 -c 2 -a 0 -i 68 -k MAC
h -t 1.908000000 -s 0 -d 1 -p cbr -e 282 -c 2 -a 0 -i 68 -k MAC
r -t 1.909128767 -s 1 -d 1 -p cbr -e 230 -c 2 -a 0 -i 68 -k MAC
d -t 1.909128767 -s 2 -d 1 -p cbr -e 282 -c 2 -a 0 -i 68 -k MAC
+ -t 1.914000000 -s 0 -d 2 -p cbr -e 282 -c 2 -a 0 -i 69 -k MAC 
- -t 1.914000000 -s 0 -d 2 -p cbr -e 282 -c 2 -a 0 -i 69 -k MAC
h -t 1.914000000 -s 0 -d 2 -p cbr -e 282 -c 2 -a 0 -i 69 -k MAC
d -t 1.915128767 -s 1 -d 2 -p cbr -e 282 -c 2 -a 0 -i 69 -k MAC
r -t 1.915128767 -s 2 -d 2 -p cbr -e 230 -c 2 -a 0 -i 69 -k MAC
+ -t 1.962000000 -s 0 -d 1 -p cbr -e 282 -c 2 -a 0 -i 70 -k MAC 
- -t 1.962000000 -s 0 -d 1 -p cbr -e 282 -c 2 -a 0 -i 70 -k MAC
h -t 1.962000000 -s 0 -d 1 -p cbr -e 282 -c 2 -a 0 -i 70 -k MAC
r -t 1.963128767 -s 1 -d 1 -p cbr -e 230 -c 2 -a 0 -i 70 -k MAC
d -t 1.963128767 -s 2 -d 1 -p cbr -e 282 -c 2 -a 0 -i 70 -k MAC
+ -t 1.980000000 -s 0 -d 2 -p cbr -e 282 -c 2 -a 0 -i 71 -k MAC 
- -t 1.980000000 -s 0 -d 2 -p cbr -e 282 -c 2 -a 0 -i 71 -k MAC
h -t 1.980000000 -s 0 -d 2 -p cbr -e 282 -c 2 -a 0 -i 71 -k MAC
d -t 1.981128767 -s 1 -d 2 -p cbr -e 282 -c 2 -a 0 -i 71 -k MAC
r -t 1.981128767 -s 2 -d 2 -p cbr -e 230 -c 2 -a 0 -i 71 -k MAC
+ -t 2.028000000 -s 0 -d 1 -p cbr -e 282 -c 2 -a 0 -i 72 -k MAC 
- -t 2.028000000 -s 0 -d 1 -p cbr -e 282 -c 2 -a 0 -i 72 -k MAC
h -t 2.028000000 -s 0 -d 1 -p cbr -e 282 -c 2 -a 0 -i 72 -k MAC
r -t 2.029128767 -s 1 -d 1 -p cbr -e 230 -c 2 -a 0 -i 72 -k MAC
d -t 2.029128767 -s 2 -d 1 -p cbr -e 282 -c 2 -a 0 -i 72 -k MAC
+ -t 2.034000000 -s 0 -d 2 -p cbr -e 282 -c 2 -a 0 -i 73 -k MAC 
- -t 2.034000000 -s 0 -d 2 -p cbr -e 282 -c 2 -a 0 -i 73 -k MAC
h -t 2.034000000 -s 0 -d 2 -p cbr -e 282 -c 2 -a 0 -i 73 -k MAC
d -t 2.035128767 -s 1 -d 2 -p cbr -e 282 -c 2 -a 0 -i 73 -k MAC
r -t 2.035128767 -s 2 -d 2 -p cbr -e 230 -c 2 -a 0 -i 73 -k MAC
+ -t 2.076000000 -s 0 -d 1 -p cbr -e 282 -c 2 -a 0 -i 74 -k MAC 
- -t 2.076000000 -s 0 -d 1 -p cbr -e 282 -c 2 -a 0 -i 74 -k MAC
h -t 2.076000000 -s 0 -d 1 -p cbr -e 282 -c 2 -a 0 -i 74 -k MAC
r -t 2.077128767 -s 1 -d 1 -p cbr -e 230 -c 2 -a 0 -i 74 -k MAC
d -t 2.077128767 -s 2 -d 1 -p cbr -e 282 -c 2 -a 0 -i 74 -k MAC
+ -t 2.082000000 -s 0 -d 2 -p cbr -e 282 -c 2 -a 0 -i 75 -k MAC 
- -t 2.082000000 -s 0 -d 2 -p cbr -e 282 -c 2 -a 0 -i 75 -k MAC
h -t 2.082000000 -s 0 -d 2 -p cbr -e 282 -c 2 -a 0 -i 75 -k MAC
d -t 2.083128767 -s 1 -d 2 -p cbr -e 282 -c 2 -a 0 -i 75 -k MAC
r -t 2.083128767 -s 2 -d 2 -p cbr -e 230 -c 2 -a 0 -i 75 -k MAC
+ -t 2.130000000 -s 0 -d 1 -p cbr -e 282 -c 2 -a 0 -i 76 -k MAC 
- -t 2.130000000 -s 0 -d 1 -p cbr -e 282 -c 2 -a 0 -i 76 -k MAC
h -t 2.130000000 -s 0 -d 1 -p cbr -e 282 -c 2 -a 0 -i 76 -k MAC
r -t 2.131128767 -s 1 -d 1 -p cbr -e 230 -c 2 -a 0 -i 76 -k MAC
d -t 2.131128767 -s 2 -d 1 -p cbr -e 282 -c 2 -a 0 -i 76 -k MAC
+ -t 2.148000000 -s 0 -d 2 -p cbr -e 282 -c 2 -a 0 -i 77 -k MAC 
- -t 2.148000000 -s 0 -d 2 -p cbr -e 282 -c 2 -a 0 -i 77 -k MAC
h -t 2.148000000 -s 0 -d 2 -p cbr -e 282 -c 2 -a 0 -i 77 -k MAC
d -t 2.149128767 -s 1 -d 2 -p cbr -e 282 -c 2 -a 0 -i 77 -k MAC
r -t 2.149128767 -s 2 -d 2 -p cbr -e 230 -c 2 -a 0 -i 77 -k MAC
+ -t 2.196000000 -s 0 -d 1 -p cbr -e 282 -c 2 -a 0 -i 78 -k MAC 
- -t 2.196000000 -s 0 -d 1 -p cbr -e 282 -c 2 -a 0 -i 78 -k MAC
h -t 2.196000000 -s 0 -d 1 -p cbr -e 282 -c 2 -a 0 -i 78 -k MAC
r -t 2.197128767 -s 1 -d 1 -p cbr -e 230 -c 2 -a 0 -i 78 -k MAC
d -t 2.197128767 -s 2 -d 1 -p cbr -e 282 -c 2 -a 0 -i 78 -k MAC
+ -t 2.202000000 -s 0 -d 2 -p cbr -e 282 -c 2 -a 0 -i 79 -k MAC 
- -t 2.202000000 -s 0 -d 2 -p cbr -e 282 -c 2 -a 0 -i 79 -k MAC
h -t 2.202000000 -s 0 -d 2 -p cbr -e 282 -c 2 -a 0 -i 79 -k MAC
d -t 2.203128767 -s 1 -d 2 -p cbr -e 282 -c 2 -a 0 -i 79 -k MAC
r -t 2.203128767 -s 2 -d 2 -p cbr -e 230 -c 2 -a 0 -i 79 -k MAC
+ -t 2.244000000 -s 0 -d 1 -p cbr -e 282 -c 2 -a 0 -i 80 -k MAC 
- -t 2.244000000 -s 0 -d 1 -p cbr -e 282 -c 2 -a 0 -i 80 -k MAC
h -t 2.244000000 -s 0 -d 1 -p cbr -e 282 -c 2 -a 0 -i 80 -k MAC
r -t 2.245128767 -s 1 -d 1 -p cbr -e 230 -c 2 -a 0 -i 80 -k MAC
d -t 2.245128767 -s 2 -d 1 -p cbr -e 282 -c 2 -a 0 -i 80 -k MAC
+ -t 2.250000000 -s 0 -d 2 -p cbr -e 282 -c 2 -a 0 -i 81 -k MAC 
- -t 2.250000000 -s 0 -d 2 -p cbr -e 282 -c 2 -a 0 -i 81 -k MAC
h -t 2.250000000 -s 0 -d 2 -p cbr -e 282 -c 2 -a 0 -i 81 -k MAC
d -t 2.251128767 -s 1 -d 2 -p cbr -e 282 -c 2 -a 0 -i 81 -k MAC
r -t 2.251128767 -s 2 -d 2 -p cbr -e 230 -c 2 -a 0 -i 81 -k MAC
+ -t 2.298000000 -s 0 -d 1 -p cbr -e 282 -c 2 -a 0 -i 82 -k MAC 
- -t 2.298000000 -s 0 -d 1 -p cbr -e 282 -c 2 -a 0 -i 82 -k MAC