n -t * -s 0  -x 200 -y 800 -Z 0 -z 10  -v circle -c black
n -t * -s 1  -x 200 -y 570 -Z 0 -z 10  -v circle -c black
n -t * -s 2  -x 200 -y 340 -Z 0 -z 10  -v circle -c black
n -t * -s 3  -x 430 -y 630 -Z 0 -z 10  -v circle -c black
n -t * -s 4  -x 550 -y 630 -Z 0 -z 10  -v circle -c black
V -t * -v 1.0a5 -a 0
W -t * -x 1000 -y 1000
A -t * -n 1 -p 0 -o 0x7fffffff -c 30 -a 1
A -t * -h 1 -m 1073741823 -s 0
+ -t 0.000000000 -s 0 -d -1 -p AODV -e 44 -c 2 -a 0 -i 0 -k RTR 
- -t 0.000000000 -s 0 -d -1 -p AODV -e 44 -c 2 -a 0 -i 0 -k RTR
h -t 0.000000000 -s 0 -d -1 -p AODV -e 44 -c 2 -a 0 -i 0 -k RTR
+ -t 0.000000000 -s 1 -d -1 -p AODV -e 44 -c 2 -a 0 -i 0 -k RTR 
- -t 0.000000000 -s 1 -d -1 -p AODV -e 44 -c 2 -a 0 -i 0 -k RTR
h -t 0.000000000 -s 1 -d -1 -p AODV -e 44 -c 2 -a 0 -i 0 -k RTR
+ -t 0.000000000 -s 2 -d -1 -p AODV -e 44 -c 2 -a 0 -i 0 -k RTR 
- -t 0.000000000 -s 2 -d -1 -p AODV -e 44 -c 2 -a 0 -i 0 -k RTR
h -t 0.000000000 -s 2 -d -1 -p AODV -e 44 -c 2 -a 0 -i 0 -k RTR
+ -t 0.000000000 -s 3 -d -1 -p AODV -e 44 -c 2 -a 0 -i 0 -k RTR 
- -t 0.000000000 -s 3 -d -1 -p AODV -e 44 -c 2 -a 0 -i 0 -k RTR
h -t 0.000000000 -s 3 -d -1 -p AODV -e 44 -c 2 -a 0 -i 0 -k RTR
+ -t 0.000000000 -s 4 -d -1 -p AODV -e 44 -c 2 -a 0 -i 0 -k RTR 
- -t 0.000000000 -s 4 -d -1 -p AODV -e 44 -c 2 -a 0 -i 0 -k RTR
h -t 0.000000000 -s 4 -d -1 -p AODV -e 44 -c 2 -a 0 -i 0 -k RTR
+ -t 0.000000000 -s 0 -d -1 -p AODV -e 48 -c 2 -a 0 -i 0 -k RTR 
- -t 0.000000000 -s 0 -d -1 -p AODV -e 48 -c 2 -a 0 -i 0 -k RTR
h -t 0.000000000 -s 0 -d -1 -p AODV -e 48 -c 2 -a 0 -i 0 -k RTR
+ -t 0.000000000 -s 3 -d -1 -p AODV -e 48 -c 2 -a 0 -i 0 -k RTR 
- -t 0.000000000 -s 3 -d -1 -p AODV -e 48 -c 2 -a 0 -i 0 -k RTR
h -t 0.000000000 -s 3 -d -1 -p AODV -e 48 -c 2 -a 0 -i 0 -k RTR
r -t 0.012425400 -s 4 -d -1 -p AODV -e 48 -c 2 -a 0 -i 0 -k RTR
+ -t 0.012425400 -s 4 -d 3 -p AODV -e 44 -c 2 -a 0 -i 0 -k RTR 
- -t 0.012425400 -s 4 -d 3 -p AODV -e 44 -c 2 -a 0 -i 0 -k RTR
h -t 0.012425400 -s 4 -d 3 -p AODV -e 44 -c 2 -a 0 -i 0 -k RTR
r -t 0.012425767 -s 1 -d -1 -p AODV -e 48 -c 2 -a 0 -i 0 -k RTR
+ -t 0.020417321 -s 1 -d -1 -p AODV -e 48 -c 2 -a 0 -i 0 -k RTR 
- -t 0.020417321 -s 1 -d -1 -p AODV -e 48 -c 2 -a 0 -i 0 -k RTR
h -t 0.020417321 -s 1 -d -1 -p AODV -e 48 -c 2 -a 0 -i 0 -k RTR
r -t 0.048425767 -s 0 -d -1 -p AODV -e 48 -c 2 -a 0 -i 0 -k RTR
r -t 0.048425767 -s 2 -d -1 -p AODV -e 48 -c 2 -a 0 -i 0 -k RTR
+ -t 0.048425767 -s 2 -d 1 -p AODV -e 44 -c 2 -a 0 -i 0 -k RTR 
- -t 0.048425767 -s 2 -d 1 -p AODV -e 44 -c 2 -a 0 -i 0 -k RTR
h -t 0.048425767 -s 2 -d 1 -p AODV -e 44 -c 2 -a 0 -i 0 -k RTR
+ -t 0.090409400 -s 3 -d 4 -p cbr -e 230 -c 2 -a 0 -i 1 -k RTR 
- -t 0.090409400 -s 3 -d 4 -p cbr -e 230 -c 2 -a 0 -i 1 -k RTR
h -t 0.090409400 -s 3 -d 4 -p cbr -e 230 -c 2 -a 0 -i 1 -k RTR
+ -t 0.090409767 -s 1 -d 0 -p AODV -e 44 -c 2 -a 0 -i 0 -k RTR 
- -t 0.090409767 -s 1 -d 0 -p AODV -e 44 -c 2 -a 0 -i 0 -k RTR
h -t 0.090409767 -s 1 -d 0 -p AODV -e 44 -c 2 -a 0 -i 0 -k RTR
+ -t 0.095200000 -s 3 -d 4 -p cbr -e 230 -c 2 -a 0 -i 35 -k RTR 
- -t 0.095200000 -s 3 -d 4 -p cbr -e 230 -c 2 -a 0 -i 35 -k RTR
h -t 0.095200000 -s 3 -d 4 -p cbr -e 230 -c 2 -a 0 -i 35 -k RTR
+ -t 0.100409400 -s 3 -d 4 -p cbr -e 230 -c 2 -a 0 -i 3 -k RTR 
- -t 0.100409400 -s 3 -d 4 -p cbr -e 230 -c 2 -a 0 -i 3 -k RTR
h -t 0.100409400 -s 3 -d 4 -p cbr -e 230 -c 2 -a 0 -i 3 -k RTR
+ -t 0.100800000 -s 3 -d 4 -p cbr -e 230 -c 2 -a 0 -i 37 -k RTR 
- -t 0.100800000 -s 3 -d 4 -p cbr -e 230 -c 2 -a 0 -i 37 -k RTR
h -t 0.100800000 -s 3 -d 4 -p cbr -e 230 -c 2 -a 0 -i 37 -k RTR
+ -t 0.106400000 -s 3 -d 4 -p cbr -e 230 -c 2 -a 0 -i 39 -k RTR 
- -t 0.106400000 -s 3 -d 4 -p cbr -e 230 -c 2 -a 0 -i 39 -k RTR
h -t 0.106400000 -s 3 -d 4 -p cbr -e 230 -c 2 -a 0 -i 39 -k RTR
+ -t 0.110409400 -s 3 -d 4 -p cbr -e 230 -c 2 -a 0 -i 5 -k RTR 
- -t 0.110409400 -s 3 -d 4 -p cbr -e 230 -c 2 -a 0 -i 5 -k RTR
h -t 0.110409400 -s 3 -d 4 -p cbr -e 230 -c 2 -a 0 -i 5 -k RTR
+ -t 0.112000000 -s 3 -d 4 -p cbr -e 230 -c 2 -a 0 -i 41 -k RTR 
- -t 0.112000000 -s 3 -d 4 -p cbr -e 230 -c 2 -a 0 -i 41 -k RTR
h -t 0.112000000 -s 3 -d 4 -p cbr -e 230 -c 2 -a 0 -i 41 -k RTR
+ -t 0.117600000 -s 3 -d 4 -p cbr -e 230 -c 2 -a 0 -i 43 -k RTR 
- -t 0.117600000 -s 3 -d 4 -p cbr -e 230 -c 2 -a 0 -i 43 -k RTR
h -t 0.117600000 -s 3 -d 4 -p cbr -e 230 -c 2 -a 0 -i 43 -k RTR
+ -t 0.120409400 -s 3 -d 4 -p cbr -e 230 -c 2 -a 0 -i 7 -k RTR 
- -t 0.120409400 -s 3 -d 4 -p cbr -e 230 -c 2 -a 0 -i 7 -k RTR
h -t 0.120409400 -s 3 -d 4 -p cbr -e 230 -c 2 -a 0 -i 7 -k RTR
+ -t 0.123200000 -s 3 -d 4 -p cbr -e 230 -c 2 -a 0 -i 45 -k RTR 
- -t 0.123200000 -s 3 -d 4 -p cbr -e 230 -c 2 -a 0 -i 45 -k RTR
h -t 0.123200000 -s 3 -d 4 -p cbr -e 230 -c 2 -a 0 -i 45 -k RTR
+ -t 0.128800000 -s 3 -d 4 -p cbr -e 230 -c 2 -a 0 -i 47 -k RTR 
- -t 0.128800000 -s 3 -d 4 -p cbr -e 230 -c 2 -a 0 -i 47 -k RTR
h -t 0.128800000 -s 3 -d 4 -p cbr -e 230 -c 2 -a 0 -i 47 -k RTR
+ -t 0.130409400 -s 3 -d 4 -p cbr -e 230 -c 2 -a 0 -i 9 -k RTR 
- -t 0.130409400 -s 3 -d 4 -p cbr -e 230 -c 2 -a 0 -i 9 -k RTR
h -t 0.130409400 -s 3 -d 4 -p cbr -e 230 -c 2 -a 0 -i 9 -k RTR
+ -t 0.132409767 -s 0 -d 1 -p cbr -e 230 -c 2 -a 0 -i 0 -k RTR 
- -t 0.132409767 -s 0 -d 1 -p cbr -e 230 -c 2 -a 0 -i 0 -k RTR
h -t 0.132409767 -s 0 -d 1 -p cbr -e 230 -c 2 -a 0 -i 0 -k RTR
+ -t 0.134400000 -s 0 -d 1 -p cbr -e 230 -c 2 -a 0 -i 48 -k RTR 
- -t 0.134400000 -s 0 -d 1 -p cbr -e 230 -c 2 -a 0 -i 48 -k RTR
h -t 0.134400000 -s 0 -d 1 -p cbr -e 230 -c 2 -a 0 -i 48 -k RTR
+ -t 0.134400000 -s 3 -d 4 -p cbr -e 230 -c 2 -a 0 -i 49 -k RTR 
- -t 0.134400000 -s 3 -d 4 -p cbr -e 230 -c 2 -a 0 -i 49 -k RTR
h -t 0.134400000 -s 3 -d 4 -p cbr -e 230 -c 2 -a 0 -i 49 -k RTR
+ -t 0.140000000 -s 0 -d 1 -p cbr -e 230 -c 2 -a 0 -i 50 -k RTR 
- -t 0.140000000 -s 0 -d 1 -p cbr -e 230 -c 2 -a 0 -i 50 -k RTR
h -t 0.140000000 -s 0 -d 1 -p cbr -e 230 -c 2 -a 0 -i 50 -k RTR
+ -t 0.140000000 -s 3 -d 4 -p cbr -e 230 -c 2 -a 0 -i 51 -k RTR 
- -t 0.140000000 -s 3 -d 4 -p cbr -e 230 -c 2 -a 0 -i 51 -k RTR
h -t 0.140000000 -s 3 -d 4 -p cbr -e 230 -c 2 -a 0 -i 51 -k RTR
+ -t 0.140409400 -s 3 -d 4 -p cbr -e 230 -c 2 -a 0 -i 11 -k RTR 
- -t 0.140409400 -s 3 -d 4 -p cbr -e 230 -c 2 -a 0 -i 11 -k RTR
h -t 0.140409400 -s 3 -d 4 -p cbr -e 230 -c 2 -a 0 -i 11 -k RTR
+ -t 0.142409767 -s 0 -d 1 -p cbr -e 230 -c 2 -a 0 -i 2 -k RTR 
- -t 0.142409767 -s 0 -d 1 -p cbr -e 230 -c 2 -a 0 -i 2 -k RTR
h -t 0.142409767 -s 0 -d 1 -p cbr -e 230 -c 2 -a 0 -i 2 -k RTR
+ -t 0.145153767 -s 1 -d 2 -p cbr -e 230 -c 2 -a 0 -i 0 -k RTR 
- -t 0.145153767 -s 1 -d 2 -p cbr -e 230 -c 2 -a 0 -i 0 -k RTR
h -t 0.145153767 -s 1 -d 2 -p cbr -e 230 -c 2 -a 0 -i 0 -k RTR
+ -t 0.145600000 -s 0 -d 1 -p cbr -e 230 -c 2 -a 0 -i 52 -k RTR 
- -t 0.145600000 -s 0 -d 1 -p cbr -e 230 -c 2 -a 0 -i 52 -k RTR
h -t 0.145600000 -s 0 -d 1 -p cbr -e 230 -c 2 -a 0 -i 52 -k RTR
+ -t 0.145600000 -s 3 -d 4 -p cbr -e 230 -c 2 -a 0 -i 53 -k RTR 
- -t 0.145600000 -s 3 -d 4 -p cbr -e 230 -c 2 -a 0 -i 53 -k RTR
h -t 0.145600000 -s 3 -d 4 -p cbr -e 230 -c 2 -a 0 -i 53 -k RTR
+ -t 0.150409400 -s 3 -d 4 -p cbr -e 230 -c 2 -a 0 -i 13 -k RTR 
- -t 0.150409400 -s 3 -d 4 -p cbr -e 230 -c 2 -a 0 -i 13 -k RTR
h -t 0.150409400 -s 3 -d 4 -p cbr -e 230 -c 2 -a 0 -i 13 -k RTR
+ -t 0.151200000 -s 0 -d 1 -p cbr -e 230 -c 2 -a 0 -i 54 -k RTR 
- -t 0.151200000 -s 0 -d 1 -p cbr -e 230 -c 2 -a 0 -i 54 -k RTR
h -t 0.151200000 -s 0 -d 1 -p cbr -e 230 -c 2 -a 0 -i 54 -k RTR
+ -t 0.151200000 -s 3 -d 4 -p cbr -e 230 -c 2 -a 0 -i 55 -k RTR 
- -t 0.151200000 -s 3 -d 4 -p cbr -e 230 -c 2 -a 0 -i 55 -k RTR
h -t 0.151200000 -s 3 -d 4 -p cbr -e 230 -c 2 -a 0 -i 55 -k RTR
+ -t 0.152409767 -s 0 -d 1 -p cbr -e 230 -c 2 -a 0 -i 4 -k RTR 
- -t 0.152409767 -s 0 -d 1 -p cbr -e 230 -c 2 -a 0 -i 4 -k RTR
h -t 0.152409767 -s 0 -d 1 -p cbr -e 230 -c 2 -a 0 -i 4 -k RTR
+ -t 0.156800000 -s 0 -d 1 -p cbr -e 230 -c 2 -a 0 -i 56 -k RTR 
- -t 0.156800000 -s 0 -d 1 -p cbr -e 230 -c 2 -a 0 -i 56 -k RTR
h -t 0.156800000 -s 0 -d 1 -p cbr -e 230 -c 2 -a 0 -i 56 -k RTR
+ -t 0.156800000 -s 3 -d 4 -p cbr -e 230 -c 2 -a 0 -i 57 -k RTR 
- -t 0.156800000 -s 3 -d 4 -p cbr -e 230 -c 2 -a 0 -i 57 -k RTR
h -t 0.156800000 -s 3 -d 4 -p cbr -e 230 -c 2 -a 0 -i 57 -k RTR
+ -t 0.160409400 -s 3 -d 4 -p cbr -e 230 -c 2 -a 0 -i 15 -k RTR 
- -t 0.160409400 -s 3 -d 4 -p cbr -e 230 -c 2 -a 0 -i 15 -k RTR
h -t 0.160409400 -s 3 -d 4 -p cbr -e 230 -c 2 -a 0 -i 15 -k RTR
+ -t 0.162400000 -s 0 -d 1 -p cbr -e 230 -c 2 -a 0 -i 58 -k RTR 
- -t 0.162400000 -s 0 -d 1 -p cbr -e 230 -c 2 -a 0 -i 58 -k RTR
h -t 0.162400000 -s 0 -d 1 -p cbr -e 230 -c 2 -a 0 -i 58 -k RTR
+ -t 0.162400000 -s 3 -d 4 -p cbr -e 230 -c 2 -a 0 -i 59 -k RTR 
- -t 0.162400000 -s 3 -d 4 -p cbr -e 230 -c 2 -a 0 -i 59 -k RTR
h -t 0.162400000 -s 3 -d 4 -p cbr -e 230 -c 2 -a 0 -i 59 -k RTR
+ -t 0.162409767 -s 0 -d 1 -p cbr -e 230 -c 2 -a 0 -i 6 -k RTR 
- -t 0.162409767 -s 0 -d 1 -p cbr -e 230 -c 2 -a 0 -i 6 -k RTR
h -t 0.162409767 -s 0 -d 1 -p cbr -e 230 -c 2 -a 0 -i 6 -k RTR
+ -t 0.168000000 -s 0 -d 1 -p cbr -e 230 -c 2 -a 0 -i 60 -k RTR 
- -t 0.168000000 -s 0 -d 1 -p cbr -e 230 -c 2 -a 0 -i 60 -k RTR
h -t 0.168000000 -s 0 -d 1 -p cbr -e 230 -c 2 -a 0 -i 60 -k RTR
+ -t 0.168000000 -s 3 -d 4 -p cbr -e 230 -c 2 -a 0 -i 61 -k RTR 
- -t 0.168000000 -s 3 -d 4 -p cbr -e 230 -c 2 -a 0 -i 61 -k RTR
h -t 0.168000000 -s 3 -d 4 -p cbr -e 230 -c 2 -a 0 -i 61 -k RTR
+ -t 0.170409400 -s 3 -d 4 -p cbr -e 230 -c 2 -a 0 -i 17 -k RTR 
- -t 0.170409400 -s 3 -d 4 -p cbr -e 230 -c 2 -a 0 -i 17 -k RTR
h -t 0.170409400 -s 3 -d 4 -p cbr -e 230 -c 2 -a 0 -i 17 -k RTR
+ -t 0.172409767 -s 0 -d 1 -p cbr -e 230 -c 2 -a 0 -i 8 -k RTR 
- -t 0.172409767 -s 0 -d 1 -p cbr -e 230 -c 2 -a 0 -i 8 -k RTR
h -t 0.172409767 -s 0 -d 1 -p cbr -e 230 -c 2 -a 0 -i 8 -k RTR
+ -t 0.173600000 -s 0 -d 1 -p cbr -e 230 -c 2 -a 0 -i 62 -k RTR 
- -t 0.173600000 -s 0 -d 1 -p cbr -e 230 -c 2 -a 0 -i 62 -k RTR
h -t 0.173600000 -s 0 -d 1 -p cbr -e 230 -c 2 -a 0 -i 62 -k RTR
+ -t 0.173600000 -s 3 -d 4 -p cbr -e 230 -c 2 -a 0 -i 63 -k RTR 
- -t 0.173600000 -s 3 -d 4 -p cbr -e 230 -c 2 -a 0 -i 63 -k RTR
h -t 0.173600000 -s 3 -d 4 -p cbr -e 230 -c 2 -a 0 -i 63 -k RTR
+ -t 0.179200000 -s 0 -d 1 -p cbr -e 230 -c 2 -a 0 -i 64 -k RTR 
- -t 0.179200000 -s 0 -d 1 -p cbr -e 230 -c 2 -a 0 -i 64 -k RTR
h -t 0.179200000 -s 0 -d 1 -p cbr -e 230 -c 2 -a 0 -i 64 -k RTR
+ -t 0.179200000 -s 3 -d 4 -p cbr -e 230 -c 2 -a 0 -i 65 -k RTR 
- -t 0.179200000 -s 3 -d 4 -p cbr -e 230 -c 2 -a 0 -i 65 -k RTR
h -t 0.179200000 -s 3 -d 4 -p cbr -e 230 -c 2 -a 0 -i 65 -k RTR
+ -t 0.180409400 -s 3 -d 4 -p cbr -e 230 -c 2 -a 0 -i 19 -k RTR 
- -t 0.180409400 -s 3 -d 4 -p cbr -e 230 -c 2 -a 0 -i 19 -k RTR
h -t 0.180409400 -s 3 -d 4 -p cbr -e 230 -c 2 -a 0 -i 19 -k RTR
+ -t 0.182409767 -s 0 -d 1 -p cbr -e 230 -c 2 -a 0 -i 10 -k RTR 
- -t 0.182409767 -s 0 -d 1 -p cbr -e 230 -c 2 -a 0 -i 10 -k RTR
h -t 0.182409767 -s 0 -d 1 -p cbr -e 230 -c 2 -a 0 -i 10 -k RTR
+ -t 0.184800000 -s 0 -d 1 -p cbr -e 230 -c 2 -a 0 -i 66 -k RTR 
- -t 0.184800000 -s 0 -d 1 -p cbr -e 230 -c 2 -a 0 -i 66 -k RTR
h -t 0.184800000 -s 0 -d 1 -p cbr -e 230 -c 2 -a 0 -i 66 -k RTR
+ -t 0.184800000 -s 3 -d 4 -p cbr -e 230 -c 2 -a 0 -i 67 -k RTR 
- -t 0.184800000 -s 3 -d 4 -p cbr -e 230 -c 2 -a 0 -i 67 -k RTR
h -t 0.184800000 -s 3 -d 4 -p cbr -e 230 -c 2 -a 0 -i 67 -k RTR
+ -t 0.187153767 -s 1 -d 2 -p cbr -e 230 -c 2 -a 0 -i 48 -k RTR 
- -t 0.187153767 -s 1 -d 2 -p cbr -e 230 -c 2 -a 0 -i 48 -k RTR
h -t 0.187153767 -s 1 -d 2 -p cbr -e 230 -c 2 -a 0 -i 48 -k RTR
+ -t 0.190400000 -s 0 -d 1 -p cbr -e 230 -c 2 -a 0 -i 68 -k RTR 
- -t 0.190400000 -s 0 -d 1 -p cbr -e 230 -c 2 -a 0 -i 68 -k RTR
h -t 0.190400000 -s 0 -d 1 -p cbr -e 230 -c 2 -a 0 -i 68 -k RTR
+ -t 0.190400000 -s 3 -d 4 -p cbr -e 230 -c 2 -a 0 -i 69 -k RTR 
- -t 0.190400000 -s 3 -d 4 -p cbr -e 230 -c 2 -a 0 -i 69 -k RTR
h -t 0.190400000 -s 3 -d 4 -p cbr -e 230 -c 2 -a 0 -i 69 -k RTR
+ -t 0.190409400 -s 3 -d 4 -p cbr -e 230 -c 2 -a 0 -i 21 -k RTR 
- -t 0.190409400 -s 3 -d 4 -p cbr -e 230 -c 2 -a 0 -i 21 -k RTR
h -t 0.190409400 -s 3 -d 4 -p cbr -e 230 -c 2 -a 0 -i 21 -k RTR
+ -t 0.192409767 -s 0 -d 1 -p cbr -e 230 -c 2 -a 0 -i 12 -k RTR 
- -t 0.192409767 -s 0 -d 1 -p cbr -e 230 -c 2 -a 0 -i 12 -k RTR
h -t 0.192409767 -s 0 -d 1 -p cbr -e 230 -c 2 -a 0 -i 12 -k RTR
+ -t 0.196000000 -s 0 -d 1 -p cbr -e 230 -c 2 -a 0 -i 70 -k RTR 
- -t 0.196000000 -s 0 -d 1 -p cbr -e 230 -c 2 -a 0 -i 70 -k RTR
h -t 0.196000000 -s 0 -d 1 -p cbr -e 230 -c 2 -a 0 -i 70 -k RTR
+ -t 0.196000000 -s 3 -d 4 -p cbr -e 230 -c 2 -a 0 -i 71 -k RTR 
- -t 0.196000000 -s 3 -d 4 -p cbr -e 230 -c 2 -a 0 -i 71 -k RTR
h -t 0.196000000 -s 3 -d 4 -p cbr -e 230 -c 2 -a 0 -i 71 -k RTR
+ -t 0.200409400 -s 3 -d 4 -p cbr -e 230 -c 2 -a 0 -i 23 -k RTR 
- -t 0.200409400 -s 3 -d 4 -p cbr -e 230 -c 2 -a 0 -i 23 -k RTR
h -t 0.200409400 -s 3 -d 4 -p cbr -e 230 -c 2 -a 0 -i 23 -k RTR
+ -t 0.201600000 -s 0 -d 1 -p cbr -e 230 -c 2 -a 0 -i 72 -k RTR 
- -t 0.201600000 -s 0 -d 1 -p cbr -e 230 -c 2 -a 0 -i 72 -k RTR
h -t 0.201600000 -s 0 -d 1 -p cbr -e 230 -c 2 -a 0 -i 72 -k RTR
+ -t 0.201600000 -s 3 -d 4 -p cbr -e 230 -c 2 -a 0 -i 73 -k RTR 
- -t 0.201600000 -s 3 -d 4 -p cbr -e 230 -c 2 -a 0 -i 73 -k RTR
h -t 0.201600000 -s 3 -d 4 -p cbr -e 230 -c 2 -a 0 -i 73 -k RTR
+ -t 0.202409767 -s 0 -d 1 -p cbr -e 230 -c 2 -a 0 -i 14 -k RTR 
- -t 0.202409767 -s 0 -d 1 -p cbr -e 230 -c 2 -a 0 -i 14 -k RTR
h -t 0.202409767 -s 0 -d 1 -p cbr -e 230 -c 2 -a 0 -i 14 -k RTR
+ -t 0.207200000 -s 0 -d 1 -p cbr -e 230 -c 2 -a 0 -i 74 -k RTR 
- -t 0.207200000 -s 0 -d 1 -p cbr -e 230 -c 2 -a 0 -i 74 -k RTR
h -t 0.207200000 -s 0 -d 1 -p cbr -e 230 -c 2 -a 0 -i 74 -k RTR
+ -t 0.207200000 -s 3 -d 4 -p cbr -e 230 -c 2 -a 0 -i 75 -k RTR 
- -t 0.207200000 -s 3 -d 4 -p cbr -e 230 -c 2 -a 0 -i 75 -k RTR
h -t 0.207200000 -s 3 -d 4 -p cbr -e 230 -c 2 -a 0 -i 75 -k RTR
+ -t 0.210409400 -s 3 -d 4 -p cbr -e 230 -c 2 -a 0 -i 25 -k RTR 
- -t 0.210409400 -s 3 -d 4 -p cbr -e 230 -c 2 -a 0 -i 25 -k RTR
h -t 0.210409400 -s 3 -d 4 -p cbr -e 230 -c 2 -a 0 -i 25 -k RTR
+ -t 0.212409767 -s 0 -d 1 -p cbr -e 230 -c 2 -a 0 -i 16 -k RTR 
- -t 0.212409767 -s 0 -d 1 -p cbr -e 230 -c 2 -a 0 -i 16 -k RTR
h -t 0.212409767 -s 0 -d 1 -p cbr -e 230 -c 2 -a 0 -i 16 -k RTR
+ -t 0.212800000 -s 0 -d 1 -p cbr -e 230 -c 2 -a 0 -i 76 -k RTR 
- -t 0.212800000 -s 0 -d 1 -p cbr -e 230 -c 2 -a 0 -i 76 -k RTR
h -t 0.212800000 -s 0 -d 1 -p cbr -e 230 -c 2 -a 0 -i 76 -k RTR
+ -t 0.212800000 -s 3 -d 4 -p cbr -e 230 -c 2 -a 0 -i 77 -k RTR 
- -t 0.212800000 -s 3 -d 4 -p cbr -e 230 -c 2 -a 0 -i 77 -k RTR
h -t 0.212800000 -s 3 -d 4 -p cbr -e 230 -c 2 -a 0 -i 77 -k RTR
+ -t 0.218400000 -s 0 -d 1 -p cbr -e 230 -c 2 -a 0 -i 78 -k RTR 
- -t 0.218400000 -s 0 -d 1 -p cbr -e 230 -c 2 -a 0 -i 78 -k RTR
h -t 0.218400000 -s 0 -d 1 -p cbr -e 230 -c 2 -a 0 -i 78 -k RTR
+ -t 0.218400000 -s 3 -d 4 -p cbr -e 230 -c 2 -a 0 -i 79 -k RTR 
- -t 0.218400000 -s 3 -d 4 -p cbr -e 230 -c 2 -a 0 -i 79 -k RTR
h -t 0.218400000 -s 3 -d 4 -p cbr -e 230 -c 2 -a 0 -i 79 -k RTR
+ -t 0.220409400 -s 3 -d 4 -p cbr -e 230 -c 2 -a 0 -i 27 -k RTR 
- -t 0.220409400 -s 3 -d 4 -p cbr -e 230 -c 2 -a 0 -i 27 -k RTR
h -t 0.220409400 -s 3 -d 4 -p cbr -e 230 -c 2 -a 0 -i 27 -k RTR
+ -t 0.222409767 -s 0 -d 1 -p cbr -e 230 -c 2 -a 0 -i 18 -k RTR 
- -t 0.222409767 -s 0 -d 1 -p cbr -e 230 -c 2 -a 0 -i 18 -k RTR
h -t 0.222409767 -s 0 -d 1 -p cbr -e 230 -c 2 -a 0 -i 18 -k RTR
+ -t 0.224000000 -s 0 -d 1 -p cbr -e 230 -c 2 -a 0 -i 80 -k RTR 
- -t 0.224000000 -s 0 -d 1 -p cbr -e 230 -c 2 -a 0 -i 80 -k RTR
h -t 0.224000000 -s 0 -d 1 -p cbr -e 230 -c 2 -a 0 -i 80 -k RTR
+ -t 0.224000000 -s 3 -d 4 -p cbr -e 230 -c 2 -a 0 -i 81 -k RTR 
- -t 0.224000000 -s 3 -d 4 -p cbr -e 230 -c 2 -a 0 -i 81 -k RTR
h -t 0.224000000 -s 3 -d 4 -p cbr -e 230 -c 2 -a 0 -i 81 -k RTR
+ -t 0.229153767 -s 1 -d 2 -p cbr -e 230 -c 2 -a 0 -i 50 -k RTR 
- -t 0.229153767 -s 1 -d 2 -p cbr -e 230 -c 2 -a 0 -i 50 -k RTR
h -t 0.229153767 -s 1 -d 2 -p cbr -e 230 -c 2 -a 0 -i 50 -k RTR
+ -t 0.229600000 -s 0 -d 1 -p cbr -e 230 -c 2 -a 0 -i 82 -k RTR 
- -t 0.229600000 -s 0 -d 1 -p cbr -e 230 -c 2 -a 0 -i 82 -k RTR
h -t 0.229600000 -s 0 -d 1 -p cbr -e 230 -c 2 -a 0 -i 82 -k RTR
+ -t 0.229600000 -s 3 -d 4 -p cbr -e 230 -c 2 -a 0 -i 83 -k RTR 
- -t 0.229600000 -s 3 -d 4 -p cbr -e 230 -c 2 -a 0 -i 83 -k RTR
h -t 0.229600000 -s 3 -d 4 -p cbr -e 230 -c 2 -a 0 -i 83 -k RTR
+ -t 0.230409400 -s 3 -d 4 -p cbr -e 230 -c 2 -a 0 -i 29 -k RTR 
- -t 0.230409400 -s 3 -d 4 -p cbr -e 230 -c 2 -a 0 -i 29 -k RTR
h -t 0.230409400 -s 3 -d 4 -p cbr -e 230 -c 2 -a 0 -i 29 -k RTR
+ -t 0.232409767 -s 0 -d 1 -p cbr -e 230 -c 2 -a 0 -i 20 -k RTR 
- -t 0.232409767 -s 0 -d 1 -p cbr -e 230 -c 2 -a 0 -i 20 -k RTR
h -t 0.232409767 -s 0 -d 1 -p cbr -e 230 -c 2 -a 0 -i 20 -k RTR
+ -t 0.235200000 -s 0 -d 1 -p cbr -e 230 -c 2 -a 0 -i 84 -k RTR 
- -t 0.235200000 -s 0 -d 1 -p cbr -e 230 -c 2 -a 0 -i 84 -k RTR
h -t 0.235200000 -s 0 -d 1 -p cbr -e 230 -c 2 -a 0 -i 84 -k RTR
+ -t 0.235200000 -s 3 -d 4 -p cbr -e 230 -c 2 -a 0 -i 85 -k RTR 
- -t 0.235200000 -s 3 -d 4 -p cbr -e 230 -c 2 -a 0 -i 85 -k RTR
h -t 0.235200000 -s 3 -d 4 -p cbr -e 230 -c 2 -a 0 -i 85 -k RTR
+ -t 0.240409400 -s 3 -d 4 -p cbr -e 230 -c 2 -a 0 -i 31 -k RTR 
- -t 0.240409400 -s 3 -d 4 -p cbr -e 230 -c 2 -a 0 -i 31 -k RTR
h -t 0.240409400 -s 3 -d 4 -p cbr -e 230 -c 2 -a 0 -i 31 -k RTR
+ -t 0.240800000 -s 0 -d 1 -p cbr -e 230 -c 2 -a 0 -i 86 -k RTR 
- -t 0.240800000 -s 0 -d 1 -p cbr -e 230 -c 2 -a 0 -i 86 -k RTR
h -t 0.240800000 -s 0 -d 1 -p cbr -e 230 -c 2 -a 0 -i 86 -k RTR
+ -t 0.240800000 -s 3 -d 4 -p cbr -e 230 -c 2 -a 0 -i 87 -k RTR 
- -t 0.240800000 -s 3 -d 4 -p cbr -e 230 -c 2 -a 0 -i 87 -k RTR
h -t 0.240800000 -s 3 -d 4 -p cbr -e 230 -c 2 -a 0 -i 87 -k RTR
+ -t 0.242409767 -s 0 -d 1 -p cbr -e 230 -c 2 -a 0 -i 22 -k RTR 
- -t 0.242409767 -s 0 -d 1 -p cbr -e 230 -c 2 -a 0 -i 22 -k RTR
h -t 0.242409767 -s 0 -d 1 -p cbr -e 230 -c 2 -a 0 -i 22 -k RTR
+ -t 0.246400000 -s 0 -d 1 -p cbr -e 230 -c 2 -a 0 -i 88 -k RTR 
- -t 0.246400000 -s 0 -d 1 -p cbr -e 230 -c 2 -a 0 -i 88 -k RTR
h -t 0.246400000 -s 0 -d 1 -p cbr -e 230 -c 2 -a 0 -i 88 -k RTR
+ -t 0.246400000 -s 3 -d 4 -p cbr -e 230 -c 2 -a 0 -i 89 -k RTR 
- -t 0.246400000 -s 3 -d 4 -p cbr -e 230 -c 2 -a 0 -i 89 -k RTR
h -t 0.246400000 -s 3 -d 4 -p cbr -e 230 -c 2 -a 0 -i 89 -k RTR
+ -t 0.250409400 -s 3 -d 4 -p cbr -e 230 -c 2 -a 0 -i 33 -k RTR 
- -t 0.250409400 -s 3 -d 4 -p cbr -e 230 -c 2 -a 0 -i 33 -k RTR
h -t 0.250409400 -s 3 -d 4 -p cbr -e 230 -c 2 -a 0 -i 33 -k RTR
+ -t 0.252000000 -s 0 -d 1 -p cbr -e 230 -c 2 -a 0 -i 90 -k RTR 
- -t 0.252000000 -s 0 -d 1 -p cbr -e 230 -c 2 -a 0 -i 90 -k RTR
h -t 0.252000000 -s 0 -d 1 -p cbr -e 230 -c 2 -a 0 -i 90 -k RTR
+ -t 0.252000000 -s 3 -d 4 -p cbr -e 230 -c 2 -a 0 -i 91 -k RTR 
- -t 0.252000000 -s 3 -d 4 -p cbr -e 230 -c 2 -a 0 -i 91 -k RTR
h -t 0.252000000 -s 3 -d 4 -p cbr -e 230 -c 2 -a 0 -i 91 -k RTR
+ -t 0.252409767 -s 0 -d 1 -p cbr -e 230 -c 2 -a 0 -i 24 -k RTR 
- -t 0.252409767 -s 0 -d 1 -p cbr -e 230 -c 2 -a 0 -i 24 -k RTR
h -t 0.252409767 -s 0 -d 1 -p cbr -e 230 -c 2 -a 0 -i 24 -k RTR
+ -t 0.257600000 -s 0 -d 1 -p cbr -e 230 -c 2 -a 0 -i 92 -k RTR 
- -t 0.257600000 -s 0 -d 1 -p cbr -e 230 -c 2 -a 0 -i 92 -k RTR
h -t 0.257600000 -s 0 -d 1 -p cbr -e 230 -c 2 -a 0 -i 92 -k RTR
+ -t 0.257600000 -s 3 -d 4 -p cbr -e 230 -c 2 -a 0 -i 93 -k RTR 
- -t 0.257600000 -s 3 -d 4 -p cbr -e 230 -c 2 -a 0 -i 93 -k RTR
h -t 0.257600000 -s 3 -d 4 -p cbr -e 230 -c 2 -a 0 -i 93 -k RTR
+ -t 0.262409767 -s 0 -d 1 -p cbr -e 230 -c 2 -a 0 -i 26 -k RTR 
- -t 0.262409767 -s 0 -d 1 -p cbr -e 230 -c 2 -a 0 -i 26 -k RTR
h -t 0.262409767 -s 0 -d 1 -p cbr -e 230 -c 2 -a 0 -i 26 -k RTR
+ -t 0.263200000 -s 0 -d 1 -p cbr -e 230 -c 2 -a 0 -i 94 -k RTR 
- -t 0.263200000 -s 0 -d 1 -p cbr -e 230 -c 2 -a 0 -i 94 -k RTR
h -t 0.263200000 -s 0 -d 1 -p cbr -e 230 -c 2 -a 0 -i 94 -k RTR
+ -t 0.263200000 -s 3 -d 4 -p cbr -e 230 -c 2 -a 0 -i 95 -k RTR 
- -t 0.263200000 -s 3 -d 4 -p cbr -e 230 -c 2 -a 0 -i 95 -k RTR
h -t 0.263200000 -s 3 -d 4 -p cbr -e 230 -c 2 -a 0 -i 95 -k RTR
+ -t 0.268800000 -s 0 -d 1 -p cbr -e 230 -c 2 -a 0 -i 96 -k RTR 
- -t 0.268800000 -s 0 -d 1 -p cbr -e 230 -c 2 -a 0 -i 96 -k RTR
h -t 0.268800000 -s 0 -d 1 -p cbr -e 230 -c 2 -a 0 -i 96 -k RTR
+ -t 0.268800000 -s 3 -d 4 -p cbr -e 230 -c 2 -a 0 -i 97 -k RTR 
- -t 0.268800000 -s 3 -d 4 -p cbr -e 230 -c 2 -a 0 -i 97 -k RTR
h -t 0.268800000 -s 3 -d 4 -p cbr -e 230 -c 2 -a 0 -i 97 -k RTR
+ -t 0.271153767 -s 1 -d 2 -p cbr -e 230 -c 2 -a 0 -i 2 -k RTR 
- -t 0.271153767 -s 1 -d 2 -p cbr -e 230 -c 2 -a 0 -i 2 -k RTR
h -t 0.271153767 -s 1 -d 2 -p cbr -e 230 -c 2 -a 0 -i 2 -k RTR
+ -t 0.272409767 -s 0 -d 1 -p cbr -e 230 -c 2 -a 0 -i 28 -k RTR 
- -t 0.272409767 -s 0 -d 1 -p cbr -e 230 -c 2 -a 0 -i 28 -k RTR
h -t 0.272409767 -s 0 -d 1 -p cbr -e 230 -c 2 -a 0 -i 28 -k RTR
+ -t 0.274400000 -s 0 -d 1 -p cbr -e 230 -c 2 -a 0 -i 98 -k RTR 
- -t 0.274400000 -s 0 -d 1 -p cbr -e 230 -c 2 -a 0 -i 98 -k RTR
h -t 0.274400000 -s 0 -d 1 -p cbr -e 230 -c 2 -a 0 -i 98 -k RTR
+ -t 0.274400000 -s 3 -d 4 -p cbr -e 230 -c 2 -a 0 -i 99 -k RTR 
- -t 0.274400000 -s 3 -d 4 -p cbr -e 230 -c 2 -a 0 -i 99 -k RTR
h -t 0.274400000 -s 3 -d 4 -p cbr -e 230 -c 2 -a 0 -i 99 -k RTR
+ -t 0.280000000 -s 0 -d 1 -p cbr -e 230 -c 2 -a 0 -i 100 -k RTR 
- -t 0.280000000 -s 0 -d 1 -p cbr -e 230 -c 2 -a 0 -i 100 -k RTR
h -t 0.280000000 -s 0 -d 1 -p cbr -e 230 -c 2 -a 0 -i 100 -k RTR
+ -t 0.280000000 -s 3 -d 4 -p cbr -e 230 -c 2 -a 0 -i 101 -k RTR 
- -t 0.280000000 -s 3 -d 4 -p cbr -e 230 -c 2 -a 0 -i 101 -k RTR
h -t 0.280000000 -s 3 -d 4 -p cbr -e 230 -c 2 -a 0 -i 101 -k RTR
+ -t 0.282409767 -s 0 -d 1 -p cbr -e 230 -c 2 -a 0 -i 30 -k RTR 
- -t 0.282409767 -s 0 -d 1 -p cbr -e 230 -c 2 -a 0 -i 30 -k RTR
h -t 0.282409767 -s 0 -d 1 -p cbr -e 230 -c 2 -a 0 -i 30 -k RTR
+ -t 0.285600000 -s 0 -d 1 -p cbr -e 230 -c 2 -a 0 -i 102 -k RTR 
- -t 0.285600000 -s 0 -d 1 -p cbr -e 230 -c 2 -a 0 -i 102 -k RTR
h -t 0.285600000 -s 0 -d 1 -p cbr -e 230 -c 2 -a 0 -i 102 -k RTR
+ -t 0.285600000 -s 3 -d 4 -p cbr -e 230 -c 2 -a 0 -i 103 -k RTR 
- -t 0.285600000 -s 3 -d 4 -p cbr -e 230 -c 2 -a 0 -i 103 -k RTR
h -t 0.285600000 -s 3 -d 4 -p cbr -e 230 -c 2 -a 0 -i 103 -k RTR
+ -t 0.291200000 -s 0 -d 1 -p cbr -e 230 -c 2 -a 0 -i 104 -k RTR 
- -t 0.291200000 -s 0 -d 1 -p cbr -e 230 -c 2 -a 0 -i 104 -k RTR
h -t 0.291200000 -s 0 -d 1 -p cbr -e 230 -c 2 -a 0 -i 104 -k RTR
+ -t 0.291200000 -s 3 -d 4 -p cbr -e 230 -c 2 -a 0 -i 105 -k RTR 
- -t 0.291200000 -s 3 -d 4 -p cbr -e 230 -c 2 -a 0 -i 105 -k RTR
h -t 0.291200000 -s 3 -d 4 -p cbr -e 230 -c 2 -a 0 -i 105 -k RTR
+ -t 0.292409767 -s 0 -d 1 -p cbr -e 230 -c 2 -a 0 -i 32 -k RTR 
- -t 0.292409767 -s 0 -d 1 -p cbr -e 230 -c 2 -a 0 -i 32 -k RTR
h -t 0.292409767 -s 0 -d 1 -p cbr -e 230 -c 2 -a 0 -i 32 -k RTR
+ -t 0.296800000 -s 0 -d 1 -p cbr -e 230 -c 2 -a 0 -i 106 -k RTR 
- -t 0.296800000 -s 0 -d 1 -p cbr -e 230 -c 2 -a 0 -i 106 -k RTR
h -t 0.296800000 -s 0 -d 1 -p cbr -e 230 -c 2 -a 0 -i 106 -k RTR
+ -t 0.296800000 -s 3 -d 4 -p cbr -e 230 -c 2 -a 0 -i 107 -k RTR 
- -t 0.296800000 -s 3 -d 4 -p cbr -e 230 -c 2 -a 0 -i 107 -k RTR
h -t 0.296800000 -s 3 -d 4 -p cbr -e 230 -c 2 -a 0 -i 107 -k RTR
+ -t 0.302400000 -s 0 -d 1 -p cbr -e 230 -c 2 -a 0 -i 108 -k RTR 
- -t 0.302400000 -s 0 -d 1 -p cbr -e 230 -c 2 -a 0 -i 108 -k RTR
h -t 0.302400000 -s 0 -d 1 -p cbr -e 230 -c 2 -a 0 -i 108 -k RTR
+ -t 0.302400000 -s 3 -d 4 -p cbr -e 230 -c 2 -a 0 -i 109 -k RTR 
- -t 0.302400000 -s 3 -d 4 -p cbr -e 230 -c 2 -a 0 -i 109 -k RTR
h -t 0.302400000 -s 3 -d 4 -p cbr -e 230 -c 2 -a 0 -i 109 -k RTR
+ -t 0.302409767 -s 0 -d 1 -p cbr -e 230 -c 2 -a 0 -i 34 -k RTR 
- -t 0.302409767 -s 0 -d 1 -p cbr -e 230 -c 2 -a 0 -i 34 -k RTR
h -t 0.302409767 -s 0 -d 1 -p cbr -e 230 -c 2 -a 0 -i 34 -k RTR
+ -t 0.308000000 -s 0 -d 1 -p cbr -e 230 -c 2 -a 0 -i 110 -k RTR 
- -t 0.308000000 -s 0 -d 1 -p cbr -e 230 -c 2 -a 0 -i 110 -k RTR
h -t 0.308000000 -s 0 -d 1 -p cbr -e 230 -c 2 -a 0 -i 110 -k RTR
+ -t 0.308000000 -s 3 -d 4 -p cbr -e 230 -c 2 -a 0 -i 111 -k RTR 
- -t 0.308000000 -s 3 -d 4 -p cbr -e 230 -c 2 -a 0 -i 111 -k RTR
h -t 0.308000000 -s 3 -d 4 -p cbr -e 230 -c 2 -a 0 -i 111 -k RTR
d -t 0.308025000 -s 3 -d 4 -p cbr -e 230 -c 2 -a 0 -i 111 -k IFQ
+ -t 0.312409767 -s 0 -d 1 -p cbr -e 230 -c 2 -a 0 -i 36 -k RTR 
- -t 0.312409767 -s 0 -d 1 -p cbr -e 230 -c 2 -a 0 -i 36 -k RTR
h -t 0.312409767 -s 0 -d 1 -p cbr -e 230 -c 2 -a 0 -i 36 -k RTR
+ -t 0.313153767 -s 1 -d 2 -p cbr -e 230 -c 2 -a 0 -i 52 -k RTR 
- -t 0.313153767 -s 1 -d 2 -p cbr -e 230 -c 2 -a 0 -i 52 -k RTR
h -t 0.313153767 -s 1 -d 2 -p cbr -e 230 -c 2 -a 0 -i 52 -k RTR
+ -t 0.313600000 -s 0 -d 1 -p cbr -e 230 -c 2 -a 0 -i 112 -k RTR 
- -t 0.313600000 -s 0 -d 1 -p cbr -e 230 -c 2 -a 0 -i 112 -k RTR
h -t 0.313600000 -s 0 -d 1 -p cbr -e 230 -c 2 -a 0 -i 112 -k RTR
+ -t 0.313600000 -s 3 -d 4 -p cbr -e 230 -c 2 -a 0 -i 113 -k RTR 
- -t 0.313600000 -s 3 -d 4 -p cbr -e 230 -c 2 -a 0 -i 113 -k RTR
h -t 0.313600000 -s 3 -d 4 -p cbr -e 230 -c 2 -a 0 -i 113 -k RTR
d -t 0.313625000 -s 3 -d 4 -p cbr -e 230 -c 2 -a 0 -i 113 -k IFQ
+ -t 0.319200000 -s 0 -d 1 -p cbr -e 230 -c 2 -a 0 -i 114 -k RTR 
- -t 0.319200000 -s 0 -d 1 -p cbr -e 230 -c 2 -a 0 -i 114 -k RTR
h -t 0.319200000 -s 0 -d 1 -p cbr -e 230 -c 2 -a 0 -i 114 -k RTR
+ -t 0.319200000 -s 3 -d 4 -p cbr -e 230 -c 2 -a 0 -i 115 -k RTR 
- -t 0.319200000 -s 3 -d 4 -p cbr -e 230 -c 2 -a 0 -i 115 -k RTR
h -t 0.319200000 -s 3 -d 4 -p cbr -e 230 -c 2 -a 0 -i 115 -k RTR
d -t 0.319225000 -s 3 -d 4 -p cbr -e 230 -c 2 -a 0 -i 115 -k IFQ
+ -t 0.322409767 -s 0 -d 1 -p cbr -e 230 -c 2 -a 0 -i 38 -k RTR 
- -t 0.322409767 -s 0 -d 1 -p cbr -e 230 -c 2 -a 0 -i 38 -k RTR
h -t 0.322409767 -s 0 -d 1 -p cbr -e 230 -c 2 -a 0 -i 38 -k RTR
+ -t 0.324800000 -s 0 -d 1 -p cbr -e 230 -c 2 -a 0 -i 116 -k RTR 
- -t 0.324800000 -s 0 -d 1 -p cbr -e 230 -c 2 -a 0 -i 116 -k RTR
h -t 0.324800000 -s 0 -d 1 -p cbr -e 230 -c 2 -a 0 -i 116 -k RTR
+ -t 0.324800000 -s 3 -d 4 -p cbr -e 230 -c 2 -a 0 -i 117 -k RTR 
- -t 0.324800000 -s 3 -d 4 -p cbr -e 230 -c 2 -a 0 -i 117 -k RTR
h -t 0.324800000 -s 3 -d 4 -p cbr -e 230 -c 2 -a 0 -i 117 -k RTR
d -t 0.324825000 -s 3 -d 4 -p cbr -e 230 -c 2 -a 0 -i 117 -k IFQ
+ -t 0.330400000 -s 0 -d 1 -p cbr -e 230 -c 2 -a 0 -i 118 -k RTR 
- -t 0.330400000 -s 0 -d 1 -p cbr -e 230 -c 2 -a 0 -i 118 -k RTR
h -t 0.330400000 -s 0 -d 1 -p cbr -e 230 -c 2 -a 0 -i 118 -k RTR
+ -t 0.330400000 -s 3 -d 4 -p cbr -e 230 -c 2 -a 0 -i 119 -k RTR 
- -t 0.330400000 -s 3 -d 4 -p cbr -e 230 -c 2 -a 0 -i 119 -k RTR
h -t 0.330400000 -s 3 -d 4 -p cbr -e 230 -c 2 -a 0 -i 119 -k RTR
d -t 0.330425000 -s 0 -d 1 -p cbr -e 230 -c 2 -a 0 -i 118 -k IFQ
+ -t 0.332409767 -s 0 -d 1 -p cbr -e 230 -c 2 -a 0 -i 40 -k RTR 
- -t 0.332409767 -s 0 -d 1 -p cbr -e 230 -c 2 -a 0 -i 40 -k RTR
h -t 0.332409767 -s 0 -d 1 -p cbr -e 230 -c 2 -a 0 -i 40 -k RTR
d -t 0.332434767 -s 0 -d 1 -p cbr -e 230 -c 2 -a 0 -i 40 -k IFQ
+ -t 0.336000000 -s 0 -d 1 -p cbr -e 230 -c 2 -a 0 -i 120 -k RTR 
- -t 0.336000000 -s 0 -d 1 -p cbr -e 230 -c 2 -a 0 -i 120 -k RTR
h -t 0.336000000 -s 0 -d 1 -p cbr -e 230 -c 2 -a 0 -i 120 -k RTR
+ -t 0.336000000 -s 3 -d 4 -p cbr -e 230 -c 2 -a 0 -i 121 -k RTR 
- -t 0.336000000 -s 3 -d 4 -p cbr -e 230 -c 2 -a 0 -i 121 -k RTR
h -t 0.336000000 -s 3 -d 4 -p cbr -e 230 -c 2 -a 0 -i 121 -k RTR
d -t 0.336025000 -s 0 -d 1 -p cbr -e 230 -c 2 -a 0 -i 120 -k IFQ
d -t 0.336025000 -s 3 -d 4 -p cbr -e 230 -c 2 -a 0 -i 121 -k IFQ
+ -t 0.341600000 -s 0 -d 1 -p cbr -e 230 -c 2 -a 0 -i 122 -k RTR 
- -t 0.341600000 -s 0 -d 1 -p cbr -e 230 -c 2 -a 0 -i 122 -k RTR
h -t 0.341600000 -s 0 -d 1 -p cbr -e 230 -c 2 -a 0 -i 122 -k RTR
+ -t 0.341600000 -s 3 -d 4 -p cbr -e 230 -c 2 -a 0 -i 123 -k RTR 
- -t 0.341600000 -s 3 -d 4 -p cbr -e 230 -c 2 -a 0 -i 123 -k RTR
h -t 0.341600000 -s 3 -d 4 -p cbr -e 230 -c 2 -a 0 -i 123 -k RTR
d -t 0.341625000 -s 0 -d 1 -p cbr -e 230 -c 2 -a 0 -i 122 -k IFQ
d -t 0.341625000 -s 3 -d 4 -p cbr -e 230 -c 2 -a 0 -i 123 -k IFQ
+ -t 0.342409767 -s 0 -d 1 -p cbr -e 230 -c 2 -a 0 -i 42 -k RTR 
- -t 0.342409767 -s 0 -d 1 -p cbr -e 230 -c 2 -a 0 -i 42 -k RTR
h -t 0.342409767 -s 0 -d 1 -p cbr -e 230 -c 2 -a 0 -i 42 -k RTR
d -t 0.342434767 -s 0 -d 1 -p cbr -e 230 -c 2 -a 0 -i 42 -k IFQ
+ -t 0.347200000 -s 0 -d 1 -p cbr -e 230 -c 2 -a 0 -i 124 -k RTR 
- -t 0.347200000 -s 0 -d 1 -p cbr -e 230 -c 2 -a 0 -i 124 -k RTR
h -t 0.347200000 -s 0 -d 1 -p cbr -e 230 -c 2 -a 0 -i 124 -k RTR
+ -t 0.347200000 -s 3 -d 4 -p cbr -e 230 -c 2 -a 0 -i 125 -k RTR 
- -t 0.347200000 -s 3 -d 4 -p cbr -e 230 -c 2 -a 0 -i 125 -k RTR
h -t 0.347200000 -s 3 -d 4 -p cbr -e 230 -c 2 -a 0 -i 125 -k RTR
d -t 0.347225000 -s 0 -d 1 -p cbr -e 230 -c 2 -a 0 -i 124 -k IFQ
d -t 0.347225000 -s 3 -d 4 -p cbr -e 230 -c 2 -a 0 -i 125 -k IFQ
+ -t 0.352409767 -s 0 -d 1 -p cbr -e 230 -c 2 -a 0 -i 44 -k RTR 
- -t 0.352409767 -s 0 -d 1 -p cbr -e 230 -c 2 -a 0 -i 44 -k RTR
h -t 0.352409767 -s 0 -d 1 -p cbr -e 230 -c 2 -a 0 -i 44 -k RTR
d -t 0.352434767 -s 0 -d 1 -p cbr -e 230 -c 2 -a 0 -i 44 -k IFQ
+ -t 0.352800000 -s 0 -d 1 -p cbr -e 230 -c 2 -a 0 -i 126 -k RTR 
- -t 0.352800000 -s 0 -d 1 -p cbr -e 230 -c 2 -a 0 -i 126 -k RTR
h -t 0.352800000 -s 0 -d 1 -p cbr -e 230 -c 2 -a 0 -i 126 -k RTR
+ -t 0.352800000 -s 3 -d 4 -p cbr -e 230 -c 2 -a 0 -i 127 -k RTR 
- -t 0.352800000 -s 3 -d 4 -p cbr -e 230 -c 2 -a 0 -i 127 -k RTR
h -t 0.352800000 -s 3 -d 4 -p cbr -e 230 -c 2 -a 0 -i 127 -k RTR
d -t 0.352825000 -s 0 -d 1 -p cbr -e 230 -c 2 -a 0 -i 126 -k IFQ
d -t 0.352825000 -s 3 -d 4 -p cbr -e 230 -c 2 -a 0 -i 127 -k IFQ
+ -t 0.355153767 -s 1 -d 2 -p cbr -e 230 -c 2 -a 0 -i 54 -k RTR 
- -t 0.355153767 -s 1 -d 2 -p cbr -e 230 -c 2 -a 0 -i 54 -k RTR
h -t 0.355153767 -s 1 -d 2 -p cbr -e 230 -c 2 -a 0 -i 54 -k RTR
+ -t 0.358400000 -s 0 -d 1 -p cbr -e 230 -c 2 -a 0 -i 128 -k RTR 
- -t 0.358400000 -s 0 -d 1 -p cbr -e 230 -c 2 -a 0 -i 128 -k RTR
h -t 0.358400000 -s 0 -d 1 -p cbr -e 230 -c 2 -a 0 -i 128 -k RTR
+ -t 0.358400000 -s 3 -d 4 -p cbr -e 230 -c 2 -a 0 -i 129 -k RTR 
- -t 0.358400000 -s 3 -d 4 -p cbr -e 230 -c 2 -a 0 -i 129 -k RTR
h -t 0.358400000 -s 3 -d 4 -p cbr -e 230 -c 2 -a 0 -i 129 -k RTR
d -t 0.358425000 -s 3 -d 4 -p cbr -e 230 -c 2 -a 0 -i 129 -k IFQ