n -t * -s 0  -x 200 -y 800 -Z 0 -z 10  -v circle -c black
n -t * -s 1  -x 200 -y 570 -Z 0 -z 10  -v circle -c black
n -t * -s 2  -x 200 -y 340 -Z 0 -z 10  -v circle -c black
n -t * -s 3  -x 430 -y 630 -Z 0 -z 10  -v circle -c black
n -t * -s 4  -x 550 -y 630 -Z 0 -z 10  -v circle -c black
V -t * -v 1.0a5 -a 0
W -t * -x 1000 -y 1000
A -t * -n 1 -p 0 -o 0x7fffffff -c 30 -a 1
A -t * -h 1 -m 1073741823 -s 0
+ -t 0.012000000 -s 0 -d -1 -p AODV -e 100 -c 2 -a 0 -i 0 -k MAC 
- -t 0.012000000 -s 0 -d -1 -p AODV -e 100 -c 2 -a 0 -i 0 -k MAC
h -t 0.012000000 -s 0 -d -1 -p AODV -e 100 -c 2 -a 0 -i 0 -k MAC
r -t 0.012400767 -s 1 -d -1 -p AODV -e 48 -c 2 -a 0 -i 0 -k MAC
r -t 0.012400953 -s 3 -d -1 -p AODV -e 48 -c 2 -a 0 -i 0 -k MAC
r -t 0.012401297 -s 4 -d -1 -p AODV -e 48 -c 2 -a 0 -i 0 -k MAC
r -t 0.012401533 -s 2 -d -1 -p AODV -e 48 -c 2 -a 0 -i 0 -k MAC
+ -t 0.018000000 -s 1 -d -1 -p AODV -e 100 -c 2 -a 0 -i 0 -k MAC 
- -t 0.018000000 -s 1 -d -1 -p AODV -e 100 -c 2 -a 0 -i 0 -k MAC
h -t 0.018000000 -s 1 -d -1 -p AODV -e 100 -c 2 -a 0 -i 0 -k MAC
+ -t 0.018000000 -s 3 -d -1 -p AODV -e 100 -c 2 -a 0 -i 0 -k MAC 
- -t 0.018000000 -s 3 -d -1 -p AODV -e 100 -c 2 -a 0 -i 0 -k MAC
h -t 0.018000000 -s 3 -d -1 -p AODV -e 100 -c 2 -a 0 -i 0 -k MAC
r -t 0.018400400 -s 4 -d -1 -p AODV -e 48 -c 2 -a 0 -i 0 -k MAC
r -t 0.018400767 -s 0 -d -1 -p AODV -e 48 -c 2 -a 0 -i 0 -k MAC
r -t 0.018400767 -s 2 -d -1 -p AODV -e 48 -c 2 -a 0 -i 0 -k MAC
r -t 0.018400792 -s 3 -d -1 -p AODV -e 48 -c 2 -a 0 -i 0 -k MAC
r -t 0.018400792 -s 1 -d -1 -p AODV -e 48 -c 2 -a 0 -i 0 -k MAC
+ -t 0.024000000 -s 2 -d -1 -p ARP -e 80 -c 2 -a 0 -i 0 -k MAC 
- -t 0.024000000 -s 2 -d -1 -p ARP -e 80 -c 2 -a 0 -i 0 -k MAC
h -t 0.024000000 -s 2 -d -1 -p ARP -e 80 -c 2 -a 0 -i 0 -k MAC
+ -t 0.024000000 -s 4 -d -1 -p ARP -e 80 -c 2 -a 0 -i 0 -k MAC 
- -t 0.024000000 -s 4 -d -1 -p ARP -e 80 -c 2 -a 0 -i 0 -k MAC
h -t 0.024000000 -s 4 -d -1 -p ARP -e 80 -c 2 -a 0 -i 0 -k MAC
r -t 0.024320400 -s 3 -d -1 -p ARP -e 28 -c 2 -a 0 -i 0 -k MAC
r -t 0.024320767 -s 1 -d -1 -p ARP -e 28 -c 2 -a 0 -i 0 -k MAC
r -t 0.024321297 -s 0 -d -1 -p ARP -e 28 -c 2 -a 0 -i 0 -k MAC
r -t 0.024321515 -s 4 -d -1 -p ARP -e 28 -c 2 -a 0 -i 0 -k MAC
r -t 0.024321515 -s 2 -d -1 -p ARP -e 28 -c 2 -a 0 -i 0 -k MAC
+ -t 0.042000000 -s 1 -d -1 -p ARP -e 80 -c 2 -a 0 -i 0 -k MAC 
- -t 0.042000000 -s 1 -d -1 -p ARP -e 80 -c 2 -a 0 -i 0 -k MAC
h -t 0.042000000 -s 1 -d -1 -p ARP -e 80 -c 2 -a 0 -i 0 -k MAC
+ -t 0.042000000 -s 3 -d -1 -p ARP -e 80 -c 2 -a 0 -i 0 -k MAC 
- -t 0.042000000 -s 3 -d -1 -p ARP -e 80 -c 2 -a 0 -i 0 -k MAC
h -t 0.042000000 -s 3 -d -1 -p ARP -e 80 -c 2 -a 0 -i 0 -k MAC
r -t 0.042320400 -s 4 -d -1 -p ARP -e 28 -c 2 -a 0 -i 0 -k MAC
d -t 0.042320767 -s 0 -d -1 -p ARP -e 80 -c 2 -a 0 -i 0 -k MAC
r -t 0.042320767 -s 2 -d -1 -p ARP -e 28 -c 2 -a 0 -i 0 -k MAC
d -t 0.042320792 -s 3 -d -1 -p ARP -e 80 -c 2 -a 0 -i 0 -k MAC
d -t 0.042320792 -s 1 -d -1 -p ARP -e 80 -c 2 -a 0 -i 0 -k MAC
+ -t 0.048000000 -s 2 -d 1 -p AODV -e 96 -c 2 -a 0 -i 0 -k MAC 
- -t 0.048000000 -s 2 -d 1 -p AODV -e 96 -c 2 -a 0 -i 0 -k MAC
h -t 0.048000000 -s 2 -d 1 -p AODV -e 96 -c 2 -a 0 -i 0 -k MAC
+ -t 0.048000000 -s 4 -d 3 -p AODV -e 96 -c 2 -a 0 -i 0 -k MAC 
- -t 0.048000000 -s 4 -d 3 -p AODV -e 96 -c 2 -a 0 -i 0 -k MAC
h -t 0.048000000 -s 4 -d 3 -p AODV -e 96 -c 2 -a 0 -i 0 -k MAC
r -t 0.048384400 -s 3 -d 3 -p AODV -e 44 -c 2 -a 0 -i 0 -k MAC
r -t 0.048384767 -s 1 -d 1 -p AODV -e 44 -c 2 -a 0 -i 0 -k MAC
d -t 0.048385297 -s 0 -d 3 -p AODV -e 96 -c 2 -a 0 -i 0 -k MAC
d -t 0.048385515 -s 4 -d 1 -p AODV -e 96 -c 2 -a 0 -i 0 -k MAC
d -t 0.048385515 -s 2 -d 3 -p AODV -e 96 -c 2 -a 0 -i 0 -k MAC
+ -t 0.066000000 -s 1 -d -1 -p ARP -e 80 -c 2 -a 0 -i 0 -k MAC 
- -t 0.066000000 -s 1 -d -1 -p ARP -e 80 -c 2 -a 0 -i 0 -k MAC
h -t 0.066000000 -s 1 -d -1 -p ARP -e 80 -c 2 -a 0 -i 0 -k MAC
+ -t 0.066000000 -s 3 -d 4 -p cbr -e 282 -c 2 -a 0 -i 1 -k MAC 
- -t 0.066000000 -s 3 -d 4 -p cbr -e 282 -c 2 -a 0 -i 1 -k MAC
h -t 0.066000000 -s 3 -d 4 -p cbr -e 282 -c 2 -a 0 -i 1 -k MAC
r -t 0.066320767 -s 0 -d -1 -p ARP -e 28 -c 2 -a 0 -i 0 -k MAC
r -t 0.066320767 -s 2 -d -1 -p ARP -e 28 -c 2 -a 0 -i 0 -k MAC
r -t 0.066320792 -s 3 -d -1 -p ARP -e 28 -c 2 -a 0 -i 0 -k MAC
r -t 0.067128400 -s 4 -d 4 -p cbr -e 230 -c 2 -a 0 -i 1 -k MAC
d -t 0.067128792 -s 1 -d 4 -p cbr -e 282 -c 2 -a 0 -i 1 -k MAC
+ -t 0.084000000 -s 0 -d -1 -p ARP -e 80 -c 2 -a 0 -i 0 -k MAC 
- -t 0.084000000 -s 0 -d -1 -p ARP -e 80 -c 2 -a 0 -i 0 -k MAC
h -t 0.084000000 -s 0 -d -1 -p ARP -e 80 -c 2 -a 0 -i 0 -k MAC
r -t 0.084320767 -s 1 -d -1 -p ARP -e 28 -c 2 -a 0 -i 0 -k MAC
d -t 0.084320953 -s 3 -d -1 -p ARP -e 80 -c 2 -a 0 -i 0 -k MAC
d -t 0.084321297 -s 4 -d -1 -p ARP -e 80 -c 2 -a 0 -i 0 -k MAC
d -t 0.084321533 -s 2 -d -1 -p ARP -e 80 -c 2 -a 0 -i 0 -k MAC
+ -t 0.090000000 -s 1 -d 0 -p AODV -e 96 -c 2 -a 0 -i 0 -k MAC 
- -t 0.090000000 -s 1 -d 0 -p AODV -e 96 -c 2 -a 0 -i 0 -k MAC
h -t 0.090000000 -s 1 -d 0 -p AODV -e 96 -c 2 -a 0 -i 0 -k MAC
+ -t 0.090000000 -s 3 -d 4 -p cbr -e 282 -c 2 -a 0 -i 3 -k MAC 
- -t 0.090000000 -s 3 -d 4 -p cbr -e 282 -c 2 -a 0 -i 3 -k MAC
h -t 0.090000000 -s 3 -d 4 -p cbr -e 282 -c 2 -a 0 -i 3 -k MAC
r -t 0.090384767 -s 0 -d 0 -p AODV -e 44 -c 2 -a 0 -i 0 -k MAC
d -t 0.090384767 -s 2 -d 0 -p AODV -e 96 -c 2 -a 0 -i 0 -k MAC
d -t 0.090384792 -s 3 -d 0 -p AODV -e 96 -c 2 -a 0 -i 0 -k MAC
r -t 0.091128400 -s 4 -d 4 -p cbr -e 230 -c 2 -a 0 -i 3 -k MAC
d -t 0.091128792 -s 1 -d 4 -p cbr -e 282 -c 2 -a 0 -i 3 -k MAC
+ -t 0.108000000 -s 0 -d 1 -p cbr -e 282 -c 2 -a 0 -i 0 -k MAC 
- -t 0.108000000 -s 0 -d 1 -p cbr -e 282 -c 2 -a 0 -i 0 -k MAC
h -t 0.108000000 -s 0 -d 1 -p cbr -e 282 -c 2 -a 0 -i 0 -k MAC
r -t 0.109128767 -s 1 -d 1 -p cbr -e 230 -c 2 -a 0 -i 0 -k MAC
d -t 0.109128953 -s 3 -d 1 -p cbr -e 282 -c 2 -a 0 -i 0 -k MAC
d -t 0.109129297 -s 4 -d 1 -p cbr -e 282 -c 2 -a 0 -i 0 -k MAC
d -t 0.109129533 -s 2 -d 1 -p cbr -e 282 -c 2 -a 0 -i 0 -k MAC
+ -t 0.114000000 -s 1 -d 2 -p cbr -e 282 -c 2 -a 0 -i 0 -k MAC 
- -t 0.114000000 -s 1 -d 2 -p cbr -e 282 -c 2 -a 0 -i 0 -k MAC
h -t 0.114000000 -s 1 -d 2 -p cbr -e 282 -c 2 -a 0 -i 0 -k MAC
+ -t 0.114000000 -s 3 -d 4 -p cbr -e 282 -c 2 -a 0 -i 5 -k MAC 
- -t 0.114000000 -s 3 -d 4 -p cbr -e 282 -c 2 -a 0 -i 5 -k MAC
h -t 0.114000000 -s 3 -d 4 -p cbr -e 282 -c 2 -a 0 -i 5 -k MAC
r -t 0.115128400 -s 4 -d 4 -p cbr -e 230 -c 2 -a 0 -i 5 -k MAC
d -t 0.115128767 -s 0 -d 2 -p cbr -e 282 -c 2 -a 0 -i 0 -k MAC
r -t 0.115128767 -s 2 -d 2 -p cbr -e 230 -c 2 -a 0 -i 0 -k MAC
d -t 0.115128792 -s 3 -d 2 -p cbr -e 282 -c 2 -a 0 -i 0 -k MAC
d -t 0.115128792 -s 1 -d 4 -p cbr -e 282 -c 2 -a 0 -i 5 -k MAC
+ -t 0.132000000 -s 0 -d 1 -p cbr -e 282 -c 2 -a 0 -i 2 -k MAC 
- -t 0.132000000 -s 0 -d 1 -p cbr -e 282 -c 2 -a 0 -i 2 -k MAC
h -t 0.132000000 -s 0 -d 1 -p cbr -e 282 -c 2 -a 0 -i 2 -k MAC
r -t 0.133128767 -s 1 -d 1 -p cbr -e 230 -c 2 -a 0 -i 2 -k MAC
d -t 0.133128953 -s 3 -d 1 -p cbr -e 282 -c 2 -a 0 -i 2 -k MAC
d -t 0.133129297 -s 4 -d 1 -p cbr -e 282 -c 2 -a 0 -i 2 -k MAC
d -t 0.133129533 -s 2 -d 1 -p cbr -e 282 -c 2 -a 0 -i 2 -k MAC
+ -t 0.138000000 -s 1 -d 2 -p cbr -e 282 -c 2 -a 0 -i 2 -k MAC 
- -t 0.138000000 -s 1 -d 2 -p cbr -e 282 -c 2 -a 0 -i 2 -k MAC
h -t 0.138000000 -s 1 -d 2 -p cbr -e 282 -c 2 -a 0 -i 2 -k MAC
d -t 0.139128767 -s 0 -d 2 -p cbr -e 282 -c 2 -a 0 -i 2 -k MAC
r -t 0.139128767 -s 2 -d 2 -p cbr -e 230 -c 2 -a 0 -i 2 -k MAC
d -t 0.139129184 -s 4 -d 2 -p cbr -e 282 -c 2 -a 0 -i 2 -k MAC
+ -t 0.156000000 -s 0 -d 1 -p cbr -e 282 -c 2 -a 0 -i 4 -k MAC 
- -t 0.156000000 -s 0 -d 1 -p cbr -e 282 -c 2 -a 0 -i 4 -k MAC
h -t 0.156000000 -s 0 -d 1 -p cbr -e 282 -c 2 -a 0 -i 4 -k MAC
r -t 0.157128767 -s 1 -d 1 -p cbr -e 230 -c 2 -a 0 -i 4 -k MAC
d -t 0.157128953 -s 3 -d 1 -p cbr -e 282 -c 2 -a 0 -i 4 -k MAC
d -t 0.157129297 -s 4 -d 1 -p cbr -e 282 -c 2 -a 0 -i 4 -k MAC
d -t 0.157129533 -s 2 -d 1 -p cbr -e 282 -c 2 -a 0 -i 4 -k MAC
+ -t 0.162000000 -s 1 -d 2 -p cbr -e 282 -c 2 -a 0 -i 4 -k MAC 
- -t 0.162000000 -s 1 -d 2 -p cbr -e 282 -c 2 -a 0 -i 4 -k MAC
h -t 0.162000000 -s 1 -d 2 -p cbr -e 282 -c 2 -a 0 -i 4 -k MAC
d -t 0.163128767 -s 0 -d 2 -p cbr -e 282 -c 2 -a 0 -i 4 -k MAC
r -t 0.163128767 -s 2 -d 2 -p cbr -e 230 -c 2 -a 0 -i 4 -k MAC
d -t 0.163129184 -s 4 -d 2 -p cbr -e 282 -c 2 -a 0 -i 4 -k MAC
+ -t 0.180000000 -s 0 -d 1 -p cbr -e 282 -c 2 -a 0 -i 6 -k MAC 
- -t 0.180000000 -s 0 -d 1 -p cbr -e 282 -c 2 -a 0 -i 6 -k MAC
h -t 0.180000000 -s 0 -d 1 -p cbr -e 282 -c 2 -a 0 -i 6 -k MAC
r -t 0.181128767 -s 1 -d 1 -p cbr -e 230 -c 2 -a 0 -i 6 -k MAC
d -t 0.181128953 -s 3 -d 1 -p cbr -e 282 -c 2 -a 0 -i 6 -k MAC
d -t 0.181129297 -s 4 -d 1 -p cbr -e 282 -c 2 -a 0 -i 6 -k MAC
d -t 0.181129533 -s 2 -d 1 -p cbr -e 282 -c 2 -a 0 -i 6 -k MAC
+ -t 0.186000000 -s 1 -d 2 -p cbr -e 282 -c 2 -a 0 -i 6 -k MAC 
- -t 0.186000000 -s 1 -d 2 -p cbr -e 282 -c 2 -a 0 -i 6 -k MAC
h -t 0.186000000 -s 1 -d 2 -p cbr -e 282 -c 2 -a 0 -i 6 -k MAC
+ -t 0.186000000 -s 3 -d 4 -p cbr -e 282 -c 2 -a 0 -i 7 -k MAC 
- -t 0.186000000 -s 3 -d 4 -p cbr -e 282 -c 2 -a 0 -i 7 -k MAC
h -t 0.186000000 -s 3 -d 4 -p cbr -e 282 -c 2 -a 0 -i 7 -k MAC
r -t 0.187128400 -s 4 -d 4 -p cbr -e 230 -c 2 -a 0 -i 7 -k MAC
d -t 0.187128767 -s 0 -d 2 -p cbr -e 282 -c 2 -a 0 -i 6 -k MAC
r -t 0.187128767 -s 2 -d 2 -p cbr -e 230 -c 2 -a 0 -i 6 -k MAC
d -t 0.187128792 -s 3 -d 2 -p cbr -e 282 -c 2 -a 0 -i 6 -k MAC
d -t 0.187128792 -s 1 -d 4 -p cbr -e 282 -c 2 -a 0 -i 7 -k MAC
+ -t 0.228000000 -s 0 -d 1 -p cbr -e 282 -c 2 -a 0 -i 8 -k MAC 
- -t 0.228000000 -s 0 -d 1 -p cbr -e 282 -c 2 -a 0 -i 8 -k MAC
h -t 0.228000000 -s 0 -d 1 -p cbr -e 282 -c 2 -a 0 -i 8 -k MAC
r -t 0.229128767 -s 1 -d 1 -p cbr -e 230 -c 2 -a 0 -i 8 -k MAC
d -t 0.229128953 -s 3 -d 1 -p cbr -e 282 -c 2 -a 0 -i 8 -k MAC
d -t 0.229129297 -s 4 -d 1 -p cbr -e 282 -c 2 -a 0 -i 8 -k MAC
d -t 0.229129533 -s 2 -d 1 -p cbr -e 282 -c 2 -a 0 -i 8 -k MAC
+ -t 0.234000000 -s 1 -d 2 -p cbr -e 282 -c 2 -a 0 -i 8 -k MAC 
- -t 0.234000000 -s 1 -d 2 -p cbr -e 282 -c 2 -a 0 -i 8 -k MAC
h -t 0.234000000 -s 1 -d 2 -p cbr -e 282 -c 2 -a 0 -i 8 -k MAC
+ -t 0.234000000 -s 3 -d 4 -p cbr -e 282 -c 2 -a 0 -i 9 -k MAC 
- -t 0.234000000 -s 3 -d 4 -p cbr -e 282 -c 2 -a 0 -i 9 -k MAC
h -t 0.234000000 -s 3 -d 4 -p cbr -e 282 -c 2 -a 0 -i 9 -k MAC
r -t 0.235128400 -s 4 -d 4 -p cbr -e 230 -c 2 -a 0 -i 9 -k MAC
d -t 0.235128767 -s 0 -d 2 -p cbr -e 282 -c 2 -a 0 -i 8 -k MAC
r -t 0.235128767 -s 2 -d 2 -p cbr -e 230 -c 2 -a 0 -i 8 -k MAC
d -t 0.235128792 -s 3 -d 2 -p cbr -e 282 -c 2 -a 0 -i 8 -k MAC
d -t 0.235128792 -s 1 -d 4 -p cbr -e 282 -c 2 -a 0 -i 9 -k MAC
+ -t 0.282000000 -s 3 -d 4 -p cbr -e 282 -c 2 -a 0 -i 11 -k MAC 
- -t 0.282000000 -s 3 -d 4 -p cbr -e 282 -c 2 -a 0 -i 11 -k MAC
h -t 0.282000000 -s 3 -d 4 -p cbr -e 282 -c 2 -a 0 -i 11 -k MAC
r -t 0.283128400 -s 4 -d 4 -p cbr -e 230 -c 2 -a 0 -i 11 -k MAC
d -t 0.283128953 -s 0 -d 4 -p cbr -e 282 -c 2 -a 0 -i 11 -k MAC
d -t 0.283129234 -s 2 -d 4 -p cbr -e 282 -c 2 -a 0 -i 11 -k MAC
+ -t 0.300000000 -s 0 -d 1 -p cbr -e 282 -c 2 -a 0 -i 10 -k MAC 
- -t 0.300000000 -s 0 -d 1 -p cbr -e 282 -c 2 -a 0 -i 10 -k MAC
h -t 0.300000000 -s 0 -d 1 -p cbr -e 282 -c 2 -a 0 -i 10 -k MAC
r -t 0.301128767 -s 1 -d 1 -p cbr -e 230 -c 2 -a 0 -i 10 -k MAC
d -t 0.301128953 -s 3 -d 1 -p cbr -e 282 -c 2 -a 0 -i 10 -k MAC
d -t 0.301129297 -s 4 -d 1 -p cbr -e 282 -c 2 -a 0 -i 10 -k MAC
d -t 0.301129533 -s 2 -d 1 -p cbr -e 282 -c 2 -a 0 -i 10 -k MAC
+ -t 0.306000000 -s 1 -d 2 -p cbr -e 282 -c 2 -a 0 -i 10 -k MAC 
- -t 0.306000000 -s 1 -d 2 -p cbr -e 282 -c 2 -a 0 -i 10 -k MAC
h -t 0.306000000 -s 1 -d 2 -p cbr -e 282 -c 2 -a 0 -i 10 -k MAC
d -t 0.307128767 -s 0 -d 2 -p cbr -e 282 -c 2 -a 0 -i 10 -k MAC
r -t 0.307128767 -s 2 -d 2 -p cbr -e 230 -c 2 -a 0 -i 10 -k MAC
d -t 0.307129184 -s 4 -d 2 -p cbr -e 282 -c 2 -a 0 -i 10 -k MAC
+ -t 0.348000000 -s 0 -d 1 -p cbr -e 282 -c 2 -a 0 -i 12 -k MAC 
- -t 0.348000000 -s 0 -d 1 -p cbr -e 282 -c 2 -a 0 -i 12 -k MAC
h -t 0.348000000 -s 0 -d 1 -p cbr -e 282 -c 2 -a 0 -i 12 -k MAC
r -t 0.349128767 -s 1 -d 1 -p cbr -e 230 -c 2 -a 0 -i 12 -k MAC
d -t 0.349128953 -s 3 -d 1 -p cbr -e 282 -c 2 -a 0 -i 12 -k MAC
d -t 0.349129297 -s 4 -d 1 -p cbr -e 282 -c 2 -a 0 -i 12 -k MAC
d -t 0.349129533 -s 2 -d 1 -p cbr -e 282 -c 2 -a 0 -i 12 -k MAC
+ -t 0.354000000 -s 1 -d 2 -p cbr -e 282 -c 2 -a 0 -i 12 -k MAC 
- -t 0.354000000 -s 1 -d 2 -p cbr -e 282 -c 2 -a 0 -i 12 -k MAC
h -t 0.354000000 -s 1 -d 2 -p cbr -e 282 -c 2 -a 0 -i 12 -k MAC
+ -t 0.354000000 -s 3 -d 4 -p cbr -e 282 -c 2 -a 0 -i 13 -k MAC 
- -t 0.354000000 -s 3 -d 4 -p cbr -e 282 -c 2 -a 0 -i 13 -k MAC
h -t 0.354000000 -s 3 -d 4 -p cbr -e 282 -c 2 -a 0 -i 13 -k MAC
r -t 0.355128400 -s 4 -d 4 -p cbr -e 230 -c 2 -a 0 -i 13 -k MAC
d -t 0.355128767 -s 0 -d 2 -p cbr -e 282 -c 2 -a 0 -i 12 -k MAC
r -t 0.355128767 -s 2 -d 2 -p cbr -e 230 -c 2 -a 0 -i 12 -k MAC
d -t 0.355128792 -s 3 -d 2 -p cbr -e 282 -c 2 -a 0 -i 12 -k MAC
d -t 0.355128792 -s 1 -d 4 -p cbr -e 282 -c 2 -a 0 -i 13 -k MAC
+ -t 0.396000000 -s 0 -d 1 -p cbr -e 282 -c 2 -a 0 -i 14 -k MAC 
- -t 0.396000000 -s 0 -d 1 -p cbr -e 282 -c 2 -a 0 -i 14 -k MAC
h -t 0.396000000 -s 0 -d 1 -p cbr -e 282 -c 2 -a 0 -i 14 -k MAC
r -t 0.397128767 -s 1 -d 1 -p cbr -e 230 -c 2 -a 0 -i 14 -k MAC
d -t 0.397128953 -s 3 -d 1 -p cbr -e 282 -c 2 -a 0 -i 14 -k MAC
d -t 0.397129297 -s 4 -d 1 -p cbr -e 282 -c 2 -a 0 -i 14 -k MAC
d -t 0.397129533 -s 2 -d 1 -p cbr -e 282 -c 2 -a 0 -i 14 -k MAC
+ -t 0.402000000 -s 1 -d 2 -p cbr -e 282 -c 2 -a 0 -i 14 -k MAC 
- -t 0.402000000 -s 1 -d 2 -p cbr -e 282 -c 2 -a 0 -i 14 -k MAC
h -t 0.402000000 -s 1 -d 2 -p cbr -e 282 -c 2 -a 0 -i 14 -k MAC
+ -t 0.402000000 -s 3 -d 4 -p cbr -e 282 -c 2 -a 0 -i 15 -k MAC 
- -t 0.402000000 -s 3 -d 4 -p cbr -e 282 -c 2 -a 0 -i 15 -k MAC
h -t 0.402000000 -s 3 -d 4 -p cbr -e 282 -c 2 -a 0 -i 15 -k MAC
r -t 0.403128400 -s 4 -d 4 -p cbr -e 230 -c 2 -a 0 -i 15 -k MAC
d -t 0.403128767 -s 0 -d 2 -p cbr -e 282 -c 2 -a 0 -i 14 -k MAC
r -t 0.403128767 -s 2 -d 2 -p cbr -e 230 -c 2 -a 0 -i 14 -k MAC
d -t 0.403128792 -s 3 -d 2 -p cbr -e 282 -c 2 -a 0 -i 14 -k MAC
d -t 0.403128792 -s 1 -d 4 -p cbr -e 282 -c 2 -a 0 -i 15 -k MAC
+ -t 0.450000000 -s 3 -d 4 -p cbr -e 282 -c 2 -a 0 -i 17 -k MAC 
- -t 0.450000000 -s 3 -d 4 -p cbr -e 282 -c 2 -a 0 -i 17 -k MAC
h -t 0.450000000 -s 3 -d 4 -p cbr -e 282 -c 2 -a 0 -i 17 -k MAC
r -t 0.451128400 -s 4 -d 4 -p cbr -e 230 -c 2 -a 0 -i 17 -k MAC
d -t 0.451128953 -s 0 -d 4 -p cbr -e 282 -c 2 -a 0 -i 17 -k MAC
d -t 0.451129234 -s 2 -d 4 -p cbr -e 282 -c 2 -a 0 -i 17 -k MAC
+ -t 0.468000000 -s 0 -d 1 -p cbr -e 282 -c 2 -a 0 -i 16 -k MAC 
- -t 0.468000000 -s 0 -d 1 -p cbr -e 282 -c 2 -a 0 -i 16 -k MAC
h -t 0.468000000 -s 0 -d 1 -p cbr -e 282 -c 2 -a 0 -i 16 -k MAC
r -t 0.469128767 -s 1 -d 1 -p cbr -e 230 -c 2 -a 0 -i 16 -k MAC
d -t 0.469128953 -s 3 -d 1 -p cbr -e 282 -c 2 -a 0 -i 16 -k MAC
d -t 0.469129297 -s 4 -d 1 -p cbr -e 282 -c 2 -a 0 -i 16 -k MAC
d -t 0.469129533 -s 2 -d 1 -p cbr -e 282 -c 2 -a 0 -i 16 -k MAC
+ -t 0.474000000 -s 1 -d 2 -p cbr -e 282 -c 2 -a 0 -i 16 -k MAC 
- -t 0.474000000 -s 1 -d 2 -p cbr -e 282 -c 2 -a 0 -i 16 -k MAC
h -t 0.474000000 -s 1 -d 2 -p cbr -e 282 -c 2 -a 0 -i 16 -k MAC
d -t 0.475128767 -s 0 -d 2 -p cbr -e 282 -c 2 -a 0 -i 16 -k MAC
r -t 0.475128767 -s 2 -d 2 -p cbr -e 230 -c 2 -a 0 -i 16 -k MAC
d -t 0.475129184 -s 4 -d 2 -p cbr -e 282 -c 2 -a 0 -i 16 -k MAC
+ -t 0.516000000 -s 0 -d 1 -p cbr -e 282 -c 2 -a 0 -i 18 -k MAC 
- -t 0.516000000 -s 0 -d 1 -p cbr -e 282 -c 2 -a 0 -i 18 -k MAC
h -t 0.516000000 -s 0 -d 1 -p cbr -e 282 -c 2 -a 0 -i 18 -k MAC
r -t 0.517128767 -s 1 -d 1 -p cbr -e 230 -c 2 -a 0 -i 18 -k MAC
d -t 0.517128953 -s 3 -d 1 -p cbr -e 282 -c 2 -a 0 -i 18 -k MAC
d -t 0.517129297 -s 4 -d 1 -p cbr -e 282 -c 2 -a 0 -i 18 -k MAC
d -t 0.517129533 -s 2 -d 1 -p cbr -e 282 -c 2 -a 0 -i 18 -k MAC
+ -t 0.522000000 -s 1 -d 2 -p cbr -e 282 -c 2 -a 0 -i 18 -k MAC 
- -t 0.522000000 -s 1 -d 2 -p cbr -e 282 -c 2 -a 0 -i 18 -k MAC
h -t 0.522000000 -s 1 -d 2 -p cbr -e 282 -c 2 -a 0 -i 18 -k MAC
+ -t 0.522000000 -s 3 -d 4 -p cbr -e 282 -c 2 -a 0 -i 19 -k MAC 
- -t 0.522000000 -s 3 -d 4 -p cbr -e 282 -c 2 -a 0 -i 19 -k MAC
h -t 0.522000000 -s 3 -d 4 -p cbr -e 282 -c 2 -a 0 -i 19 -k MAC
r -t 0.523128400 -s 4 -d 4 -p cbr -e 230 -c 2 -a 0 -i 19 -k MAC
d -t 0.523128767 -s 0 -d 2 -p cbr -e 282 -c 2 -a 0 -i 18 -k MAC
r -t 0.523128767 -s 2 -d 2 -p cbr -e 230 -c 2 -a 0 -i 18 -k MAC
d -t 0.523128792 -s 3 -d 2 -p cbr -e 282 -c 2 -a 0 -i 18 -k MAC
d -t 0.523128792 -s 1 -d 4 -p cbr -e 282 -c 2 -a 0 -i 19 -k MAC
+ -t 0.564000000 -s 0 -d 1 -p cbr -e 282 -c 2 -a 0 -i 20 -k MAC 
- -t 0.564000000 -s 0 -d 1 -p cbr -e 282 -c 2 -a 0 -i 20 -k MAC
h -t 0.564000000 -s 0 -d 1 -p cbr -e 282 -c 2 -a 0 -i 20 -k MAC
r -t 0.565128767 -s 1 -d 1 -p cbr -e 230 -c 2 -a 0 -i 20 -k MAC
d -t 0.565128953 -s 3 -d 1 -p cbr -e 282 -c 2 -a 0 -i 20 -k MAC
d -t 0.565129297 -s 4 -d 1 -p cbr -e 282 -c 2 -a 0 -i 20 -k MAC
d -t 0.565129533 -s 2 -d 1 -p cbr -e 282 -c 2 -a 0 -i 20 -k MAC
+ -t 0.570000000 -s 1 -d 2 -p cbr -e 282 -c 2 -a 0 -i 20 -k MAC 
- -t 0.570000000 -s 1 -d 2 -p cbr -e 282 -c 2 -a 0 -i 20 -k MAC
h -t 0.570000000 -s 1 -d 2 -p cbr -e 282 -c 2 -a 0 -i 20 -k MAC
+ -t 0.570000000 -s 3 -d 4 -p cbr -e 282 -c 2 -a 0 -i 21 -k MAC 
- -t 0.570000000 -s 3 -d 4 -p cbr -e 282 -c 2 -a 0 -i 21 -k MAC
h -t 0.570000000 -s 3 -d 4 -p cbr -e 282 -c 2 -a 0 -i 21 -k MAC
r -t 0.571128400 -s 4 -d 4 -p cbr -e 230 -c 2 -a 0 -i 21 -k MAC
d -t 0.571128767 -s 0 -d 2 -p cbr -e 282 -c 2 -a 0 -i 20 -k MAC
r -t 0.571128767 -s 2 -d 2 -p cbr -e 230 -c 2 -a 0 -i 20 -k MAC
d -t 0.571128792 -s 3 -d 2 -p cbr -e 282 -c 2 -a 0 -i 20 -k MAC
d -t 0.571128792 -s 1 -d 4 -p cbr -e 282 -c 2 -a 0 -i 21 -k MAC
+ -t 0.618000000 -s 3 -d 4 -p cbr -e 282 -c 2 -a 0 -i 23 -k MAC 
- -t 0.618000000 -s 3 -d 4 -p cbr -e 282 -c 2 -a 0 -i 23 -k MAC
h -t 0.618000000 -s 3 -d 4 -p cbr -e 282 -c 2 -a 0 -i 23 -k MAC
r -t 0.619128400 -s 4 -d 4 -p cbr -e 230 -c 2 -a 0 -i 23 -k MAC
d -t 0.619128953 -s 0 -d 4 -p cbr -e 282 -c 2 -a 0 -i 23 -k MAC
d -t 0.619129234 -s 2 -d 4 -p cbr -e 282 -c 2 -a 0 -i 23 -k MAC
+ -t 0.636000000 -s 0 -d 1 -p cbr -e 282 -c 2 -a 0 -i 22 -k MAC 
- -t 0.636000000 -s 0 -d 1 -p cbr -e 282 -c 2 -a 0 -i 22 -k MAC
h -t 0.636000000 -s 0 -d 1 -p cbr -e 282 -c 2 -a 0 -i 22 -k MAC
r -t 0.637128767 -s 1 -d 1 -p cbr -e 230 -c 2 -a 0 -i 22 -k MAC
d -t 0.637128953 -s 3 -d 1 -p cbr -e 282 -c 2 -a 0 -i 22 -k MAC
d -t 0.637129297 -s 4 -d 1 -p cbr -e 282 -c 2 -a 0 -i 22 -k MAC
d -t 0.637129533 -s 2 -d 1 -p cbr -e 282 -c 2 -a 0 -i 22 -k MAC
+ -t 0.642000000 -s 1 -d 2 -p cbr -e 282 -c 2 -a 0 -i 22 -k MAC 
- -t 0.642000000 -s 1 -d 2 -p cbr -e 282 -c 2 -a 0 -i 22 -k MAC
h -t 0.642000000 -s 1 -d 2 -p cbr -e 282 -c 2 -a 0 -i 22 -k MAC
d -t 0.643128767 -s 0 -d 2 -p cbr -e 282 -c 2 -a 0 -i 22 -k MAC
r -t 0.643128767 -s 2 -d 2 -p cbr -e 230 -c 2 -a 0 -i 22 -k MAC
d -t 0.643129184 -s 4 -d 2 -p cbr -e 282 -c 2 -a 0 -i 22 -k MAC
+ -t 0.684000000 -s 0 -d 1 -p cbr -e 282 -c 2 -a 0 -i 24 -k MAC 
- -t 0.684000000 -s 0 -d 1 -p cbr -e 282 -c 2 -a 0 -i 24 -k MAC
h -t 0.684000000 -s 0 -d 1 -p cbr -e 282 -c 2 -a 0 -i 24 -k MAC
r -t 0.685128767 -s 1 -d 1 -p cbr -e 230 -c 2 -a 0 -i 24 -k MAC
d -t 0.685128953 -s 3 -d 1 -p cbr -e 282 -c 2 -a 0 -i 24 -k MAC
d -t 0.685129297 -s 4 -d 1 -p cbr -e 282 -c 2 -a 0 -i 24 -k MAC
d -t 0.685129533 -s 2 -d 1 -p cbr -e 282 -c 2 -a 0 -i 24 -k MAC
+ -t 0.690000000 -s 1 -d 2 -p cbr -e 282 -c 2 -a 0 -i 24 -k MAC 
- -t 0.690000000 -s 1 -d 2 -p cbr -e 282 -c 2 -a 0 -i 24 -k MAC
h -t 0.690000000 -s 1 -d 2 -p cbr -e 282 -c 2 -a 0 -i 24 -k MAC
+ -t 0.690000000 -s 3 -d 4 -p cbr -e 282 -c 2 -a 0 -i 25 -k MAC 
- -t 0.690000000 -s 3 -d 4 -p cbr -e 282 -c 2 -a 0 -i 25 -k MAC
h -t 0.690000000 -s 3 -d 4 -p cbr -e 282 -c 2 -a 0 -i 25 -k MAC
r -t 0.691128400 -s 4 -d 4 -p cbr -e 230 -c 2 -a 0 -i 25 -k MAC
d -t 0.691128767 -s 0 -d 2 -p cbr -e 282 -c 2 -a 0 -i 24 -k MAC
r -t 0.691128767 -s 2 -d 2 -p cbr -e 230 -c 2 -a 0 -i 24 -k MAC
d -t 0.691128792 -s 3 -d 2 -p cbr -e 282 -c 2 -a 0 -i 24 -k MAC
d -t 0.691128792 -s 1 -d 4 -p cbr -e 282 -c 2 -a 0 -i 25 -k MAC
+ -t 0.732000000 -s 0 -d 1 -p cbr -e 282 -c 2 -a 0 -i 26 -k MAC 
- -t 0.732000000 -s 0 -d 1 -p cbr -e 282 -c 2 -a 0 -i 26 -k MAC
h -t 0.732000000 -s 0 -d 1 -p cbr -e 282 -c 2 -a 0 -i 26 -k MAC
r -t 0.733128767 -s 1 -d 1 -p cbr -e 230 -c 2 -a 0 -i 26 -k MAC
d -t 0.733128953 -s 3 -d 1 -p cbr -e 282 -c 2 -a 0 -i 26 -k MAC
d -t 0.733129297 -s 4 -d 1 -p cbr -e 282 -c 2 -a 0 -i 26 -k MAC
d -t 0.733129533 -s 2 -d 1 -p cbr -e 282 -c 2 -a 0 -i 26 -k MAC
+ -t 0.738000000 -s 1 -d 2 -p cbr -e 282 -c 2 -a 0 -i 26 -k MAC 
- -t 0.738000000 -s 1 -d 2 -p cbr -e 282 -c 2 -a 0 -i 26 -k MAC
h -t 0.738000000 -s 1 -d 2 -p cbr -e 282 -c 2 -a 0 -i 26 -k MAC
+ -t 0.738000000 -s 3 -d 4 -p cbr -e 282 -c 2 -a 0 -i 27 -k MAC 
- -t 0.738000000 -s 3 -d 4 -p cbr -e 282 -c 2 -a 0 -i 27 -k MAC
h -t 0.738000000 -s 3 -d 4 -p cbr -e 282 -c 2 -a 0 -i 27 -k MAC
r -t 0.739128400 -s 4 -d 4 -p cbr -e 230 -c 2 -a 0 -i 27 -k MAC
d -t 0.739128767 -s 0 -d 2 -p cbr -e 282 -c 2 -a 0 -i 26 -k MAC
r -t 0.739128767 -s 2 -d 2 -p cbr -e 230 -c 2 -a 0 -i 26 -k MAC
d -t 0.739128792 -s 3 -d 2 -p cbr -e 282 -c 2 -a 0 -i 26 -k MAC
d -t 0.739128792 -s 1 -d 4 -p cbr -e 282 -c 2 -a 0 -i 27 -k MAC
+ -t 0.786000000 -s 3 -d 4 -p cbr -e 282 -c 2 -a 0 -i 29 -k MAC 
- -t 0.786000000 -s 3 -d 4 -p cbr -e 282 -c 2 -a 0 -i 29 -k MAC
h -t 0.786000000 -s 3 -d 4 -p cbr -e 282 -c 2 -a 0 -i 29 -k MAC
r -t 0.787128400 -s 4 -d 4 -p cbr -e 230 -c 2 -a 0 -i 29 -k MAC
d -t 0.787128953 -s 0 -d 4 -p cbr -e 282 -c 2 -a 0 -i 29 -k MAC
d -t 0.787129234 -s 2 -d 4 -p cbr -e 282 -c 2 -a 0 -i 29 -k MAC
+ -t 0.804000000 -s 0 -d 1 -p cbr -e 282 -c 2 -a 0 -i 28 -k MAC 
- -t 0.804000000 -s 0 -d 1 -p cbr -e 282 -c 2 -a 0 -i 28 -k MAC
h -t 0.804000000 -s 0 -d 1 -p cbr -e 282 -c 2 -a 0 -i 28 -k MAC
r -t 0.805128767 -s 1 -d 1 -p cbr -e 230 -c 2 -a 0 -i 28 -k MAC
d -t 0.805128953 -s 3 -d 1 -p cbr -e 282 -c 2 -a 0 -i 28 -k MAC
d -t 0.805129297 -s 4 -d 1 -p cbr -e 282 -c 2 -a 0 -i 28 -k MAC
d -t 0.805129533 -s 2 -d 1 -p cbr -e 282 -c 2 -a 0 -i 28 -k MAC
+ -t 0.810000000 -s 1 -d 2 -p cbr -e 282 -c 2 -a 0 -i 28 -k MAC 
- -t 0.810000000 -s 1 -d 2 -p cbr -e 282 -c 2 -a 0 -i 28 -k MAC
h -t 0.810000000 -s 1 -d 2 -p cbr -e 282 -c 2 -a 0 -i 28 -k MAC
d -t 0.811128767 -s 0 -d 2 -p cbr -e 282 -c 2 -a 0 -i 28 -k MAC
r -t 0.811128767 -s 2 -d 2 -p cbr -e 230 -c 2 -a 0 -i 28 -k MAC
d -t 0.811129184 -s 4 -d 2 -p cbr -e 282 -c 2 -a 0 -i 28 -k MAC
+ -t 0.852000000 -s 0 -d 1 -p cbr -e 282 -c 2 -a 0 -i 30 -k MAC 
- -t 0.852000000 -s 0 -d 1 -p cbr -e 282 -c 2 -a 0 -i 30 -k MAC
h -t 0.852000000 -s 0 -d 1 -p cbr -e 282 -c 2 -a 0 -i 30 -k MAC
r -t 0.853128767 -s 1 -d 1 -p cbr -e 230 -c 2 -a 0 -i 30 -k MAC
d -t 0.853128953 -s 3 -d 1 -p cbr -e 282 -c 2 -a 0 -i 30 -k MAC
d -t 0.853129297 -s 4 -d 1 -p cbr -e 282 -c 2 -a 0 -i 30 -k MAC
d -t 0.853129533 -s 2 -d 1 -p cbr -e 282 -c 2 -a 0 -i 30 -k MAC
+ -t 0.858000000 -s 1 -d 2 -p cbr -e 282 -c 2 -a 0 -i 30 -k MAC 
- -t 0.858000000 -s 1 -d 2 -p cbr -e 282 -c 2 -a 0 -i 30 -k MAC
h -t 0.858000000 -s 1 -d 2 -p cbr -e 282 -c 2 -a 0 -i 30 -k MAC
+ -t 0.858000000 -s 3 -d 4 -p cbr -e 282 -c 2 -a 0 -i 31 -k MAC 
- -t 0.858000000 -s 3 -d 4 -p cbr -e 282 -c 2 -a 0 -i 31 -k MAC
h -t 0.858000000 -s 3 -d 4 -p cbr -e 282 -c 2 -a 0 -i 31 -k MAC
r -t 0.859128400 -s 4 -d 4 -p cbr -e 230 -c 2 -a 0 -i 31 -k MAC
d -t 0.859128767 -s 0 -d 2 -p cbr -e 282 -c 2 -a 0 -i 30 -k MAC
r -t 0.859128767 -s 2 -d 2 -p cbr -e 230 -c 2 -a 0 -i 30 -k MAC
d -t 0.859128792 -s 3 -d 2 -p cbr -e 282 -c 2 -a 0 -i 30 -k MAC
d -t 0.859128792 -s 1 -d 4 -p cbr -e 282 -c 2 -a 0 -i 31 -k MAC
+ -t 0.900000000 -s 0 -d 1 -p cbr -e 282 -c 2 -a 0 -i 32 -k MAC 
- -t 0.900000000 -s 0 -d 1 -p cbr -e 282 -c 2 -a 0 -i 32 -k MAC
h -t 0.900000000 -s 0 -d 1 -p cbr -e 282 -c 2 -a 0 -i 32 -k MAC
r -t 0.901128767 -s 1 -d 1 -p cbr -e 230 -c 2 -a 0 -i 32 -k MAC
d -t 0.901128953 -s 3 -d 1 -p cbr -e 282 -c 2 -a 0 -i 32 -k MAC
d -t 0.901129297 -s 4 -d 1 -p cbr -e 282 -c 2 -a 0 -i 32 -k MAC
d -t 0.901129533 -s 2 -d 1 -p cbr -e 282 -c 2 -a 0 -i 32 -k MAC
+ -t 0.906000000 -s 1 -d 2 -p cbr -e 282 -c 2 -a 0 -i 32 -k MAC 
- -t 0.906000000 -s 1 -d 2 -p cbr -e 282 -c 2 -a 0 -i 32 -k MAC
h -t 0.906000000 -s 1 -d 2 -p cbr -e 282 -c 2 -a 0 -i 32 -k MAC
+ -t 0.906000000 -s 3 -d 4 -p cbr -e 282 -c 2 -a 0 -i 33 -k MAC 
- -t 0.906000000 -s 3 -d 4 -p cbr -e 282 -c 2 -a 0 -i 33 -k MAC
h -t 0.906000000 -s 3 -d 4 -p cbr -e 282 -c 2 -a 0 -i 33 -k MAC
r -t 0.907128400 -s 4 -d 4 -p cbr -e 230 -c 2 -a 0 -i 33 -k MAC
d -t 0.907128767 -s 0 -d 2 -p cbr -e 282 -c 2 -a 0 -i 32 -k MAC
r -t 0.907128767 -s 2 -d 2 -p cbr -e 230 -c 2 -a 0 -i 32 -k MAC
d -t 0.907128792 -s 3 -d 2 -p cbr -e 282 -c 2 -a 0 -i 32 -k MAC
d -t 0.907128792 -s 1 -d 4 -p cbr -e 282 -c 2 -a 0 -i 33 -k MAC
+ -t 0.954000000 -s 3 -d 4 -p cbr -e 282 -c 2 -a 0 -i 35 -k MAC 
- -t 0.954000000 -s 3 -d 4 -p cbr -e 282 -c 2 -a 0 -i 35 -k MAC
h -t 0.954000000 -s 3 -d 4 -p cbr -e 282 -c 2 -a 0 -i 35 -k MAC
r -t 0.955128400 -s 4 -d 4 -p cbr -e 230 -c 2 -a 0 -i 35 -k MAC
d -t 0.955128953 -s 0 -d 4 -p cbr -e 282 -c 2 -a 0 -i 35 -k MAC
d -t 0.955129234 -s 2 -d 4 -p cbr -e 282 -c 2 -a 0 -i 35 -k MAC
+ -t 0.972000000 -s 0 -d 1 -p cbr -e 282 -c 2 -a 0 -i 34 -k MAC 
- -t 0.972000000 -s 0 -d 1 -p cbr -e 282 -c 2 -a 0 -i 34 -k MAC
h -t 0.972000000 -s 0 -d 1 -p cbr -e 282 -c 2 -a 0 -i 34 -k MAC
r -t 0.973128767 -s 1 -d 1 -p cbr -e 230 -c 2 -a 0 -i 34 -k MAC
d -t 0.973128953 -s 3 -d 1 -p cbr -e 282 -c 2 -a 0 -i 34 -k MAC
d -t 0.973129297 -s 4 -d 1 -p cbr -e 282 -c 2 -a 0 -i 34 -k MAC
d -t 0.973129533 -s 2 -d 1 -p cbr -e 282 -c 2 -a 0 -i 34 -k MAC
+ -t 0.978000000 -s 1 -d 2 -p cbr -e 282 -c 2 -a 0 -i 34 -k MAC 
- -t 0.978000000 -s 1 -d 2 -p cbr -e 282 -c 2 -a 0 -i 34 -k MAC
h -t 0.978000000 -s 1 -d 2 -p cbr -e 282 -c 2 -a 0 -i 34 -k MAC
d -t 0.979128767 -s 0 -d 2 -p cbr -e 282 -c 2 -a 0 -i 34 -k MAC
r -t 0.979128767 -s 2 -d 2 -p cbr -e 230 -c 2 -a 0 -i 34 -k MAC
d -t 0.979129184 -s 4 -d 2 -p cbr -e 282 -c 2 -a 0 -i 34 -k MAC
+ -t 1.020000000 -s 0 -d 1 -p cbr -e 282 -c 2 -a 0 -i 36 -k MAC 
- -t 1.020000000 -s 0 -d 1 -p cbr -e 282 -c 2 -a 0 -i 36 -k MAC
h -t 1.020000000 -s 0 -d 1 -p cbr -e 282 -c 2 -a 0 -i 36 -k MAC
r -t 1.021128767 -s 1 -d 1 -p cbr -e 230 -c 2 -a 0 -i 36 -k MAC
d -t 1.021128953 -s 3 -d 1 -p cbr -e 282 -c 2 -a 0 -i 36 -k MAC
d -t 1.021129297 -s 4 -d 1 -p cbr -e 282 -c 2 -a 0 -i 36 -k MAC
d -t 1.021129533 -s 2 -d 1 -p cbr -e 282 -c 2 -a 0 -i 36 -k MAC
+ -t 1.026000000 -s 1 -d 2 -p cbr -e 282 -c 2 -a 0 -i 36 -k MAC 
- -t 1.026000000 -s 1 -d 2 -p cbr -e 282 -c 2 -a 0 -i 36 -k MAC
h -t 1.026000000 -s 1 -d 2 -p cbr -e 282 -c 2 -a 0 -i 36 -k MAC
+ -t 1.026000000 -s 3 -d 4 -p cbr -e 282 -c 2 -a 0 -i 37 -k MAC 
- -t 1.026000000 -s 3 -d 4 -p cbr -e 282 -c 2 -a 0 -i 37 -k MAC
h -t 1.026000000 -s 3 -d 4 -p cbr -e 282 -c 2 -a 0 -i 37 -k MAC
r -t 1.027128400 -s 4 -d 4 -p cbr -e 230 -c 2 -a 0 -i 37 -k MAC
d -t 1.027128767 -s 0 -d 2 -p cbr -e 282 -c 2 -a 0 -i 36 -k MAC
r -t 1.027128767 -s 2 -d 2 -p cbr -e 230 -c 2 -a 0 -i 36 -k MAC
d -t 1.027128792 -s 3 -d 2 -p cbr -e 282 -c 2 -a 0 -i 36 -k MAC
d -t 1.027128792 -s 1 -d 4 -p cbr -e 282 -c 2 -a 0 -i 37 -k MAC
+ -t 1.068000000 -s 0 -d 1 -p cbr -e 282 -c 2 -a 0 -i 38 -k MAC 
- -t 1.068000000 -s 0 -d 1 -p cbr -e 282 -c 2 -a 0 -i 38 -k MAC
h -t 1.068000000 -s 0 -d 1 -p cbr -e 282 -c 2 -a 0 -i 38 -k MAC
r -t 1.069128767 -s 1 -d 1 -p cbr -e 230 -c 2 -a 0 -i 38 -k MAC
d -t 1.069128953 -s 3 -d 1 -p cbr -e 282 -c 2 -a 0 -i 38 -k MAC
d -t 1.069129297 -s 4 -d 1 -p cbr -e 282 -c 2 -a 0 -i 38 -k MAC
d -t 1.069129533 -s 2 -d 1 -p cbr -e 282 -c 2 -a 0 -i 38 -k MAC
+ -t 1.074000000 -s 1 -d 2 -p cbr -e 282 -c 2 -a 0 -i 38 -k MAC 
- -t 1.074000000 -s 1 -d 2 -p cbr -e 282 -c 2 -a 0 -i 38 -k MAC
h -t 1.074000000 -s 1 -d 2 -p cbr -e 282 -c 2 -a 0 -i 38 -k MAC
+ -t 1.074000000 -s 3 -d 4 -p cbr -e 282 -c 2 -a 0 -i 39 -k MAC 
- -t 1.074000000 -s 3 -d 4 -p cbr -e 282 -c 2 -a 0 -i 39 -k MAC
h -t 1.074000000 -s 3 -d 4 -p cbr -e 282 -c 2 -a 0 -i 39 -k MAC
r -t 1.075128400 -s 4 -d 4 -p cbr -e 230 -c 2 -a 0 -i 39 -k MAC
d -t 1.075128767 -s 0 -d 2 -p cbr -e 282 -c 2 -a 0 -i 38 -k MAC
r -t 1.075128767 -s 2 -d 2 -p cbr -e 230 -c 2 -a 0 -i 38 -k MAC
d -t 1.075128792 -s 3 -d 2 -p cbr -e 282 -c 2 -a 0 -i 38 -k MAC
d -t 1.075128792 -s 1 -d 4 -p cbr -e 282 -c 2 -a 0 -i 39 -k MAC
+ -t 1.122000000 -s 3 -d 4 -p cbr -e 282 -c 2 -a 0 -i 41 -k MAC 
- -t 1.122000000 -s 3 -d 4 -p cbr -e 282 -c 2 -a 0 -i 41 -k MAC
h -t 1.122000000 -s 3 -d 4 -p cbr -e 282 -c 2 -a 0 -i 41 -k MAC
r -t 1.123128400 -s 4 -d 4 -p cbr -e 230 -c 2 -a 0 -i 41 -k MAC
d -t 1.123128953 -s 0 -d 4 -p cbr -e 282 -c 2 -a 0 -i 41 -k MAC
d -t 1.123129234 -s 2 -d 4 -p cbr -e 282 -c 2 -a 0 -i 41 -k MAC
+ -t 1.140000000 -s 0 -d 1 -p cbr -e 282 -c 2 -a 0 -i 40 -k MAC 
- -t 1.140000000 -s 0 -d 1 -p cbr -e 282 -c 2 -a 0 -i 40 -k MAC
h -t 1.140000000 -s 0 -d 1 -p cbr -e 282 -c 2 -a 0 -i 40 -k MAC
r -t 1.141128767 -s 1 -d 1 -p cbr -e 230 -c 2 -a 0 -i 40 -k MAC
d -t 1.141128953 -s 3 -d 1 -p cbr -e 282 -c 2 -a 0 -i 40 -k MAC
d -t 1.141129297 -s 4 -d 1 -p cbr -e 282 -c 2 -a 0 -i 40 -k MAC
d -t 1.141129533 -s 2 -d 1 -p cbr -e 282 -c 2 -a 0 -i 40 -k MAC
+ -t 1.146000000 -s 1 -d 2 -p cbr -e 282 -c 2 -a 0 -i 40 -k MAC 
- -t 1.146000000 -s 1 -d 2 -p cbr -e 282 -c 2 -a 0 -i 40 -k MAC
h -t 1.146000000 -s 1 -d 2 -p cbr -e 282 -c 2 -a 0 -i 40 -k MAC
d -t 1.147128767 -s 0 -d 2 -p cbr -e 282 -c 2 -a 0 -i 40 -k MAC
r -t 1.147128767 -s 2 -d 2 -p cbr -e 230 -c 2 -a 0 -i 40 -k MAC
d -t 1.147129184 -s 4 -d 2 -p cbr -e 282 -c 2 -a 0 -i 40 -k MAC
+ -t 1.188000000 -s 0 -d 1 -p cbr -e 282 -c 2 -a 0 -i 42 -k MAC 
- -t 1.188000000 -s 0 -d 1 -p cbr -e 282 -c 2 -a 0 -i 42 -k MAC
h -t 1.188000000 -s 0 -d 1 -p cbr -e 282 -c 2 -a 0 -i 42 -k MAC
r -t 1.189128767 -s 1 -d 1 -p cbr -e 230 -c 2 -a 0 -i 42 -k MAC
d -t 1.189128953 -s 3 -d 1 -p cbr -e 282 -c 2 -a 0 -i 42 -k MAC
d -t 1.189129297 -s 4 -d 1 -p cbr -e 282 -c 2 -a 0 -i 42 -k MAC
d -t 1.189129533 -s 2 -d 1 -p cbr -e 282 -c 2 -a 0 -i 42 -k MAC
+ -t 1.194000000 -s 1 -d 2 -p cbr -e 282 -c 2 -a 0 -i 42 -k MAC 
- -t 1.194000000 -s 1 -d 2 -p cbr -e 282 -c 2 -a 0 -i 42 -k MAC