n -t * -s 0  -x 200 -y 800 -Z 0 -z 10  -v circle -c black
n -t * -s 1  -x 200 -y 570 -Z 0 -z 10  -v circle -c black
n -t * -s 2  -x 200 -y 340 -Z 0 -z 10  -v circle -c black
n -t * -s 3  -x 430 -y 630 -Z 0 -z 10  -v circle -c black
n -t * -s 4  -x 550 -y 630 -Z 0 -z 10  -v circle -c black
V -t * -v 1.0a5 -a 0
W -t * -x 1000 -y 1000
A -t * -n 1 -p 0 -o 0x7fffffff -c 30 -a 1
A -t * -h 1 -m 1073741823 -s 0
+ -t 0.000000000 -s 0 -d -1 -p AODV -e 44 -c 2 -a 0 -i 0 -k RTR 
- -t 0.000000000 -s 0 -d -1 -p AODV -e 44 -c 2 -a 0 -i 0 -k RTR
h -t 0.000000000 -s 0 -d -1 -p AODV -e 44 -c 2 -a 0 -i 0 -k RTR
+ -t 0.000000000 -s 1 -d -1 -p AODV -e 44 -c 2 -a 0 -i 0 -k RTR 
- -t 0.000000000 -s 1 -d -1 -p AODV -e 44 -c 2 -a 0 -i 0 -k RTR
h -t 0.000000000 -s 1 -d -1 -p AODV -e 44 -c 2 -a 0 -i 0 -k RTR
+ -t 0.000000000 -s 2 -d -1 -p AODV -e 44 -c 2 -a 0 -i 0 -k RTR 
- -t 0.000000000 -s 2 -d -1 -p AODV -e 44 -c 2 -a 0 -i 0 -k RTR
h -t 0.000000000 -s 2 -d -1 -p AODV -e 44 -c 2 -a 0 -i 0 -k RTR
+ -t 0.000000000 -s 3 -d -1 -p AODV -e 44 -c 2 -a 0 -i 0 -k RTR 
- -t 0.000000000 -s 3 -d -1 -p AODV -e 44 -c 2 -a 0 -i 0 -k RTR
h -t 0.000000000 -s 3 -d -1 -p AODV -e 44 -c 2 -a 0 -i 0 -k RTR
+ -t 0.000000000 -s 4 -d -1 -p AODV -e 44 -c 2 -a 0 -i 0 -k RTR 
- -t 0.000000000 -s 4 -d -1 -p AODV -e 44 -c 2 -a 0 -i 0 -k RTR
h -t 0.000000000 -s 4 -d -1 -p AODV -e 44 -c 2 -a 0 -i 0 -k RTR
+ -t 0.000000000 -s 0 -d -1 -p AODV -e 48 -c 2 -a 0 -i 0 -k RTR 
- -t 0.000000000 -s 0 -d -1 -p AODV -e 48 -c 2 -a 0 -i 0 -k RTR
h -t 0.000000000 -s 0 -d -1 -p AODV -e 48 -c 2 -a 0 -i 0 -k RTR
+ -t 0.000000000 -s 3 -d -1 -p AODV -e 48 -c 2 -a 0 -i 0 -k RTR 
- -t 0.000000000 -s 3 -d -1 -p AODV -e 48 -c 2 -a 0 -i 0 -k RTR
h -t 0.000000000 -s 3 -d -1 -p AODV -e 48 -c 2 -a 0 -i 0 -k RTR
r -t 0.012425400 -s 4 -d -1 -p AODV -e 48 -c 2 -a 0 -i 0 -k RTR
+ -t 0.012425400 -s 4 -d 3 -p AODV -e 44 -c 2 -a 0 -i 0 -k RTR 
- -t 0.012425400 -s 4 -d 3 -p AODV -e 44 -c 2 -a 0 -i 0 -k RTR
h -t 0.012425400 -s 4 -d 3 -p AODV -e 44 -c 2 -a 0 -i 0 -k RTR
r -t 0.012425767 -s 1 -d -1 -p AODV -e 48 -c 2 -a 0 -i 0 -k RTR
+ -t 0.020417321 -s 1 -d -1 -p AODV -e 48 -c 2 -a 0 -i 0 -k RTR 
- -t 0.020417321 -s 1 -d -1 -p AODV -e 48 -c 2 -a 0 -i 0 -k RTR
h -t 0.020417321 -s 1 -d -1 -p AODV -e 48 -c 2 -a 0 -i 0 -k RTR
r -t 0.048425767 -s 0 -d -1 -p AODV -e 48 -c 2 -a 0 -i 0 -k RTR
r -t 0.048425767 -s 2 -d -1 -p AODV -e 48 -c 2 -a 0 -i 0 -k RTR
+ -t 0.048425767 -s 2 -d 1 -p AODV -e 44 -c 2 -a 0 -i 0 -k RTR 
- -t 0.048425767 -s 2 -d 1 -p AODV -e 44 -c 2 -a 0 -i 0 -k RTR
h -t 0.048425767 -s 2 -d 1 -p AODV -e 44 -c 2 -a 0 -i 0 -k RTR
+ -t 0.090409400 -s 3 -d 4 -p cbr -e 230 -c 2 -a 0 -i 1 -k RTR 
- -t 0.090409400 -s 3 -d 4 -p cbr -e 230 -c 2 -a 0 -i 1 -k RTR
h -t 0.090409400 -s 3 -d 4 -p cbr -e 230 -c 2 -a 0 -i 1 -k RTR
+ -t 0.090409767 -s 1 -d 0 -p AODV -e 44 -c 2 -a 0 -i 0 -k RTR 
- -t 0.090409767 -s 1 -d 0 -p AODV -e 44 -c 2 -a 0 -i 0 -k RTR
h -t 0.090409767 -s 1 -d 0 -p AODV -e 44 -c 2 -a 0 -i 0 -k RTR
+ -t 0.100409400 -s 3 -d 4 -p cbr -e 230 -c 2 -a 0 -i 3 -k RTR 
- -t 0.100409400 -s 3 -d 4 -p cbr -e 230 -c 2 -a 0 -i 3 -k RTR
h -t 0.100409400 -s 3 -d 4 -p cbr -e 230 -c 2 -a 0 -i 3 -k RTR
+ -t 0.112000000 -s 3 -d 4 -p cbr -e 230 -c 2 -a 0 -i 5 -k RTR 
- -t 0.112000000 -s 3 -d 4 -p cbr -e 230 -c 2 -a 0 -i 5 -k RTR
h -t 0.112000000 -s 3 -d 4 -p cbr -e 230 -c 2 -a 0 -i 5 -k RTR
+ -t 0.132409767 -s 0 -d 1 -p cbr -e 230 -c 2 -a 0 -i 0 -k RTR 
- -t 0.132409767 -s 0 -d 1 -p cbr -e 230 -c 2 -a 0 -i 0 -k RTR
h -t 0.132409767 -s 0 -d 1 -p cbr -e 230 -c 2 -a 0 -i 0 -k RTR
+ -t 0.142409767 -s 0 -d 1 -p cbr -e 230 -c 2 -a 0 -i 2 -k RTR 
- -t 0.142409767 -s 0 -d 1 -p cbr -e 230 -c 2 -a 0 -i 2 -k RTR
h -t 0.142409767 -s 0 -d 1 -p cbr -e 230 -c 2 -a 0 -i 2 -k RTR
+ -t 0.145153767 -s 1 -d 2 -p cbr -e 230 -c 2 -a 0 -i 0 -k RTR 
- -t 0.145153767 -s 1 -d 2 -p cbr -e 230 -c 2 -a 0 -i 0 -k RTR
h -t 0.145153767 -s 1 -d 2 -p cbr -e 230 -c 2 -a 0 -i 0 -k RTR
+ -t 0.152409767 -s 0 -d 1 -p cbr -e 230 -c 2 -a 0 -i 4 -k RTR 
- -t 0.152409767 -s 0 -d 1 -p cbr -e 230 -c 2 -a 0 -i 4 -k RTR
h -t 0.152409767 -s 0 -d 1 -p cbr -e 230 -c 2 -a 0 -i 4 -k RTR
+ -t 0.168000000 -s 0 -d 1 -p cbr -e 230 -c 2 -a 0 -i 6 -k RTR 
- -t 0.168000000 -s 0 -d 1 -p cbr -e 230 -c 2 -a 0 -i 6 -k RTR
h -t 0.168000000 -s 0 -d 1 -p cbr -e 230 -c 2 -a 0 -i 6 -k RTR
+ -t 0.168000000 -s 3 -d 4 -p cbr -e 230 -c 2 -a 0 -i 7 -k RTR 
- -t 0.168000000 -s 3 -d 4 -p cbr -e 230 -c 2 -a 0 -i 7 -k RTR
h -t 0.168000000 -s 3 -d 4 -p cbr -e 230 -c 2 -a 0 -i 7 -k RTR
+ -t 0.187153767 -s 1 -d 2 -p cbr -e 230 -c 2 -a 0 -i 2 -k RTR 
- -t 0.187153767 -s 1 -d 2 -p cbr -e 230 -c 2 -a 0 -i 2 -k RTR
h -t 0.187153767 -s 1 -d 2 -p cbr -e 230 -c 2 -a 0 -i 2 -k RTR
+ -t 0.224000000 -s 0 -d 1 -p cbr -e 230 -c 2 -a 0 -i 8 -k RTR 
- -t 0.224000000 -s 0 -d 1 -p cbr -e 230 -c 2 -a 0 -i 8 -k RTR
h -t 0.224000000 -s 0 -d 1 -p cbr -e 230 -c 2 -a 0 -i 8 -k RTR
+ -t 0.224000000 -s 3 -d 4 -p cbr -e 230 -c 2 -a 0 -i 9 -k RTR 
- -t 0.224000000 -s 3 -d 4 -p cbr -e 230 -c 2 -a 0 -i 9 -k RTR
h -t 0.224000000 -s 3 -d 4 -p cbr -e 230 -c 2 -a 0 -i 9 -k RTR
+ -t 0.229153767 -s 1 -d 2 -p cbr -e 230 -c 2 -a 0 -i 4 -k RTR 
- -t 0.229153767 -s 1 -d 2 -p cbr -e 230 -c 2 -a 0 -i 4 -k RTR
h -t 0.229153767 -s 1 -d 2 -p cbr -e 230 -c 2 -a 0 -i 4 -k RTR
+ -t 0.271153767 -s 1 -d 2 -p cbr -e 230 -c 2 -a 0 -i 6 -k RTR 
- -t 0.271153767 -s 1 -d 2 -p cbr -e 230 -c 2 -a 0 -i 6 -k RTR
h -t 0.271153767 -s 1 -d 2 -p cbr -e 230 -c 2 -a 0 -i 6 -k RTR
+ -t 0.280000000 -s 0 -d 1 -p cbr -e 230 -c 2 -a 0 -i 10 -k RTR 
- -t 0.280000000 -s 0 -d 1 -p cbr -e 230 -c 2 -a 0 -i 10 -k RTR
h -t 0.280000000 -s 0 -d 1 -p cbr -e 230 -c 2 -a 0 -i 10 -k RTR
+ -t 0.280000000 -s 3 -d 4 -p cbr -e 230 -c 2 -a 0 -i 11 -k RTR 
- -t 0.280000000 -s 3 -d 4 -p cbr -e 230 -c 2 -a 0 -i 11 -k RTR
h -t 0.280000000 -s 3 -d 4 -p cbr -e 230 -c 2 -a 0 -i 11 -k RTR
+ -t 0.313153767 -s 1 -d 2 -p cbr -e 230 -c 2 -a 0 -i 8 -k RTR 
- -t 0.313153767 -s 1 -d 2 -p cbr -e 230 -c 2 -a 0 -i 8 -k RTR
h -t 0.313153767 -s 1 -d 2 -p cbr -e 230 -c 2 -a 0 -i 8 -k RTR
+ -t 0.336000000 -s 0 -d 1 -p cbr -e 230 -c 2 -a 0 -i 12 -k RTR 
- -t 0.336000000 -s 0 -d 1 -p cbr -e 230 -c 2 -a 0 -i 12 -k RTR
h -t 0.336000000 -s 0 -d 1 -p cbr -e 230 -c 2 -a 0 -i 12 -k RTR
+ -t 0.336000000 -s 3 -d 4 -p cbr -e 230 -c 2 -a 0 -i 13 -k RTR 
- -t 0.336000000 -s 3 -d 4 -p cbr -e 230 -c 2 -a 0 -i 13 -k RTR
h -t 0.336000000 -s 3 -d 4 -p cbr -e 230 -c 2 -a 0 -i 13 -k RTR
+ -t 0.355153767 -s 1 -d 2 -p cbr -e 230 -c 2 -a 0 -i 10 -k RTR 
- -t 0.355153767 -s 1 -d 2 -p cbr -e 230 -c 2 -a 0 -i 10 -k RTR
h -t 0.355153767 -s 1 -d 2 -p cbr -e 230 -c 2 -a 0 -i 10 -k RTR
+ -t 0.392000000 -s 0 -d 1 -p cbr -e 230 -c 2 -a 0 -i 14 -k RTR 
- -t 0.392000000 -s 0 -d 1 -p cbr -e 230 -c 2 -a 0 -i 14 -k RTR
h -t 0.392000000 -s 0 -d 1 -p cbr -e 230 -c 2 -a 0 -i 14 -k RTR
+ -t 0.392000000 -s 3 -d 4 -p cbr -e 230 -c 2 -a 0 -i 15 -k RTR 
- -t 0.392000000 -s 3 -d 4 -p cbr -e 230 -c 2 -a 0 -i 15 -k RTR
h -t 0.392000000 -s 3 -d 4 -p cbr -e 230 -c 2 -a 0 -i 15 -k RTR
+ -t 0.397153767 -s 1 -d 2 -p cbr -e 230 -c 2 -a 0 -i 12 -k RTR 
- -t 0.397153767 -s 1 -d 2 -p cbr -e 230 -c 2 -a 0 -i 12 -k RTR
h -t 0.397153767 -s 1 -d 2 -p cbr -e 230 -c 2 -a 0 -i 12 -k RTR
+ -t 0.439153767 -s 1 -d 2 -p cbr -e 230 -c 2 -a 0 -i 14 -k RTR 
- -t 0.439153767 -s 1 -d 2 -p cbr -e 230 -c 2 -a 0 -i 14 -k RTR
h -t 0.439153767 -s 1 -d 2 -p cbr -e 230 -c 2 -a 0 -i 14 -k RTR
+ -t 0.448000000 -s 0 -d 1 -p cbr -e 230 -c 2 -a 0 -i 16 -k RTR 
- -t 0.448000000 -s 0 -d 1 -p cbr -e 230 -c 2 -a 0 -i 16 -k RTR
h -t 0.448000000 -s 0 -d 1 -p cbr -e 230 -c 2 -a 0 -i 16 -k RTR
+ -t 0.448000000 -s 3 -d 4 -p cbr -e 230 -c 2 -a 0 -i 17 -k RTR 
- -t 0.448000000 -s 3 -d 4 -p cbr -e 230 -c 2 -a 0 -i 17 -k RTR
h -t 0.448000000 -s 3 -d 4 -p cbr -e 230 -c 2 -a 0 -i 17 -k RTR
+ -t 0.481153767 -s 1 -d 2 -p cbr -e 230 -c 2 -a 0 -i 16 -k RTR 
- -t 0.481153767 -s 1 -d 2 -p cbr -e 230 -c 2 -a 0 -i 16 -k RTR
h -t 0.481153767 -s 1 -d 2 -p cbr -e 230 -c 2 -a 0 -i 16 -k RTR
+ -t 0.504000000 -s 0 -d 1 -p cbr -e 230 -c 2 -a 0 -i 18 -k RTR 
- -t 0.504000000 -s 0 -d 1 -p cbr -e 230 -c 2 -a 0 -i 18 -k RTR
h -t 0.504000000 -s 0 -d 1 -p cbr -e 230 -c 2 -a 0 -i 18 -k RTR
+ -t 0.504000000 -s 3 -d 4 -p cbr -e 230 -c 2 -a 0 -i 19 -k RTR 
- -t 0.504000000 -s 3 -d 4 -p cbr -e 230 -c 2 -a 0 -i 19 -k RTR
h -t 0.504000000 -s 3 -d 4 -p cbr -e 230 -c 2 -a 0 -i 19 -k RTR
+ -t 0.523153767 -s 1 -d 2 -p cbr -e 230 -c 2 -a 0 -i 18 -k RTR 
- -t 0.523153767 -s 1 -d 2 -p cbr -e 230 -c 2 -a 0 -i 18 -k RTR
h -t 0.523153767 -s 1 -d 2 -p cbr -e 230 -c 2 -a 0 -i 18 -k RTR
+ -t 0.560000000 -s 0 -d 1 -p cbr -e 230 -c 2 -a 0 -i 20 -k RTR 
- -t 0.560000000 -s 0 -d 1 -p cbr -e 230 -c 2 -a 0 -i 20 -k RTR
h -t 0.560000000 -s 0 -d 1 -p cbr -e 230 -c 2 -a 0 -i 20 -k RTR
+ -t 0.560000000 -s 3 -d 4 -p cbr -e 230 -c 2 -a 0 -i 21 -k RTR 
- -t 0.560000000 -s 3 -d 4 -p cbr -e 230 -c 2 -a 0 -i 21 -k RTR
h -t 0.560000000 -s 3 -d 4 -p cbr -e 230 -c 2 -a 0 -i 21 -k RTR
+ -t 0.565153767 -s 1 -d 2 -p cbr -e 230 -c 2 -a 0 -i 20 -k RTR 
- -t 0.565153767 -s 1 -d 2 -p cbr -e 230 -c 2 -a 0 -i 20 -k RTR
h -t 0.565153767 -s 1 -d 2 -p cbr -e 230 -c 2 -a 0 -i 20 -k RTR
+ -t 0.616000000 -s 0 -d 1 -p cbr -e 230 -c 2 -a 0 -i 22 -k RTR 
- -t 0.616000000 -s 0 -d 1 -p cbr -e 230 -c 2 -a 0 -i 22 -k RTR
h -t 0.616000000 -s 0 -d 1 -p cbr -e 230 -c 2 -a 0 -i 22 -k RTR
+ -t 0.616000000 -s 3 -d 4 -p cbr -e 230 -c 2 -a 0 -i 23 -k RTR 
- -t 0.616000000 -s 3 -d 4 -p cbr -e 230 -c 2 -a 0 -i 23 -k RTR
h -t 0.616000000 -s 3 -d 4 -p cbr -e 230 -c 2 -a 0 -i 23 -k RTR
+ -t 0.649153767 -s 1 -d 2 -p cbr -e 230 -c 2 -a 0 -i 22 -k RTR 
- -t 0.649153767 -s 1 -d 2 -p cbr -e 230 -c 2 -a 0 -i 22 -k RTR
h -t 0.649153767 -s 1 -d 2 -p cbr -e 230 -c 2 -a 0 -i 22 -k RTR
+ -t 0.672000000 -s 0 -d 1 -p cbr -e 230 -c 2 -a 0 -i 24 -k RTR 
- -t 0.672000000 -s 0 -d 1 -p cbr -e 230 -c 2 -a 0 -i 24 -k RTR
h -t 0.672000000 -s 0 -d 1 -p cbr -e 230 -c 2 -a 0 -i 24 -k RTR
+ -t 0.672000000 -s 3 -d 4 -p cbr -e 230 -c 2 -a 0 -i 25 -k RTR 
- -t 0.672000000 -s 3 -d 4 -p cbr -e 230 -c 2 -a 0 -i 25 -k RTR
h -t 0.672000000 -s 3 -d 4 -p cbr -e 230 -c 2 -a 0 -i 25 -k RTR
+ -t 0.691153767 -s 1 -d 2 -p cbr -e 230 -c 2 -a 0 -i 24 -k RTR 
- -t 0.691153767 -s 1 -d 2 -p cbr -e 230 -c 2 -a 0 -i 24 -k RTR
h -t 0.691153767 -s 1 -d 2 -p cbr -e 230 -c 2 -a 0 -i 24 -k RTR
+ -t 0.728000000 -s 0 -d 1 -p cbr -e 230 -c 2 -a 0 -i 26 -k RTR 
- -t 0.728000000 -s 0 -d 1 -p cbr -e 230 -c 2 -a 0 -i 26 -k RTR
h -t 0.728000000 -s 0 -d 1 -p cbr -e 230 -c 2 -a 0 -i 26 -k RTR
+ -t 0.728000000 -s 3 -d 4 -p cbr -e 230 -c 2 -a 0 -i 27 -k RTR 
- -t 0.728000000 -s 3 -d 4 -p cbr -e 230 -c 2 -a 0 -i 27 -k RTR
h -t 0.728000000 -s 3 -d 4 -p cbr -e 230 -c 2 -a 0 -i 27 -k RTR
+ -t 0.733153767 -s 1 -d 2 -p cbr -e 230 -c 2 -a 0 -i 26 -k RTR 
- -t 0.733153767 -s 1 -d 2 -p cbr -e 230 -c 2 -a 0 -i 26 -k RTR
h -t 0.733153767 -s 1 -d 2 -p cbr -e 230 -c 2 -a 0 -i 26 -k RTR
+ -t 0.750169789 -s 0 -d -1 -p AODV -e 44 -c 2 -a 0 -i 0 -k RTR 
- -t 0.750169789 -s 0 -d -1 -p AODV -e 44 -c 2 -a 0 -i 0 -k RTR
h -t 0.750169789 -s 0 -d -1 -p AODV -e 44 -c 2 -a 0 -i 0 -k RTR
+ -t 0.757102330 -s 2 -d -1 -p AODV -e 44 -c 2 -a 0 -i 0 -k RTR 
- -t 0.757102330 -s 2 -d -1 -p AODV -e 44 -c 2 -a 0 -i 0 -k RTR
h -t 0.757102330 -s 2 -d -1 -p AODV -e 44 -c 2 -a 0 -i 0 -k RTR
r -t 0.762409767 -s 1 -d -1 -p AODV -e 44 -c 2 -a 0 -i 0 -k RTR
+ -t 0.784000000 -s 0 -d 1 -p cbr -e 230 -c 2 -a 0 -i 28 -k RTR 
- -t 0.784000000 -s 0 -d 1 -p cbr -e 230 -c 2 -a 0 -i 28 -k RTR
h -t 0.784000000 -s 0 -d 1 -p cbr -e 230 -c 2 -a 0 -i 28 -k RTR
+ -t 0.784000000 -s 3 -d 4 -p cbr -e 230 -c 2 -a 0 -i 29 -k RTR 
- -t 0.784000000 -s 3 -d 4 -p cbr -e 230 -c 2 -a 0 -i 29 -k RTR
h -t 0.784000000 -s 3 -d 4 -p cbr -e 230 -c 2 -a 0 -i 29 -k RTR
+ -t 0.794061336 -s 3 -d -1 -p AODV -e 44 -c 2 -a 0 -i 0 -k RTR 
- -t 0.794061336 -s 3 -d -1 -p AODV -e 44 -c 2 -a 0 -i 0 -k RTR
h -t 0.794061336 -s 3 -d -1 -p AODV -e 44 -c 2 -a 0 -i 0 -k RTR
r -t 0.804409400 -s 4 -d -1 -p AODV -e 44 -c 2 -a 0 -i 0 -k RTR
r -t 0.804409792 -s 1 -d -1 -p AODV -e 44 -c 2 -a 0 -i 0 -k RTR
+ -t 0.817153767 -s 1 -d 2 -p cbr -e 230 -c 2 -a 0 -i 28 -k RTR 
- -t 0.817153767 -s 1 -d 2 -p cbr -e 230 -c 2 -a 0 -i 28 -k RTR
h -t 0.817153767 -s 1 -d 2 -p cbr -e 230 -c 2 -a 0 -i 28 -k RTR
+ -t 0.840000000 -s 0 -d 1 -p cbr -e 230 -c 2 -a 0 -i 30 -k RTR 
- -t 0.840000000 -s 0 -d 1 -p cbr -e 230 -c 2 -a 0 -i 30 -k RTR
h -t 0.840000000 -s 0 -d 1 -p cbr -e 230 -c 2 -a 0 -i 30 -k RTR
+ -t 0.840000000 -s 3 -d 4 -p cbr -e 230 -c 2 -a 0 -i 31 -k RTR 
- -t 0.840000000 -s 3 -d 4 -p cbr -e 230 -c 2 -a 0 -i 31 -k RTR
h -t 0.840000000 -s 3 -d 4 -p cbr -e 230 -c 2 -a 0 -i 31 -k RTR
+ -t 0.859153767 -s 1 -d 2 -p cbr -e 230 -c 2 -a 0 -i 30 -k RTR 
- -t 0.859153767 -s 1 -d 2 -p cbr -e 230 -c 2 -a 0 -i 30 -k RTR
h -t 0.859153767 -s 1 -d 2 -p cbr -e 230 -c 2 -a 0 -i 30 -k RTR
+ -t 0.896000000 -s 0 -d 1 -p cbr -e 230 -c 2 -a 0 -i 32 -k RTR 
- -t 0.896000000 -s 0 -d 1 -p cbr -e 230 -c 2 -a 0 -i 32 -k RTR
h -t 0.896000000 -s 0 -d 1 -p cbr -e 230 -c 2 -a 0 -i 32 -k RTR
+ -t 0.896000000 -s 3 -d 4 -p cbr -e 230 -c 2 -a 0 -i 33 -k RTR 
- -t 0.896000000 -s 3 -d 4 -p cbr -e 230 -c 2 -a 0 -i 33 -k RTR
h -t 0.896000000 -s 3 -d 4 -p cbr -e 230 -c 2 -a 0 -i 33 -k RTR
+ -t 0.901153767 -s 1 -d 2 -p cbr -e 230 -c 2 -a 0 -i 32 -k RTR 
- -t 0.901153767 -s 1 -d 2 -p cbr -e 230 -c 2 -a 0 -i 32 -k RTR
h -t 0.901153767 -s 1 -d 2 -p cbr -e 230 -c 2 -a 0 -i 32 -k RTR
+ -t 0.952000000 -s 0 -d 1 -p cbr -e 230 -c 2 -a 0 -i 34 -k RTR 
- -t 0.952000000 -s 0 -d 1 -p cbr -e 230 -c 2 -a 0 -i 34 -k RTR
h -t 0.952000000 -s 0 -d 1 -p cbr -e 230 -c 2 -a 0 -i 34 -k RTR
+ -t 0.952000000 -s 3 -d 4 -p cbr -e 230 -c 2 -a 0 -i 35 -k RTR 
- -t 0.952000000 -s 3 -d 4 -p cbr -e 230 -c 2 -a 0 -i 35 -k RTR
h -t 0.952000000 -s 3 -d 4 -p cbr -e 230 -c 2 -a 0 -i 35 -k RTR
+ -t 0.970586691 -s 4 -d -1 -p AODV -e 44 -c 2 -a 0 -i 0 -k RTR 
- -t 0.970586691 -s 4 -d -1 -p AODV -e 44 -c 2 -a 0 -i 0 -k RTR
h -t 0.970586691 -s 4 -d -1 -p AODV -e 44 -c 2 -a 0 -i 0 -k RTR
r -t 0.972409400 -s 3 -d -1 -p AODV -e 44 -c 2 -a 0 -i 0 -k RTR
+ -t 0.985153767 -s 1 -d 2 -p cbr -e 230 -c 2 -a 0 -i 34 -k RTR 
- -t 0.985153767 -s 1 -d 2 -p cbr -e 230 -c 2 -a 0 -i 34 -k RTR
h -t 0.985153767 -s 1 -d 2 -p cbr -e 230 -c 2 -a 0 -i 34 -k RTR
+ -t 1.008000000 -s 0 -d 1 -p cbr -e 230 -c 2 -a 0 -i 36 -k RTR 
- -t 1.008000000 -s 0 -d 1 -p cbr -e 230 -c 2 -a 0 -i 36 -k RTR
h -t 1.008000000 -s 0 -d 1 -p cbr -e 230 -c 2 -a 0 -i 36 -k RTR
+ -t 1.008000000 -s 3 -d 4 -p cbr -e 230 -c 2 -a 0 -i 37 -k RTR 
- -t 1.008000000 -s 3 -d 4 -p cbr -e 230 -c 2 -a 0 -i 37 -k RTR
h -t 1.008000000 -s 3 -d 4 -p cbr -e 230 -c 2 -a 0 -i 37 -k RTR
+ -t 1.027153767 -s 1 -d 2 -p cbr -e 230 -c 2 -a 0 -i 36 -k RTR 
- -t 1.027153767 -s 1 -d 2 -p cbr -e 230 -c 2 -a 0 -i 36 -k RTR
h -t 1.027153767 -s 1 -d 2 -p cbr -e 230 -c 2 -a 0 -i 36 -k RTR
+ -t 1.027940358 -s 1 -d -1 -p AODV -e 44 -c 2 -a 0 -i 0 -k RTR 
- -t 1.027940358 -s 1 -d -1 -p AODV -e 44 -c 2 -a 0 -i 0 -k RTR
h -t 1.027940358 -s 1 -d -1 -p AODV -e 44 -c 2 -a 0 -i 0 -k RTR
r -t 1.056409767 -s 0 -d -1 -p AODV -e 44 -c 2 -a 0 -i 0 -k RTR
r -t 1.056409767 -s 2 -d -1 -p AODV -e 44 -c 2 -a 0 -i 0 -k RTR
r -t 1.056409792 -s 3 -d -1 -p AODV -e 44 -c 2 -a 0 -i 0 -k RTR
+ -t 1.064000000 -s 0 -d 1 -p cbr -e 230 -c 2 -a 0 -i 38 -k RTR 
- -t 1.064000000 -s 0 -d 1 -p cbr -e 230 -c 2 -a 0 -i 38 -k RTR
h -t 1.064000000 -s 0 -d 1 -p cbr -e 230 -c 2 -a 0 -i 38 -k RTR
+ -t 1.064000000 -s 3 -d 4 -p cbr -e 230 -c 2 -a 0 -i 39 -k RTR 
- -t 1.064000000 -s 3 -d 4 -p cbr -e 230 -c 2 -a 0 -i 39 -k RTR
h -t 1.064000000 -s 3 -d 4 -p cbr -e 230 -c 2 -a 0 -i 39 -k RTR
+ -t 1.069153767 -s 1 -d 2 -p cbr -e 230 -c 2 -a 0 -i 38 -k RTR 
- -t 1.069153767 -s 1 -d 2 -p cbr -e 230 -c 2 -a 0 -i 38 -k RTR
h -t 1.069153767 -s 1 -d 2 -p cbr -e 230 -c 2 -a 0 -i 38 -k RTR
+ -t 1.120000000 -s 0 -d 1 -p cbr -e 230 -c 2 -a 0 -i 40 -k RTR 
- -t 1.120000000 -s 0 -d 1 -p cbr -e 230 -c 2 -a 0 -i 40 -k RTR
h -t 1.120000000 -s 0 -d 1 -p cbr -e 230 -c 2 -a 0 -i 40 -k RTR
+ -t 1.120000000 -s 3 -d 4 -p cbr -e 230 -c 2 -a 0 -i 41 -k RTR 
- -t 1.120000000 -s 3 -d 4 -p cbr -e 230 -c 2 -a 0 -i 41 -k RTR
h -t 1.120000000 -s 3 -d 4 -p cbr -e 230 -c 2 -a 0 -i 41 -k RTR
+ -t 1.153153767 -s 1 -d 2 -p cbr -e 230 -c 2 -a 0 -i 40 -k RTR 
- -t 1.153153767 -s 1 -d 2 -p cbr -e 230 -c 2 -a 0 -i 40 -k RTR
h -t 1.153153767 -s 1 -d 2 -p cbr -e 230 -c 2 -a 0 -i 40 -k RTR
+ -t 1.176000000 -s 0 -d 1 -p cbr -e 230 -c 2 -a 0 -i 42 -k RTR 
- -t 1.176000000 -s 0 -d 1 -p cbr -e 230 -c 2 -a 0 -i 42 -k RTR
h -t 1.176000000 -s 0 -d 1 -p cbr -e 230 -c 2 -a 0 -i 42 -k RTR
+ -t 1.176000000 -s 3 -d 4 -p cbr -e 230 -c 2 -a 0 -i 43 -k RTR 
- -t 1.176000000 -s 3 -d 4 -p cbr -e 230 -c 2 -a 0 -i 43 -k RTR
h -t 1.176000000 -s 3 -d 4 -p cbr -e 230 -c 2 -a 0 -i 43 -k RTR
+ -t 1.195153767 -s 1 -d 2 -p cbr -e 230 -c 2 -a 0 -i 42 -k RTR 
- -t 1.195153767 -s 1 -d 2 -p cbr -e 230 -c 2 -a 0 -i 42 -k RTR
h -t 1.195153767 -s 1 -d 2 -p cbr -e 230 -c 2 -a 0 -i 42 -k RTR
+ -t 1.232000000 -s 0 -d 1 -p cbr -e 230 -c 2 -a 0 -i 44 -k RTR 
- -t 1.232000000 -s 0 -d 1 -p cbr -e 230 -c 2 -a 0 -i 44 -k RTR
h -t 1.232000000 -s 0 -d 1 -p cbr -e 230 -c 2 -a 0 -i 44 -k RTR
+ -t 1.232000000 -s 3 -d 4 -p cbr -e 230 -c 2 -a 0 -i 45 -k RTR 
- -t 1.232000000 -s 3 -d 4 -p cbr -e 230 -c 2 -a 0 -i 45 -k RTR
h -t 1.232000000 -s 3 -d 4 -p cbr -e 230 -c 2 -a 0 -i 45 -k RTR
+ -t 1.237153767 -s 1 -d 2 -p cbr -e 230 -c 2 -a 0 -i 44 -k RTR 
- -t 1.237153767 -s 1 -d 2 -p cbr -e 230 -c 2 -a 0 -i 44 -k RTR
h -t 1.237153767 -s 1 -d 2 -p cbr -e 230 -c 2 -a 0 -i 44 -k RTR
+ -t 1.288000000 -s 0 -d 1 -p cbr -e 230 -c 2 -a 0 -i 46 -k RTR 
- -t 1.288000000 -s 0 -d 1 -p cbr -e 230 -c 2 -a 0 -i 46 -k RTR
h -t 1.288000000 -s 0 -d 1 -p cbr -e 230 -c 2 -a 0 -i 46 -k RTR
+ -t 1.288000000 -s 3 -d 4 -p cbr -e 230 -c 2 -a 0 -i 47 -k RTR 
- -t 1.288000000 -s 3 -d 4 -p cbr -e 230 -c 2 -a 0 -i 47 -k RTR
h -t 1.288000000 -s 3 -d 4 -p cbr -e 230 -c 2 -a 0 -i 47 -k RTR
+ -t 1.321153767 -s 1 -d 2 -p cbr -e 230 -c 2 -a 0 -i 46 -k RTR 
- -t 1.321153767 -s 1 -d 2 -p cbr -e 230 -c 2 -a 0 -i 46 -k RTR
h -t 1.321153767 -s 1 -d 2 -p cbr -e 230 -c 2 -a 0 -i 46 -k RTR
+ -t 1.344000000 -s 0 -d 1 -p cbr -e 230 -c 2 -a 0 -i 48 -k RTR 
- -t 1.344000000 -s 0 -d 1 -p cbr -e 230 -c 2 -a 0 -i 48 -k RTR
h -t 1.344000000 -s 0 -d 1 -p cbr -e 230 -c 2 -a 0 -i 48 -k RTR
+ -t 1.344000000 -s 3 -d 4 -p cbr -e 230 -c 2 -a 0 -i 49 -k RTR 
- -t 1.344000000 -s 3 -d 4 -p cbr -e 230 -c 2 -a 0 -i 49 -k RTR
h -t 1.344000000 -s 3 -d 4 -p cbr -e 230 -c 2 -a 0 -i 49 -k RTR
+ -t 1.363153767 -s 1 -d 2 -p cbr -e 230 -c 2 -a 0 -i 48 -k RTR 
- -t 1.363153767 -s 1 -d 2 -p cbr -e 230 -c 2 -a 0 -i 48 -k RTR
h -t 1.363153767 -s 1 -d 2 -p cbr -e 230 -c 2 -a 0 -i 48 -k RTR
+ -t 1.400000000 -s 0 -d 1 -p cbr -e 230 -c 2 -a 0 -i 50 -k RTR 
- -t 1.400000000 -s 0 -d 1 -p cbr -e 230 -c 2 -a 0 -i 50 -k RTR
h -t 1.400000000 -s 0 -d 1 -p cbr -e 230 -c 2 -a 0 -i 50 -k RTR
+ -t 1.400000000 -s 3 -d 4 -p cbr -e 230 -c 2 -a 0 -i 51 -k RTR 
- -t 1.400000000 -s 3 -d 4 -p cbr -e 230 -c 2 -a 0 -i 51 -k RTR
h -t 1.400000000 -s 3 -d 4 -p cbr -e 230 -c 2 -a 0 -i 51 -k RTR
+ -t 1.405153767 -s 1 -d 2 -p cbr -e 230 -c 2 -a 0 -i 50 -k RTR 
- -t 1.405153767 -s 1 -d 2 -p cbr -e 230 -c 2 -a 0 -i 50 -k RTR
h -t 1.405153767 -s 1 -d 2 -p cbr -e 230 -c 2 -a 0 -i 50 -k RTR
+ -t 1.456000000 -s 0 -d 1 -p cbr -e 230 -c 2 -a 0 -i 52 -k RTR 
- -t 1.456000000 -s 0 -d 1 -p cbr -e 230 -c 2 -a 0 -i 52 -k RTR
h -t 1.456000000 -s 0 -d 1 -p cbr -e 230 -c 2 -a 0 -i 52 -k RTR
+ -t 1.456000000 -s 3 -d 4 -p cbr -e 230 -c 2 -a 0 -i 53 -k RTR 
- -t 1.456000000 -s 3 -d 4 -p cbr -e 230 -c 2 -a 0 -i 53 -k RTR
h -t 1.456000000 -s 3 -d 4 -p cbr -e 230 -c 2 -a 0 -i 53 -k RTR
+ -t 1.489153767 -s 1 -d 2 -p cbr -e 230 -c 2 -a 0 -i 52 -k RTR 
- -t 1.489153767 -s 1 -d 2 -p cbr -e 230 -c 2 -a 0 -i 52 -k RTR
h -t 1.489153767 -s 1 -d 2 -p cbr -e 230 -c 2 -a 0 -i 52 -k RTR
+ -t 1.512000000 -s 0 -d 1 -p cbr -e 230 -c 2 -a 0 -i 54 -k RTR 
- -t 1.512000000 -s 0 -d 1 -p cbr -e 230 -c 2 -a 0 -i 54 -k RTR
h -t 1.512000000 -s 0 -d 1 -p cbr -e 230 -c 2 -a 0 -i 54 -k RTR
+ -t 1.512000000 -s 3 -d 4 -p cbr -e 230 -c 2 -a 0 -i 55 -k RTR 
- -t 1.512000000 -s 3 -d 4 -p cbr -e 230 -c 2 -a 0 -i 55 -k RTR
h -t 1.512000000 -s 3 -d 4 -p cbr -e 230 -c 2 -a 0 -i 55 -k RTR
+ -t 1.531153767 -s 1 -d 2 -p cbr -e 230 -c 2 -a 0 -i 54 -k RTR 
- -t 1.531153767 -s 1 -d 2 -p cbr -e 230 -c 2 -a 0 -i 54 -k RTR
h -t 1.531153767 -s 1 -d 2 -p cbr -e 230 -c 2 -a 0 -i 54 -k RTR
+ -t 1.568000000 -s 0 -d 1 -p cbr -e 230 -c 2 -a 0 -i 56 -k RTR 
- -t 1.568000000 -s 0 -d 1 -p cbr -e 230 -c 2 -a 0 -i 56 -k RTR
h -t 1.568000000 -s 0 -d 1 -p cbr -e 230 -c 2 -a 0 -i 56 -k RTR
+ -t 1.568000000 -s 3 -d 4 -p cbr -e 230 -c 2 -a 0 -i 57 -k RTR 
- -t 1.568000000 -s 3 -d 4 -p cbr -e 230 -c 2 -a 0 -i 57 -k RTR
h -t 1.568000000 -s 3 -d 4 -p cbr -e 230 -c 2 -a 0 -i 57 -k RTR
+ -t 1.573153767 -s 1 -d 2 -p cbr -e 230 -c 2 -a 0 -i 56 -k RTR 
- -t 1.573153767 -s 1 -d 2 -p cbr -e 230 -c 2 -a 0 -i 56 -k RTR
h -t 1.573153767 -s 1 -d 2 -p cbr -e 230 -c 2 -a 0 -i 56 -k RTR
+ -t 1.624000000 -s 0 -d 1 -p cbr -e 230 -c 2 -a 0 -i 58 -k RTR 
- -t 1.624000000 -s 0 -d 1 -p cbr -e 230 -c 2 -a 0 -i 58 -k RTR
h -t 1.624000000 -s 0 -d 1 -p cbr -e 230 -c 2 -a 0 -i 58 -k RTR
+ -t 1.624000000 -s 3 -d 4 -p cbr -e 230 -c 2 -a 0 -i 59 -k RTR 
- -t 1.624000000 -s 3 -d 4 -p cbr -e 230 -c 2 -a 0 -i 59 -k RTR
h -t 1.624000000 -s 3 -d 4 -p cbr -e 230 -c 2 -a 0 -i 59 -k RTR
+ -t 1.656650674 -s 0 -d -1 -p AODV -e 44 -c 2 -a 0 -i 0 -k RTR 
- -t 1.656650674 -s 0 -d -1 -p AODV -e 44 -c 2 -a 0 -i 0 -k RTR
h -t 1.656650674 -s 0 -d -1 -p AODV -e 44 -c 2 -a 0 -i 0 -k RTR
+ -t 1.657153767 -s 1 -d 2 -p cbr -e 230 -c 2 -a 0 -i 58 -k RTR 
- -t 1.657153767 -s 1 -d 2 -p cbr -e 230 -c 2 -a 0 -i 58 -k RTR
h -t 1.657153767 -s 1 -d 2 -p cbr -e 230 -c 2 -a 0 -i 58 -k RTR
+ -t 1.661362212 -s 3 -d -1 -p AODV -e 44 -c 2 -a 0 -i 0 -k RTR 
- -t 1.661362212 -s 3 -d -1 -p AODV -e 44 -c 2 -a 0 -i 0 -k RTR
h -t 1.661362212 -s 3 -d -1 -p AODV -e 44 -c 2 -a 0 -i 0 -k RTR
+ -t 1.680000000 -s 0 -d 1 -p cbr -e 230 -c 2 -a 0 -i 60 -k RTR 
- -t 1.680000000 -s 0 -d 1 -p cbr -e 230 -c 2 -a 0 -i 60 -k RTR
h -t 1.680000000 -s 0 -d 1 -p cbr -e 230 -c 2 -a 0 -i 60 -k RTR
+ -t 1.680000000 -s 3 -d 4 -p cbr -e 230 -c 2 -a 0 -i 61 -k RTR 
- -t 1.680000000 -s 3 -d 4 -p cbr -e 230 -c 2 -a 0 -i 61 -k RTR
h -t 1.680000000 -s 3 -d 4 -p cbr -e 230 -c 2 -a 0 -i 61 -k RTR
r -t 1.686409400 -s 4 -d -1 -p AODV -e 44 -c 2 -a 0 -i 0 -k RTR
r -t 1.686409767 -s 1 -d -1 -p AODV -e 44 -c 2 -a 0 -i 0 -k RTR
+ -t 1.699153767 -s 1 -d 2 -p cbr -e 230 -c 2 -a 0 -i 60 -k RTR 
- -t 1.699153767 -s 1 -d 2 -p cbr -e 230 -c 2 -a 0 -i 60 -k RTR
h -t 1.699153767 -s 1 -d 2 -p cbr -e 230 -c 2 -a 0 -i 60 -k RTR
+ -t 1.736000000 -s 0 -d 1 -p cbr -e 230 -c 2 -a 0 -i 62 -k RTR 
- -t 1.736000000 -s 0 -d 1 -p cbr -e 230 -c 2 -a 0 -i 62 -k RTR
h -t 1.736000000 -s 0 -d 1 -p cbr -e 230 -c 2 -a 0 -i 62 -k RTR
+ -t 1.736000000 -s 3 -d 4 -p cbr -e 230 -c 2 -a 0 -i 63 -k RTR 
- -t 1.736000000 -s 3 -d 4 -p cbr -e 230 -c 2 -a 0 -i 63 -k RTR
h -t 1.736000000 -s 3 -d 4 -p cbr -e 230 -c 2 -a 0 -i 63 -k RTR
+ -t 1.741153767 -s 1 -d 2 -p cbr -e 230 -c 2 -a 0 -i 62 -k RTR 
- -t 1.741153767 -s 1 -d 2 -p cbr -e 230 -c 2 -a 0 -i 62 -k RTR
h -t 1.741153767 -s 1 -d 2 -p cbr -e 230 -c 2 -a 0 -i 62 -k RTR
+ -t 1.792000000 -s 0 -d 1 -p cbr -e 230 -c 2 -a 0 -i 64 -k RTR 
- -t 1.792000000 -s 0 -d 1 -p cbr -e 230 -c 2 -a 0 -i 64 -k RTR
h -t 1.792000000 -s 0 -d 1 -p cbr -e 230 -c 2 -a 0 -i 64 -k RTR
+ -t 1.792000000 -s 3 -d 4 -p cbr -e 230 -c 2 -a 0 -i 65 -k RTR 
- -t 1.792000000 -s 3 -d 4 -p cbr -e 230 -c 2 -a 0 -i 65 -k RTR
h -t 1.792000000 -s 3 -d 4 -p cbr -e 230 -c 2 -a 0 -i 65 -k RTR
+ -t 1.825153767 -s 1 -d 2 -p cbr -e 230 -c 2 -a 0 -i 64 -k RTR 
- -t 1.825153767 -s 1 -d 2 -p cbr -e 230 -c 2 -a 0 -i 64 -k RTR
h -t 1.825153767 -s 1 -d 2 -p cbr -e 230 -c 2 -a 0 -i 64 -k RTR
+ -t 1.848000000 -s 0 -d 1 -p cbr -e 230 -c 2 -a 0 -i 66 -k RTR 
- -t 1.848000000 -s 0 -d 1 -p cbr -e 230 -c 2 -a 0 -i 66 -k RTR
h -t 1.848000000 -s 0 -d 1 -p cbr -e 230 -c 2 -a 0 -i 66 -k RTR
+ -t 1.848000000 -s 3 -d 4 -p cbr -e 230 -c 2 -a 0 -i 67 -k RTR 
- -t 1.848000000 -s 3 -d 4 -p cbr -e 230 -c 2 -a 0 -i 67 -k RTR
h -t 1.848000000 -s 3 -d 4 -p cbr -e 230 -c 2 -a 0 -i 67 -k RTR
+ -t 1.867153767 -s 1 -d 2 -p cbr -e 230 -c 2 -a 0 -i 66 -k RTR 
- -t 1.867153767 -s 1 -d 2 -p cbr -e 230 -c 2 -a 0 -i 66 -k RTR
h -t 1.867153767 -s 1 -d 2 -p cbr -e 230 -c 2 -a 0 -i 66 -k RTR
+ -t 1.904000000 -s 0 -d 1 -p cbr -e 230 -c 2 -a 0 -i 68 -k RTR 
- -t 1.904000000 -s 0 -d 1 -p cbr -e 230 -c 2 -a 0 -i 68 -k RTR
h -t 1.904000000 -s 0 -d 1 -p cbr -e 230 -c 2 -a 0 -i 68 -k RTR
+ -t 1.904000000 -s 3 -d 4 -p cbr -e 230 -c 2 -a 0 -i 69 -k RTR 
- -t 1.904000000 -s 3 -d 4 -p cbr -e 230 -c 2 -a 0 -i 69 -k RTR
h -t 1.904000000 -s 3 -d 4 -p cbr -e 230 -c 2 -a 0 -i 69 -k RTR
+ -t 1.909153767 -s 1 -d 2 -p cbr -e 230 -c 2 -a 0 -i 68 -k RTR 
- -t 1.909153767 -s 1 -d 2 -p cbr -e 230 -c 2 -a 0 -i 68 -k RTR
h -t 1.909153767 -s 1 -d 2 -p cbr -e 230 -c 2 -a 0 -i 68 -k RTR
+ -t 1.915340356 -s 2 -d -1 -p AODV -e 44 -c 2 -a 0 -i 0 -k RTR 
- -t 1.915340356 -s 2 -d -1 -p AODV -e 44 -c 2 -a 0 -i 0 -k RTR
h -t 1.915340356 -s 2 -d -1 -p AODV -e 44 -c 2 -a 0 -i 0 -k RTR
+ -t 1.932479887 -s 1 -d -1 -p AODV -e 44 -c 2 -a 0 -i 0 -k RTR 
- -t 1.932479887 -s 1 -d -1 -p AODV -e 44 -c 2 -a 0 -i 0 -k RTR
h -t 1.932479887 -s 1 -d -1 -p AODV -e 44 -c 2 -a 0 -i 0 -k RTR
r -t 1.938409767 -s 0 -d -1 -p AODV -e 44 -c 2 -a 0 -i 0 -k RTR
r -t 1.938409792 -s 3 -d -1 -p AODV -e 44 -c 2 -a 0 -i 0 -k RTR
+ -t 1.960000000 -s 0 -d 1 -p cbr -e 230 -c 2 -a 0 -i 70 -k RTR 
- -t 1.960000000 -s 0 -d 1 -p cbr -e 230 -c 2 -a 0 -i 70 -k RTR
h -t 1.960000000 -s 0 -d 1 -p cbr -e 230 -c 2 -a 0 -i 70 -k RTR
+ -t 1.960000000 -s 3 -d 4 -p cbr -e 230 -c 2 -a 0 -i 71 -k RTR 
- -t 1.960000000 -s 3 -d 4 -p cbr -e 230 -c 2 -a 0 -i 71 -k RTR
h -t 1.960000000 -s 3 -d 4 -p cbr -e 230 -c 2 -a 0 -i 71 -k RTR
+ -t 1.993153767 -s 1 -d 2 -p cbr -e 230 -c 2 -a 0 -i 70 -k RTR 
- -t 1.993153767 -s 1 -d 2 -p cbr -e 230 -c 2 -a 0 -i 70 -k RTR
h -t 1.993153767 -s 1 -d 2 -p cbr -e 230 -c 2 -a 0 -i 70 -k RTR
+ -t 2.016000000 -s 0 -d 1 -p cbr -e 230 -c 2 -a 0 -i 72 -k RTR 
- -t 2.016000000 -s 0 -d 1 -p cbr -e 230 -c 2 -a 0 -i 72 -k RTR
h -t 2.016000000 -s 0 -d 1 -p cbr -e 230 -c 2 -a 0 -i 72 -k RTR
+ -t 2.016000000 -s 3 -d 4 -p cbr -e 230 -c 2 -a 0 -i 73 -k RTR 
- -t 2.016000000 -s 3 -d 4 -p cbr -e 230 -c 2 -a 0 -i 73 -k RTR
h -t 2.016000000 -s 3 -d 4 -p cbr -e 230 -c 2 -a 0 -i 73 -k RTR
+ -t 2.035153767 -s 1 -d 2 -p cbr -e 230 -c 2 -a 0 -i 72 -k RTR 
- -t 2.035153767 -s 1 -d 2 -p cbr -e 230 -c 2 -a 0 -i 72 -k RTR
h -t 2.035153767 -s 1 -d 2 -p cbr -e 230 -c 2 -a 0 -i 72 -k RTR
+ -t 2.040019263 -s 4 -d -1 -p AODV -e 44 -c 2 -a 0 -i 0 -k RTR 
- -t 2.040019263 -s 4 -d -1 -p AODV -e 44 -c 2 -a 0 -i 0 -k RTR
h -t 2.040019263 -s 4 -d -1 -p AODV -e 44 -c 2 -a 0 -i 0 -k RTR
r -t 2.064409400 -s 3 -d -1 -p AODV -e 44 -c 2 -a 0 -i 0 -k RTR
+ -t 2.072000000 -s 0 -d 1 -p cbr -e 230 -c 2 -a 0 -i 74 -k RTR 
- -t 2.072000000 -s 0 -d 1 -p cbr -e 230 -c 2 -a 0 -i 74 -k RTR
h -t 2.072000000 -s 0 -d 1 -p cbr -e 230 -c 2 -a 0 -i 74 -k RTR
+ -t 2.072000000 -s 3 -d 4 -p cbr -e 230 -c 2 -a 0 -i 75 -k RTR 
- -t 2.072000000 -s 3 -d 4 -p cbr -e 230 -c 2 -a 0 -i 75 -k RTR
h -t 2.072000000 -s 3 -d 4 -p cbr -e 230 -c 2 -a 0 -i 75 -k RTR
+ -t 2.077153767 -s 1 -d 2 -p cbr -e 230 -c 2 -a 0 -i 74 -k RTR 
- -t 2.077153767 -s 1 -d 2 -p cbr -e 230 -c 2 -a 0 -i 74 -k RTR
h -t 2.077153767 -s 1 -d 2 -p cbr -e 230 -c 2 -a 0 -i 74 -k RTR
+ -t 2.128000000 -s 0 -d 1 -p cbr -e 230 -c 2 -a 0 -i 76 -k RTR 
- -t 2.128000000 -s 0 -d 1 -p cbr -e 230 -c 2 -a 0 -i 76 -k RTR
h -t 2.128000000 -s 0 -d 1 -p cbr -e 230 -c 2 -a 0 -i 76 -k RTR
+ -t 2.128000000 -s 3 -d 4 -p cbr -e 230 -c 2 -a 0 -i 77 -k RTR 
- -t 2.128000000 -s 3 -d 4 -p cbr -e 230 -c 2 -a 0 -i 77 -k RTR
h -t 2.128000000 -s 3 -d 4 -p cbr -e 230 -c 2 -a 0 -i 77 -k RTR
+ -t 2.161153767 -s 1 -d 2 -p cbr -e 230 -c 2 -a 0 -i 76 -k RTR 
- -t 2.161153767 -s 1 -d 2 -p cbr -e 230 -c 2 -a 0 -i 76 -k RTR
h -t 2.161153767 -s 1 -d 2 -p cbr -e 230 -c 2 -a 0 -i 76 -k RTR
+ -t 2.184000000 -s 0 -d 1 -p cbr -e 230 -c 2 -a 0 -i 78 -k RTR 
- -t 2.184000000 -s 0 -d 1 -p cbr -e 230 -c 2 -a 0 -i 78 -k RTR
h -t 2.184000000 -s 0 -d 1 -p cbr -e 230 -c 2 -a 0 -i 78 -k RTR
+ -t 2.184000000 -s 3 -d 4 -p cbr -e 230 -c 2 -a 0 -i 79 -k RTR 
- -t 2.184000000 -s 3 -d 4 -p cbr -e 230 -c 2 -a 0 -i 79 -k RTR
h -t 2.184000000 -s 3 -d 4 -p cbr -e 230 -c 2 -a 0 -i 79 -k RTR
+ -t 2.203153767 -s 1 -d 2 -p cbr -e 230 -c 2 -a 0 -i 78 -k RTR 
- -t 2.203153767 -s 1 -d 2 -p cbr -e 230 -c 2 -a 0 -i 78 -k RTR
h -t 2.203153767 -s 1 -d 2 -p cbr -e 230 -c 2 -a 0 -i 78 -k RTR
+ -t 2.240000000 -s 0 -d 1 -p cbr -e 230 -c 2 -a 0 -i 80 -k RTR 
- -t 2.240000000 -s 0 -d 1 -p cbr -e 230 -c 2 -a 0 -i 80 -k RTR
h -t 2.240000000 -s 0 -d 1 -p cbr -e 230 -c 2 -a 0 -i 80 -k RTR
+ -t 2.240000000 -s 3 -d 4 -p cbr -e 230 -c 2 -a 0 -i 81 -k RTR 
- -t 2.240000000 -s 3 -d 4 -p cbr -e 230 -c 2 -a 0 -i 81 -k RTR
h -t 2.240000000 -s 3 -d 4 -p cbr -e 230 -c 2 -a 0 -i 81 -k RTR
+ -t 2.245153767 -s 1 -d 2 -p cbr -e 230 -c 2 -a 0 -i 80 -k RTR 
- -t 2.245153767 -s 1 -d 2 -p cbr -e 230 -c 2 -a 0 -i 80 -k RTR
h -t 2.245153767 -s 1 -d 2 -p cbr -e 230 -c 2 -a 0 -i 80 -k RTR
+ -t 2.296000000 -s 0 -d 1 -p cbr -e 230 -c 2 -a 0 -i 82 -k RTR 
- -t 2.296000000 -s 0 -d 1 -p cbr -e 230 -c 2 -a 0 -i 82 -k RTR
h -t 2.296000000 -s 0 -d 1 -p cbr -e 230 -c 2 -a 0 -i 82 -k RTR
+ -t 2.296000000 -s 3 -d 4 -p cbr -e 230 -c 2 -a 0 -i 83 -k RTR 
- -t 2.296000000 -s 3 -d 4 -p cbr -e 230 -c 2 -a 0 -i 83 -k RTR
h -t 2.296000000 -s 3 -d 4 -p cbr -e 230 -c 2 -a 0 -i 83 -k RTR
+ -t 2.329153767 -s 1 -d 2 -p cbr -e 230 -c 2 -a 0 -i 82 -k RTR 
- -t 2.329153767 -s 1 -d 2 -p cbr -e 230 -c 2 -a 0 -i 82 -k RTR
h -t 2.329153767 -s 1 -d 2 -p cbr -e 230 -c 2 -a 0 -i 82 -k RTR
+ -t 2.352000000 -s 0 -d 1 -p cbr -e 230 -c 2 -a 0 -i 84 -k RTR 
- -t 2.352000000 -s 0 -d 1 -p cbr -e 230 -c 2 -a 0 -i 84 -k RTR
h -t 2.352000000 -s 0 -d 1 -p cbr -e 230 -c 2 -a 0 -i 84 -k RTR