n -t * -s 0  -x 200 -y 800 -Z 0 -z 10  -v circle -c black
n -t * -s 1  -x 200 -y 570 -Z 0 -z 10  -v circle -c black
n -t * -s 2  -x 200 -y 340 -Z 0 -z 10  -v circle -c black
n -t * -s 3  -x 430 -y 630 -Z 0 -z 10  -v circle -c black
n -t * -s 4  -x 550 -y 630 -Z 0 -z 10  -v circle -c black
V -t * -v 1.0a5 -a 0
W -t * -x 1000 -y 1000
A -t * -n 1 -p 0 -o 0x7fffffff -c 30 -a 1
A -t * -h 1 -m 1073741823 -s 0
+ -t 0.000000000 -s 0 -d -1 -p AODV -e 44 -c 2 -a 0 -i 0 -k RTR 
- -t 0.000000000 -s 0 -d -1 -p AODV -e 44 -c 2 -a 0 -i 0 -k RTR
h -t 0.000000000 -s 0 -d -1 -p AODV -e 44 -c 2 -a 0 -i 0 -k RTR
+ -t 0.000000000 -s 1 -d -1 -p AODV -e 44 -c 2 -a 0 -i 0 -k RTR 
- -t 0.000000000 -s 1 -d -1 -p AODV -e 44 -c 2 -a 0 -i 0 -k RTR
h -t 0.000000000 -s 1 -d -1 -p AODV -e 44 -c 2 -a 0 -i 0 -k RTR
+ -t 0.000000000 -s 2 -d -1 -p AODV -e 44 -c 2 -a 0 -i 0 -k RTR 
- -t 0.000000000 -s 2 -d -1 -p AODV -e 44 -c 2 -a 0 -i 0 -k RTR
h -t 0.000000000 -s 2 -d -1 -p AODV -e 44 -c 2 -a 0 -i 0 -k RTR
+ -t 0.000000000 -s 3 -d -1 -p AODV -e 44 -c 2 -a 0 -i 0 -k RTR 
- -t 0.000000000 -s 3 -d -1 -p AODV -e 44 -c 2 -a 0 -i 0 -k RTR
h -t 0.000000000 -s 3 -d -1 -p AODV -e 44 -c 2 -a 0 -i 0 -k RTR
+ -t 0.000000000 -s 4 -d -1 -p AODV -e 44 -c 2 -a 0 -i 0 -k RTR 
- -t 0.000000000 -s 4 -d -1 -p AODV -e 44 -c 2 -a 0 -i 0 -k RTR
h -t 0.000000000 -s 4 -d -1 -p AODV -e 44 -c 2 -a 0 -i 0 -k RTR
+ -t 0.000000000 -s 0 -d -1 -p AODV -e 48 -c 2 -a 0 -i 0 -k RTR 
- -t 0.000000000 -s 0 -d -1 -p AODV -e 48 -c 2 -a 0 -i 0 -k RTR
h -t 0.000000000 -s 0 -d -1 -p AODV -e 48 -c 2 -a 0 -i 0 -k RTR
+ -t 0.000000000 -s 3 -d -1 -p AODV -e 48 -c 2 -a 0 -i 0 -k RTR 
- -t 0.000000000 -s 3 -d -1 -p AODV -e 48 -c 2 -a 0 -i 0 -k RTR
h -t 0.000000000 -s 3 -d -1 -p AODV -e 48 -c 2 -a 0 -i 0 -k RTR
r -t 0.012425400 -s 4 -d -1 -p AODV -e 48 -c 2 -a 0 -i 0 -k RTR
+ -t 0.012425400 -s 4 -d 3 -p AODV -e 44 -c 2 -a 0 -i 0 -k RTR 
- -t 0.012425400 -s 4 -d 3 -p AODV -e 44 -c 2 -a 0 -i 0 -k RTR
h -t 0.012425400 -s 4 -d 3 -p AODV -e 44 -c 2 -a 0 -i 0 -k RTR
r -t 0.012425767 -s 1 -d -1 -p AODV -e 48 -c 2 -a 0 -i 0 -k RTR
+ -t 0.020417321 -s 1 -d -1 -p AODV -e 48 -c 2 -a 0 -i 0 -k RTR 
- -t 0.020417321 -s 1 -d -1 -p AODV -e 48 -c 2 -a 0 -i 0 -k RTR
h -t 0.020417321 -s 1 -d -1 -p AODV -e 48 -c 2 -a 0 -i 0 -k RTR
r -t 0.048425767 -s 0 -d -1 -p AODV -e 48 -c 2 -a 0 -i 0 -k RTR
r -t 0.048425767 -s 2 -d -1 -p AODV -e 48 -c 2 -a 0 -i 0 -k RTR
+ -t 0.048425767 -s 2 -d 1 -p AODV -e 44 -c 2 -a 0 -i 0 -k RTR 
- -t 0.048425767 -s 2 -d 1 -p AODV -e 44 -c 2 -a 0 -i 0 -k RTR
h -t 0.048425767 -s 2 -d 1 -p AODV -e 44 -c 2 -a 0 -i 0 -k RTR
+ -t 0.090409400 -s 3 -d 4 -p cbr -e 230 -c 2 -a 0 -i 1 -k RTR 
- -t 0.090409400 -s 3 -d 4 -p cbr -e 230 -c 2 -a 0 -i 1 -k RTR
h -t 0.090409400 -s 3 -d 4 -p cbr -e 230 -c 2 -a 0 -i 1 -k RTR
+ -t 0.096409767 -s 1 -d 0 -p AODV -e 44 -c 2 -a 0 -i 0 -k RTR 
- -t 0.096409767 -s 1 -d 0 -p AODV -e 44 -c 2 -a 0 -i 0 -k RTR
h -t 0.096409767 -s 1 -d 0 -p AODV -e 44 -c 2 -a 0 -i 0 -k RTR
+ -t 0.100409400 -s 3 -d 4 -p cbr -e 230 -c 2 -a 0 -i 3 -k RTR 
- -t 0.100409400 -s 3 -d 4 -p cbr -e 230 -c 2 -a 0 -i 3 -k RTR
h -t 0.100409400 -s 3 -d 4 -p cbr -e 230 -c 2 -a 0 -i 3 -k RTR
+ -t 0.112000000 -s 3 -d 4 -p cbr -e 230 -c 2 -a 0 -i 5 -k RTR 
- -t 0.112000000 -s 3 -d 4 -p cbr -e 230 -c 2 -a 0 -i 5 -k RTR
h -t 0.112000000 -s 3 -d 4 -p cbr -e 230 -c 2 -a 0 -i 5 -k RTR
+ -t 0.168000000 -s 3 -d 4 -p cbr -e 230 -c 2 -a 0 -i 7 -k RTR 
- -t 0.168000000 -s 3 -d 4 -p cbr -e 230 -c 2 -a 0 -i 7 -k RTR
h -t 0.168000000 -s 3 -d 4 -p cbr -e 230 -c 2 -a 0 -i 7 -k RTR
+ -t 0.174409767 -s 0 -d 1 -p cbr -e 230 -c 2 -a 0 -i 0 -k RTR 
- -t 0.174409767 -s 0 -d 1 -p cbr -e 230 -c 2 -a 0 -i 0 -k RTR
h -t 0.174409767 -s 0 -d 1 -p cbr -e 230 -c 2 -a 0 -i 0 -k RTR
+ -t 0.184409767 -s 0 -d 1 -p cbr -e 230 -c 2 -a 0 -i 2 -k RTR 
- -t 0.184409767 -s 0 -d 1 -p cbr -e 230 -c 2 -a 0 -i 2 -k RTR
h -t 0.184409767 -s 0 -d 1 -p cbr -e 230 -c 2 -a 0 -i 2 -k RTR
+ -t 0.194409767 -s 0 -d 1 -p cbr -e 230 -c 2 -a 0 -i 4 -k RTR 
- -t 0.194409767 -s 0 -d 1 -p cbr -e 230 -c 2 -a 0 -i 4 -k RTR
h -t 0.194409767 -s 0 -d 1 -p cbr -e 230 -c 2 -a 0 -i 4 -k RTR
+ -t 0.204409767 -s 0 -d 1 -p cbr -e 230 -c 2 -a 0 -i 6 -k RTR 
- -t 0.204409767 -s 0 -d 1 -p cbr -e 230 -c 2 -a 0 -i 6 -k RTR
h -t 0.204409767 -s 0 -d 1 -p cbr -e 230 -c 2 -a 0 -i 6 -k RTR
+ -t 0.224000000 -s 0 -d 1 -p cbr -e 230 -c 2 -a 0 -i 8 -k RTR 
- -t 0.224000000 -s 0 -d 1 -p cbr -e 230 -c 2 -a 0 -i 8 -k RTR
h -t 0.224000000 -s 0 -d 1 -p cbr -e 230 -c 2 -a 0 -i 8 -k RTR
+ -t 0.224000000 -s 3 -d 4 -p cbr -e 230 -c 2 -a 0 -i 9 -k RTR 
- -t 0.224000000 -s 3 -d 4 -p cbr -e 230 -c 2 -a 0 -i 9 -k RTR
h -t 0.224000000 -s 3 -d 4 -p cbr -e 230 -c 2 -a 0 -i 9 -k RTR
+ -t 0.280000000 -s 0 -d 1 -p cbr -e 230 -c 2 -a 0 -i 10 -k RTR 
- -t 0.280000000 -s 0 -d 1 -p cbr -e 230 -c 2 -a 0 -i 10 -k RTR
h -t 0.280000000 -s 0 -d 1 -p cbr -e 230 -c 2 -a 0 -i 10 -k RTR
+ -t 0.280000000 -s 3 -d 4 -p cbr -e 230 -c 2 -a 0 -i 11 -k RTR 
- -t 0.280000000 -s 3 -d 4 -p cbr -e 230 -c 2 -a 0 -i 11 -k RTR
h -t 0.280000000 -s 3 -d 4 -p cbr -e 230 -c 2 -a 0 -i 11 -k RTR
+ -t 0.336000000 -s 0 -d 1 -p cbr -e 230 -c 2 -a 0 -i 12 -k RTR 
- -t 0.336000000 -s 0 -d 1 -p cbr -e 230 -c 2 -a 0 -i 12 -k RTR
h -t 0.336000000 -s 0 -d 1 -p cbr -e 230 -c 2 -a 0 -i 12 -k RTR
+ -t 0.336000000 -s 3 -d 4 -p cbr -e 230 -c 2 -a 0 -i 13 -k RTR 
- -t 0.336000000 -s 3 -d 4 -p cbr -e 230 -c 2 -a 0 -i 13 -k RTR
h -t 0.336000000 -s 3 -d 4 -p cbr -e 230 -c 2 -a 0 -i 13 -k RTR
+ -t 0.392000000 -s 0 -d 1 -p cbr -e 230 -c 2 -a 0 -i 14 -k RTR 
- -t 0.392000000 -s 0 -d 1 -p cbr -e 230 -c 2 -a 0 -i 14 -k RTR
h -t 0.392000000 -s 0 -d 1 -p cbr -e 230 -c 2 -a 0 -i 14 -k RTR
+ -t 0.392000000 -s 3 -d 4 -p cbr -e 230 -c 2 -a 0 -i 15 -k RTR 
- -t 0.392000000 -s 3 -d 4 -p cbr -e 230 -c 2 -a 0 -i 15 -k RTR
h -t 0.392000000 -s 3 -d 4 -p cbr -e 230 -c 2 -a 0 -i 15 -k RTR
+ -t 0.448000000 -s 0 -d 1 -p cbr -e 230 -c 2 -a 0 -i 16 -k RTR 
- -t 0.448000000 -s 0 -d 1 -p cbr -e 230 -c 2 -a 0 -i 16 -k RTR
h -t 0.448000000 -s 0 -d 1 -p cbr -e 230 -c 2 -a 0 -i 16 -k RTR
+ -t 0.448000000 -s 3 -d 4 -p cbr -e 230 -c 2 -a 0 -i 17 -k RTR 
- -t 0.448000000 -s 3 -d 4 -p cbr -e 230 -c 2 -a 0 -i 17 -k RTR
h -t 0.448000000 -s 3 -d 4 -p cbr -e 230 -c 2 -a 0 -i 17 -k RTR
+ -t 0.504000000 -s 0 -d 1 -p cbr -e 230 -c 2 -a 0 -i 18 -k RTR 
- -t 0.504000000 -s 0 -d 1 -p cbr -e 230 -c 2 -a 0 -i 18 -k RTR
h -t 0.504000000 -s 0 -d 1 -p cbr -e 230 -c 2 -a 0 -i 18 -k RTR
+ -t 0.504000000 -s 3 -d 4 -p cbr -e 230 -c 2 -a 0 -i 19 -k RTR 
- -t 0.504000000 -s 3 -d 4 -p cbr -e 230 -c 2 -a 0 -i 19 -k RTR
h -t 0.504000000 -s 3 -d 4 -p cbr -e 230 -c 2 -a 0 -i 19 -k RTR
+ -t 0.560000000 -s 0 -d 1 -p cbr -e 230 -c 2 -a 0 -i 20 -k RTR 
- -t 0.560000000 -s 0 -d 1 -p cbr -e 230 -c 2 -a 0 -i 20 -k RTR
h -t 0.560000000 -s 0 -d 1 -p cbr -e 230 -c 2 -a 0 -i 20 -k RTR
+ -t 0.560000000 -s 3 -d 4 -p cbr -e 230 -c 2 -a 0 -i 21 -k RTR 
- -t 0.560000000 -s 3 -d 4 -p cbr -e 230 -c 2 -a 0 -i 21 -k RTR
h -t 0.560000000 -s 3 -d 4 -p cbr -e 230 -c 2 -a 0 -i 21 -k RTR
+ -t 0.616000000 -s 0 -d 1 -p cbr -e 230 -c 2 -a 0 -i 22 -k RTR 
- -t 0.616000000 -s 0 -d 1 -p cbr -e 230 -c 2 -a 0 -i 22 -k RTR
h -t 0.616000000 -s 0 -d 1 -p cbr -e 230 -c 2 -a 0 -i 22 -k RTR
+ -t 0.616000000 -s 3 -d 4 -p cbr -e 230 -c 2 -a 0 -i 23 -k RTR 
- -t 0.616000000 -s 3 -d 4 -p cbr -e 230 -c 2 -a 0 -i 23 -k RTR
h -t 0.616000000 -s 3 -d 4 -p cbr -e 230 -c 2 -a 0 -i 23 -k RTR
+ -t 0.672000000 -s 0 -d 1 -p cbr -e 230 -c 2 -a 0 -i 24 -k RTR 
- -t 0.672000000 -s 0 -d 1 -p cbr -e 230 -c 2 -a 0 -i 24 -k RTR
h -t 0.672000000 -s 0 -d 1 -p cbr -e 230 -c 2 -a 0 -i 24 -k RTR
+ -t 0.672000000 -s 3 -d 4 -p cbr -e 230 -c 2 -a 0 -i 25 -k RTR 
- -t 0.672000000 -s 3 -d 4 -p cbr -e 230 -c 2 -a 0 -i 25 -k RTR
h -t 0.672000000 -s 3 -d 4 -p cbr -e 230 -c 2 -a 0 -i 25 -k RTR
+ -t 0.728000000 -s 0 -d 1 -p cbr -e 230 -c 2 -a 0 -i 26 -k RTR 
- -t 0.728000000 -s 0 -d 1 -p cbr -e 230 -c 2 -a 0 -i 26 -k RTR
h -t 0.728000000 -s 0 -d 1 -p cbr -e 230 -c 2 -a 0 -i 26 -k RTR
+ -t 0.728000000 -s 3 -d 4 -p cbr -e 230 -c 2 -a 0 -i 27 -k RTR 
- -t 0.728000000 -s 3 -d 4 -p cbr -e 230 -c 2 -a 0 -i 27 -k RTR
h -t 0.728000000 -s 3 -d 4 -p cbr -e 230 -c 2 -a 0 -i 27 -k RTR
+ -t 0.750169789 -s 0 -d -1 -p AODV -e 44 -c 2 -a 0 -i 0 -k RTR 
- -t 0.750169789 -s 0 -d -1 -p AODV -e 44 -c 2 -a 0 -i 0 -k RTR
h -t 0.750169789 -s 0 -d -1 -p AODV -e 44 -c 2 -a 0 -i 0 -k RTR
+ -t 0.757102330 -s 2 -d -1 -p AODV -e 44 -c 2 -a 0 -i 0 -k RTR 
- -t 0.757102330 -s 2 -d -1 -p AODV -e 44 -c 2 -a 0 -i 0 -k RTR
h -t 0.757102330 -s 2 -d -1 -p AODV -e 44 -c 2 -a 0 -i 0 -k RTR
r -t 0.762409767 -s 1 -d -1 -p AODV -e 44 -c 2 -a 0 -i 0 -k RTR
+ -t 0.784000000 -s 0 -d 1 -p cbr -e 230 -c 2 -a 0 -i 28 -k RTR 
- -t 0.784000000 -s 0 -d 1 -p cbr -e 230 -c 2 -a 0 -i 28 -k RTR
h -t 0.784000000 -s 0 -d 1 -p cbr -e 230 -c 2 -a 0 -i 28 -k RTR
+ -t 0.784000000 -s 3 -d 4 -p cbr -e 230 -c 2 -a 0 -i 29 -k RTR 
- -t 0.784000000 -s 3 -d 4 -p cbr -e 230 -c 2 -a 0 -i 29 -k RTR
h -t 0.784000000 -s 3 -d 4 -p cbr -e 230 -c 2 -a 0 -i 29 -k RTR
+ -t 0.794061336 -s 3 -d -1 -p AODV -e 44 -c 2 -a 0 -i 0 -k RTR 
- -t 0.794061336 -s 3 -d -1 -p AODV -e 44 -c 2 -a 0 -i 0 -k RTR
h -t 0.794061336 -s 3 -d -1 -p AODV -e 44 -c 2 -a 0 -i 0 -k RTR
+ -t 0.840000000 -s 0 -d 1 -p cbr -e 230 -c 2 -a 0 -i 30 -k RTR 
- -t 0.840000000 -s 0 -d 1 -p cbr -e 230 -c 2 -a 0 -i 30 -k RTR
h -t 0.840000000 -s 0 -d 1 -p cbr -e 230 -c 2 -a 0 -i 30 -k RTR
+ -t 0.840000000 -s 3 -d 4 -p cbr -e 230 -c 2 -a 0 -i 31 -k RTR 
- -t 0.840000000 -s 3 -d 4 -p cbr -e 230 -c 2 -a 0 -i 31 -k RTR
h -t 0.840000000 -s 3 -d 4 -p cbr -e 230 -c 2 -a 0 -i 31 -k RTR
+ -t 0.896000000 -s 0 -d 1 -p cbr -e 230 -c 2 -a 0 -i 32 -k RTR 
- -t 0.896000000 -s 0 -d 1 -p cbr -e 230 -c 2 -a 0 -i 32 -k RTR
h -t 0.896000000 -s 0 -d 1 -p cbr -e 230 -c 2 -a 0 -i 32 -k RTR
+ -t 0.896000000 -s 3 -d 4 -p cbr -e 230 -c 2 -a 0 -i 33 -k RTR 
- -t 0.896000000 -s 3 -d 4 -p cbr -e 230 -c 2 -a 0 -i 33 -k RTR
h -t 0.896000000 -s 3 -d 4 -p cbr -e 230 -c 2 -a 0 -i 33 -k RTR
+ -t 0.952000000 -s 0 -d 1 -p cbr -e 230 -c 2 -a 0 -i 34 -k RTR 
- -t 0.952000000 -s 0 -d 1 -p cbr -e 230 -c 2 -a 0 -i 34 -k RTR
h -t 0.952000000 -s 0 -d 1 -p cbr -e 230 -c 2 -a 0 -i 34 -k RTR
+ -t 0.952000000 -s 3 -d 4 -p cbr -e 230 -c 2 -a 0 -i 35 -k RTR 
- -t 0.952000000 -s 3 -d 4 -p cbr -e 230 -c 2 -a 0 -i 35 -k RTR
h -t 0.952000000 -s 3 -d 4 -p cbr -e 230 -c 2 -a 0 -i 35 -k RTR
+ -t 0.970586691 -s 4 -d -1 -p AODV -e 44 -c 2 -a 0 -i 0 -k RTR 
- -t 0.970586691 -s 4 -d -1 -p AODV -e 44 -c 2 -a 0 -i 0 -k RTR
h -t 0.970586691 -s 4 -d -1 -p AODV -e 44 -c 2 -a 0 -i 0 -k RTR
r -t 0.972409400 -s 3 -d -1 -p AODV -e 44 -c 2 -a 0 -i 0 -k RTR
+ -t 1.008000000 -s 0 -d 1 -p cbr -e 230 -c 2 -a 0 -i 36 -k RTR 
- -t 1.008000000 -s 0 -d 1 -p cbr -e 230 -c 2 -a 0 -i 36 -k RTR
h -t 1.008000000 -s 0 -d 1 -p cbr -e 230 -c 2 -a 0 -i 36 -k RTR
+ -t 1.008000000 -s 3 -d 4 -p cbr -e 230 -c 2 -a 0 -i 37 -k RTR 
- -t 1.008000000 -s 3 -d 4 -p cbr -e 230 -c 2 -a 0 -i 37 -k RTR
h -t 1.008000000 -s 3 -d 4 -p cbr -e 230 -c 2 -a 0 -i 37 -k RTR
+ -t 1.027940358 -s 1 -d -1 -p AODV -e 44 -c 2 -a 0 -i 0 -k RTR 
- -t 1.027940358 -s 1 -d -1 -p AODV -e 44 -c 2 -a 0 -i 0 -k RTR
h -t 1.027940358 -s 1 -d -1 -p AODV -e 44 -c 2 -a 0 -i 0 -k RTR
r -t 1.056409767 -s 0 -d -1 -p AODV -e 44 -c 2 -a 0 -i 0 -k RTR
r -t 1.056409767 -s 2 -d -1 -p AODV -e 44 -c 2 -a 0 -i 0 -k RTR
r -t 1.056409792 -s 3 -d -1 -p AODV -e 44 -c 2 -a 0 -i 0 -k RTR
+ -t 1.064000000 -s 0 -d 1 -p cbr -e 230 -c 2 -a 0 -i 38 -k RTR 
- -t 1.064000000 -s 0 -d 1 -p cbr -e 230 -c 2 -a 0 -i 38 -k RTR
h -t 1.064000000 -s 0 -d 1 -p cbr -e 230 -c 2 -a 0 -i 38 -k RTR
+ -t 1.064000000 -s 3 -d 4 -p cbr -e 230 -c 2 -a 0 -i 39 -k RTR 
- -t 1.064000000 -s 3 -d 4 -p cbr -e 230 -c 2 -a 0 -i 39 -k RTR
h -t 1.064000000 -s 3 -d 4 -p cbr -e 230 -c 2 -a 0 -i 39 -k RTR
+ -t 1.120000000 -s 0 -d 1 -p cbr -e 230 -c 2 -a 0 -i 40 -k RTR 
- -t 1.120000000 -s 0 -d 1 -p cbr -e 230 -c 2 -a 0 -i 40 -k RTR
h -t 1.120000000 -s 0 -d 1 -p cbr -e 230 -c 2 -a 0 -i 40 -k RTR
+ -t 1.120000000 -s 3 -d 4 -p cbr -e 230 -c 2 -a 0 -i 41 -k RTR 
- -t 1.120000000 -s 3 -d 4 -p cbr -e 230 -c 2 -a 0 -i 41 -k RTR
h -t 1.120000000 -s 3 -d 4 -p cbr -e 230 -c 2 -a 0 -i 41 -k RTR
+ -t 1.176000000 -s 0 -d 1 -p cbr -e 230 -c 2 -a 0 -i 42 -k RTR 
- -t 1.176000000 -s 0 -d 1 -p cbr -e 230 -c 2 -a 0 -i 42 -k RTR
h -t 1.176000000 -s 0 -d 1 -p cbr -e 230 -c 2 -a 0 -i 42 -k RTR
+ -t 1.176000000 -s 3 -d 4 -p cbr -e 230 -c 2 -a 0 -i 43 -k RTR 
- -t 1.176000000 -s 3 -d 4 -p cbr -e 230 -c 2 -a 0 -i 43 -k RTR
h -t 1.176000000 -s 3 -d 4 -p cbr -e 230 -c 2 -a 0 -i 43 -k RTR
+ -t 1.232000000 -s 0 -d 1 -p cbr -e 230 -c 2 -a 0 -i 44 -k RTR 
- -t 1.232000000 -s 0 -d 1 -p cbr -e 230 -c 2 -a 0 -i 44 -k RTR
h -t 1.232000000 -s 0 -d 1 -p cbr -e 230 -c 2 -a 0 -i 44 -k RTR
+ -t 1.232000000 -s 3 -d 4 -p cbr -e 230 -c 2 -a 0 -i 45 -k RTR 
- -t 1.232000000 -s 3 -d 4 -p cbr -e 230 -c 2 -a 0 -i 45 -k RTR
h -t 1.232000000 -s 3 -d 4 -p cbr -e 230 -c 2 -a 0 -i 45 -k RTR
+ -t 1.288000000 -s 0 -d 1 -p cbr -e 230 -c 2 -a 0 -i 46 -k RTR 
- -t 1.288000000 -s 0 -d 1 -p cbr -e 230 -c 2 -a 0 -i 46 -k RTR
h -t 1.288000000 -s 0 -d 1 -p cbr -e 230 -c 2 -a 0 -i 46 -k RTR
+ -t 1.288000000 -s 3 -d 4 -p cbr -e 230 -c 2 -a 0 -i 47 -k RTR 
- -t 1.288000000 -s 3 -d 4 -p cbr -e 230 -c 2 -a 0 -i 47 -k RTR
h -t 1.288000000 -s 3 -d 4 -p cbr -e 230 -c 2 -a 0 -i 47 -k RTR
+ -t 1.344000000 -s 0 -d 1 -p cbr -e 230 -c 2 -a 0 -i 48 -k RTR 
- -t 1.344000000 -s 0 -d 1 -p cbr -e 230 -c 2 -a 0 -i 48 -k RTR
h -t 1.344000000 -s 0 -d 1 -p cbr -e 230 -c 2 -a 0 -i 48 -k RTR
+ -t 1.344000000 -s 3 -d 4 -p cbr -e 230 -c 2 -a 0 -i 49 -k RTR 
- -t 1.344000000 -s 3 -d 4 -p cbr -e 230 -c 2 -a 0 -i 49 -k RTR
h -t 1.344000000 -s 3 -d 4 -p cbr -e 230 -c 2 -a 0 -i 49 -k RTR
+ -t 1.400000000 -s 0 -d 1 -p cbr -e 230 -c 2 -a 0 -i 50 -k RTR 
- -t 1.400000000 -s 0 -d 1 -p cbr -e 230 -c 2 -a 0 -i 50 -k RTR
h -t 1.400000000 -s 0 -d 1 -p cbr -e 230 -c 2 -a 0 -i 50 -k RTR
+ -t 1.400000000 -s 3 -d 4 -p cbr -e 230 -c 2 -a 0 -i 51 -k RTR 
- -t 1.400000000 -s 3 -d 4 -p cbr -e 230 -c 2 -a 0 -i 51 -k RTR
h -t 1.400000000 -s 3 -d 4 -p cbr -e 230 -c 2 -a 0 -i 51 -k RTR
+ -t 1.456000000 -s 0 -d 1 -p cbr -e 230 -c 2 -a 0 -i 52 -k RTR 
- -t 1.456000000 -s 0 -d 1 -p cbr -e 230 -c 2 -a 0 -i 52 -k RTR
h -t 1.456000000 -s 0 -d 1 -p cbr -e 230 -c 2 -a 0 -i 52 -k RTR
+ -t 1.456000000 -s 3 -d 4 -p cbr -e 230 -c 2 -a 0 -i 53 -k RTR 
- -t 1.456000000 -s 3 -d 4 -p cbr -e 230 -c 2 -a 0 -i 53 -k RTR
h -t 1.456000000 -s 3 -d 4 -p cbr -e 230 -c 2 -a 0 -i 53 -k RTR
+ -t 1.512000000 -s 0 -d 1 -p cbr -e 230 -c 2 -a 0 -i 54 -k RTR 
- -t 1.512000000 -s 0 -d 1 -p cbr -e 230 -c 2 -a 0 -i 54 -k RTR
h -t 1.512000000 -s 0 -d 1 -p cbr -e 230 -c 2 -a 0 -i 54 -k RTR
+ -t 1.512000000 -s 3 -d 4 -p cbr -e 230 -c 2 -a 0 -i 55 -k RTR 
- -t 1.512000000 -s 3 -d 4 -p cbr -e 230 -c 2 -a 0 -i 55 -k RTR
h -t 1.512000000 -s 3 -d 4 -p cbr -e 230 -c 2 -a 0 -i 55 -k RTR
+ -t 1.568000000 -s 0 -d 1 -p cbr -e 230 -c 2 -a 0 -i 56 -k RTR 
- -t 1.568000000 -s 0 -d 1 -p cbr -e 230 -c 2 -a 0 -i 56 -k RTR
h -t 1.568000000 -s 0 -d 1 -p cbr -e 230 -c 2 -a 0 -i 56 -k RTR
+ -t 1.568000000 -s 3 -d 4 -p cbr -e 230 -c 2 -a 0 -i 57 -k RTR 
- -t 1.568000000 -s 3 -d 4 -p cbr -e 230 -c 2 -a 0 -i 57 -k RTR
h -t 1.568000000 -s 3 -d 4 -p cbr -e 230 -c 2 -a 0 -i 57 -k RTR
+ -t 1.624000000 -s 0 -d 1 -p cbr -e 230 -c 2 -a 0 -i 58 -k RTR 
- -t 1.624000000 -s 0 -d 1 -p cbr -e 230 -c 2 -a 0 -i 58 -k RTR
h -t 1.624000000 -s 0 -d 1 -p cbr -e 230 -c 2 -a 0 -i 58 -k RTR
+ -t 1.624000000 -s 3 -d 4 -p cbr -e 230 -c 2 -a 0 -i 59 -k RTR 
- -t 1.624000000 -s 3 -d 4 -p cbr -e 230 -c 2 -a 0 -i 59 -k RTR
h -t 1.624000000 -s 3 -d 4 -p cbr -e 230 -c 2 -a 0 -i 59 -k RTR
+ -t 1.656650674 -s 0 -d -1 -p AODV -e 44 -c 2 -a 0 -i 0 -k RTR 
- -t 1.656650674 -s 0 -d -1 -p AODV -e 44 -c 2 -a 0 -i 0 -k RTR
h -t 1.656650674 -s 0 -d -1 -p AODV -e 44 -c 2 -a 0 -i 0 -k RTR
+ -t 1.661362212 -s 3 -d -1 -p AODV -e 44 -c 2 -a 0 -i 0 -k RTR 
- -t 1.661362212 -s 3 -d -1 -p AODV -e 44 -c 2 -a 0 -i 0 -k RTR
h -t 1.661362212 -s 3 -d -1 -p AODV -e 44 -c 2 -a 0 -i 0 -k RTR
+ -t 1.680000000 -s 0 -d 1 -p cbr -e 230 -c 2 -a 0 -i 60 -k RTR 
- -t 1.680000000 -s 0 -d 1 -p cbr -e 230 -c 2 -a 0 -i 60 -k RTR
h -t 1.680000000 -s 0 -d 1 -p cbr -e 230 -c 2 -a 0 -i 60 -k RTR
+ -t 1.680000000 -s 3 -d 4 -p cbr -e 230 -c 2 -a 0 -i 61 -k RTR 
- -t 1.680000000 -s 3 -d 4 -p cbr -e 230 -c 2 -a 0 -i 61 -k RTR
h -t 1.680000000 -s 3 -d 4 -p cbr -e 230 -c 2 -a 0 -i 61 -k RTR
+ -t 1.736000000 -s 0 -d 1 -p cbr -e 230 -c 2 -a 0 -i 62 -k RTR 
- -t 1.736000000 -s 0 -d 1 -p cbr -e 230 -c 2 -a 0 -i 62 -k RTR
h -t 1.736000000 -s 0 -d 1 -p cbr -e 230 -c 2 -a 0 -i 62 -k RTR
+ -t 1.736000000 -s 3 -d 4 -p cbr -e 230 -c 2 -a 0 -i 63 -k RTR 
- -t 1.736000000 -s 3 -d 4 -p cbr -e 230 -c 2 -a 0 -i 63 -k RTR
h -t 1.736000000 -s 3 -d 4 -p cbr -e 230 -c 2 -a 0 -i 63 -k RTR
+ -t 1.792000000 -s 0 -d 1 -p cbr -e 230 -c 2 -a 0 -i 64 -k RTR 
- -t 1.792000000 -s 0 -d 1 -p cbr -e 230 -c 2 -a 0 -i 64 -k RTR
h -t 1.792000000 -s 0 -d 1 -p cbr -e 230 -c 2 -a 0 -i 64 -k RTR
+ -t 1.792000000 -s 3 -d 4 -p cbr -e 230 -c 2 -a 0 -i 65 -k RTR 
- -t 1.792000000 -s 3 -d 4 -p cbr -e 230 -c 2 -a 0 -i 65 -k RTR
h -t 1.792000000 -s 3 -d 4 -p cbr -e 230 -c 2 -a 0 -i 65 -k RTR
+ -t 1.848000000 -s 0 -d 1 -p cbr -e 230 -c 2 -a 0 -i 66 -k RTR 
- -t 1.848000000 -s 0 -d 1 -p cbr -e 230 -c 2 -a 0 -i 66 -k RTR
h -t 1.848000000 -s 0 -d 1 -p cbr -e 230 -c 2 -a 0 -i 66 -k RTR
+ -t 1.848000000 -s 3 -d 4 -p cbr -e 230 -c 2 -a 0 -i 67 -k RTR 
- -t 1.848000000 -s 3 -d 4 -p cbr -e 230 -c 2 -a 0 -i 67 -k RTR
h -t 1.848000000 -s 3 -d 4 -p cbr -e 230 -c 2 -a 0 -i 67 -k RTR
+ -t 1.904000000 -s 0 -d 1 -p cbr -e 230 -c 2 -a 0 -i 68 -k RTR 
- -t 1.904000000 -s 0 -d 1 -p cbr -e 230 -c 2 -a 0 -i 68 -k RTR
h -t 1.904000000 -s 0 -d 1 -p cbr -e 230 -c 2 -a 0 -i 68 -k RTR
+ -t 1.904000000 -s 3 -d 4 -p cbr -e 230 -c 2 -a 0 -i 69 -k RTR 
- -t 1.904000000 -s 3 -d 4 -p cbr -e 230 -c 2 -a 0 -i 69 -k RTR
h -t 1.904000000 -s 3 -d 4 -p cbr -e 230 -c 2 -a 0 -i 69 -k RTR
+ -t 1.915340356 -s 2 -d -1 -p AODV -e 44 -c 2 -a 0 -i 0 -k RTR 
- -t 1.915340356 -s 2 -d -1 -p AODV -e 44 -c 2 -a 0 -i 0 -k RTR
h -t 1.915340356 -s 2 -d -1 -p AODV -e 44 -c 2 -a 0 -i 0 -k RTR
+ -t 1.932479887 -s 1 -d -1 -p AODV -e 44 -c 2 -a 0 -i 0 -k RTR 
- -t 1.932479887 -s 1 -d -1 -p AODV -e 44 -c 2 -a 0 -i 0 -k RTR
h -t 1.932479887 -s 1 -d -1 -p AODV -e 44 -c 2 -a 0 -i 0 -k RTR
r -t 1.938409767 -s 0 -d -1 -p AODV -e 44 -c 2 -a 0 -i 0 -k RTR
r -t 1.938409792 -s 3 -d -1 -p AODV -e 44 -c 2 -a 0 -i 0 -k RTR
+ -t 1.960000000 -s 0 -d 1 -p cbr -e 230 -c 2 -a 0 -i 70 -k RTR 
- -t 1.960000000 -s 0 -d 1 -p cbr -e 230 -c 2 -a 0 -i 70 -k RTR
h -t 1.960000000 -s 0 -d 1 -p cbr -e 230 -c 2 -a 0 -i 70 -k RTR
+ -t 1.960000000 -s 3 -d 4 -p cbr -e 230 -c 2 -a 0 -i 71 -k RTR 
- -t 1.960000000 -s 3 -d 4 -p cbr -e 230 -c 2 -a 0 -i 71 -k RTR
h -t 1.960000000 -s 3 -d 4 -p cbr -e 230 -c 2 -a 0 -i 71 -k RTR
+ -t 2.016000000 -s 0 -d 1 -p cbr -e 230 -c 2 -a 0 -i 72 -k RTR 
- -t 2.016000000 -s 0 -d 1 -p cbr -e 230 -c 2 -a 0 -i 72 -k RTR
h -t 2.016000000 -s 0 -d 1 -p cbr -e 230 -c 2 -a 0 -i 72 -k RTR
+ -t 2.016000000 -s 3 -d 4 -p cbr -e 230 -c 2 -a 0 -i 73 -k RTR 
- -t 2.016000000 -s 3 -d 4 -p cbr -e 230 -c 2 -a 0 -i 73 -k RTR
h -t 2.016000000 -s 3 -d 4 -p cbr -e 230 -c 2 -a 0 -i 73 -k RTR
+ -t 2.040019263 -s 4 -d -1 -p AODV -e 44 -c 2 -a 0 -i 0 -k RTR 
- -t 2.040019263 -s 4 -d -1 -p AODV -e 44 -c 2 -a 0 -i 0 -k RTR
h -t 2.040019263 -s 4 -d -1 -p AODV -e 44 -c 2 -a 0 -i 0 -k RTR
r -t 2.064409400 -s 3 -d -1 -p AODV -e 44 -c 2 -a 0 -i 0 -k RTR
+ -t 2.072000000 -s 0 -d 1 -p cbr -e 230 -c 2 -a 0 -i 74 -k RTR 
- -t 2.072000000 -s 0 -d 1 -p cbr -e 230 -c 2 -a 0 -i 74 -k RTR
h -t 2.072000000 -s 0 -d 1 -p cbr -e 230 -c 2 -a 0 -i 74 -k RTR
+ -t 2.072000000 -s 3 -d 4 -p cbr -e 230 -c 2 -a 0 -i 75 -k RTR 
- -t 2.072000000 -s 3 -d 4 -p cbr -e 230 -c 2 -a 0 -i 75 -k RTR
h -t 2.072000000 -s 3 -d 4 -p cbr -e 230 -c 2 -a 0 -i 75 -k RTR
+ -t 2.128000000 -s 0 -d 1 -p cbr -e 230 -c 2 -a 0 -i 76 -k RTR 
- -t 2.128000000 -s 0 -d 1 -p cbr -e 230 -c 2 -a 0 -i 76 -k RTR
h -t 2.128000000 -s 0 -d 1 -p cbr -e 230 -c 2 -a 0 -i 76 -k RTR
+ -t 2.128000000 -s 3 -d 4 -p cbr -e 230 -c 2 -a 0 -i 77 -k RTR 
- -t 2.128000000 -s 3 -d 4 -p cbr -e 230 -c 2 -a 0 -i 77 -k RTR
h -t 2.128000000 -s 3 -d 4 -p cbr -e 230 -c 2 -a 0 -i 77 -k RTR
+ -t 2.184000000 -s 0 -d 1 -p cbr -e 230 -c 2 -a 0 -i 78 -k RTR 
- -t 2.184000000 -s 0 -d 1 -p cbr -e 230 -c 2 -a 0 -i 78 -k RTR
h -t 2.184000000 -s 0 -d 1 -p cbr -e 230 -c 2 -a 0 -i 78 -k RTR
+ -t 2.184000000 -s 3 -d 4 -p cbr -e 230 -c 2 -a 0 -i 79 -k RTR 
- -t 2.184000000 -s 3 -d 4 -p cbr -e 230 -c 2 -a 0 -i 79 -k RTR
h -t 2.184000000 -s 3 -d 4 -p cbr -e 230 -c 2 -a 0 -i 79 -k RTR
+ -t 2.240000000 -s 0 -d 1 -p cbr -e 230 -c 2 -a 0 -i 80 -k RTR 
- -t 2.240000000 -s 0 -d 1 -p cbr -e 230 -c 2 -a 0 -i 80 -k RTR
h -t 2.240000000 -s 0 -d 1 -p cbr -e 230 -c 2 -a 0 -i 80 -k RTR
+ -t 2.240000000 -s 3 -d 4 -p cbr -e 230 -c 2 -a 0 -i 81 -k RTR 
- -t 2.240000000 -s 3 -d 4 -p cbr -e 230 -c 2 -a 0 -i 81 -k RTR
h -t 2.240000000 -s 3 -d 4 -p cbr -e 230 -c 2 -a 0 -i 81 -k RTR
+ -t 2.296000000 -s 0 -d 1 -p cbr -e 230 -c 2 -a 0 -i 82 -k RTR 
- -t 2.296000000 -s 0 -d 1 -p cbr -e 230 -c 2 -a 0 -i 82 -k RTR
h -t 2.296000000 -s 0 -d 1 -p cbr -e 230 -c 2 -a 0 -i 82 -k RTR
+ -t 2.296000000 -s 3 -d 4 -p cbr -e 230 -c 2 -a 0 -i 83 -k RTR 
- -t 2.296000000 -s 3 -d 4 -p cbr -e 230 -c 2 -a 0 -i 83 -k RTR
h -t 2.296000000 -s 3 -d 4 -p cbr -e 230 -c 2 -a 0 -i 83 -k RTR
+ -t 2.352000000 -s 0 -d 1 -p cbr -e 230 -c 2 -a 0 -i 84 -k RTR 
- -t 2.352000000 -s 0 -d 1 -p cbr -e 230 -c 2 -a 0 -i 84 -k RTR
h -t 2.352000000 -s 0 -d 1 -p cbr -e 230 -c 2 -a 0 -i 84 -k RTR
+ -t 2.352000000 -s 3 -d 4 -p cbr -e 230 -c 2 -a 0 -i 85 -k RTR 
- -t 2.352000000 -s 3 -d 4 -p cbr -e 230 -c 2 -a 0 -i 85 -k RTR
h -t 2.352000000 -s 3 -d 4 -p cbr -e 230 -c 2 -a 0 -i 85 -k RTR
+ -t 2.408000000 -s 0 -d 1 -p cbr -e 230 -c 2 -a 0 -i 86 -k RTR 
- -t 2.408000000 -s 0 -d 1 -p cbr -e 230 -c 2 -a 0 -i 86 -k RTR
h -t 2.408000000 -s 0 -d 1 -p cbr -e 230 -c 2 -a 0 -i 86 -k RTR
+ -t 2.408000000 -s 3 -d 4 -p cbr -e 230 -c 2 -a 0 -i 87 -k RTR 
- -t 2.408000000 -s 3 -d 4 -p cbr -e 230 -c 2 -a 0 -i 87 -k RTR
h -t 2.408000000 -s 3 -d 4 -p cbr -e 230 -c 2 -a 0 -i 87 -k RTR
+ -t 2.464000000 -s 0 -d 1 -p cbr -e 230 -c 2 -a 0 -i 88 -k RTR 
- -t 2.464000000 -s 0 -d 1 -p cbr -e 230 -c 2 -a 0 -i 88 -k RTR
h -t 2.464000000 -s 0 -d 1 -p cbr -e 230 -c 2 -a 0 -i 88 -k RTR
+ -t 2.464000000 -s 3 -d 4 -p cbr -e 230 -c 2 -a 0 -i 89 -k RTR 
- -t 2.464000000 -s 3 -d 4 -p cbr -e 230 -c 2 -a 0 -i 89 -k RTR
h -t 2.464000000 -s 3 -d 4 -p cbr -e 230 -c 2 -a 0 -i 89 -k RTR
+ -t 2.493434915 -s 3 -d -1 -p AODV -e 44 -c 2 -a 0 -i 0 -k RTR 
- -t 2.493434915 -s 3 -d -1 -p AODV -e 44 -c 2 -a 0 -i 0 -k RTR
h -t 2.493434915 -s 3 -d -1 -p AODV -e 44 -c 2 -a 0 -i 0 -k RTR
+ -t 2.520000000 -s 0 -d 1 -p cbr -e 230 -c 2 -a 0 -i 90 -k RTR 
- -t 2.520000000 -s 0 -d 1 -p cbr -e 230 -c 2 -a 0 -i 90 -k RTR
h -t 2.520000000 -s 0 -d 1 -p cbr -e 230 -c 2 -a 0 -i 90 -k RTR
+ -t 2.520000000 -s 3 -d 4 -p cbr -e 230 -c 2 -a 0 -i 91 -k RTR 
- -t 2.520000000 -s 3 -d 4 -p cbr -e 230 -c 2 -a 0 -i 91 -k RTR
h -t 2.520000000 -s 3 -d 4 -p cbr -e 230 -c 2 -a 0 -i 91 -k RTR
+ -t 2.576000000 -s 0 -d 1 -p cbr -e 230 -c 2 -a 0 -i 92 -k RTR 
- -t 2.576000000 -s 0 -d 1 -p cbr -e 230 -c 2 -a 0 -i 92 -k RTR
h -t 2.576000000 -s 0 -d 1 -p cbr -e 230 -c 2 -a 0 -i 92 -k RTR
+ -t 2.576000000 -s 3 -d 4 -p cbr -e 230 -c 2 -a 0 -i 93 -k RTR 
- -t 2.576000000 -s 3 -d 4 -p cbr -e 230 -c 2 -a 0 -i 93 -k RTR
h -t 2.576000000 -s 3 -d 4 -p cbr -e 230 -c 2 -a 0 -i 93 -k RTR
+ -t 2.632000000 -s 0 -d 1 -p cbr -e 230 -c 2 -a 0 -i 94 -k RTR 
- -t 2.632000000 -s 0 -d 1 -p cbr -e 230 -c 2 -a 0 -i 94 -k RTR
h -t 2.632000000 -s 0 -d 1 -p cbr -e 230 -c 2 -a 0 -i 94 -k RTR
+ -t 2.632000000 -s 3 -d 4 -p cbr -e 230 -c 2 -a 0 -i 95 -k RTR 
- -t 2.632000000 -s 3 -d 4 -p cbr -e 230 -c 2 -a 0 -i 95 -k RTR
h -t 2.632000000 -s 3 -d 4 -p cbr -e 230 -c 2 -a 0 -i 95 -k RTR
d -t 2.632025000 -s 3 -d 4 -p cbr -e 230 -c 2 -a 0 -i 95 -k IFQ
+ -t 2.686737635 -s 2 -d -1 -p AODV -e 44 -c 2 -a 0 -i 0 -k RTR 
- -t 2.686737635 -s 2 -d -1 -p AODV -e 44 -c 2 -a 0 -i 0 -k RTR
h -t 2.686737635 -s 2 -d -1 -p AODV -e 44 -c 2 -a 0 -i 0 -k RTR
+ -t 2.688000000 -s 0 -d 1 -p cbr -e 230 -c 2 -a 0 -i 96 -k RTR 
- -t 2.688000000 -s 0 -d 1 -p cbr -e 230 -c 2 -a 0 -i 96 -k RTR
h -t 2.688000000 -s 0 -d 1 -p cbr -e 230 -c 2 -a 0 -i 96 -k RTR
+ -t 2.688000000 -s 3 -d 4 -p cbr -e 230 -c 2 -a 0 -i 97 -k RTR 
- -t 2.688000000 -s 3 -d 4 -p cbr -e 230 -c 2 -a 0 -i 97 -k RTR
h -t 2.688000000 -s 3 -d 4 -p cbr -e 230 -c 2 -a 0 -i 97 -k RTR
d -t 2.688025000 -s 0 -d 1 -p cbr -e 230 -c 2 -a 0 -i 96 -k IFQ
d -t 2.688025000 -s 3 -d 4 -p cbr -e 230 -c 2 -a 0 -i 97 -k IFQ
r -t 2.694409767 -s 1 -d -1 -p AODV -e 44 -c 2 -a 0 -i 0 -k RTR
+ -t 2.744000000 -s 0 -d 1 -p cbr -e 230 -c 2 -a 0 -i 98 -k RTR 
- -t 2.744000000 -s 0 -d 1 -p cbr -e 230 -c 2 -a 0 -i 98 -k RTR
h -t 2.744000000 -s 0 -d 1 -p cbr -e 230 -c 2 -a 0 -i 98 -k RTR
+ -t 2.744000000 -s 3 -d 4 -p cbr -e 230 -c 2 -a 0 -i 99 -k RTR 
- -t 2.744000000 -s 3 -d 4 -p cbr -e 230 -c 2 -a 0 -i 99 -k RTR
h -t 2.744000000 -s 3 -d 4 -p cbr -e 230 -c 2 -a 0 -i 99 -k RTR
d -t 2.744025000 -s 0 -d 1 -p cbr -e 230 -c 2 -a 0 -i 98 -k IFQ
d -t 2.744025000 -s 3 -d 4 -p cbr -e 230 -c 2 -a 0 -i 99 -k IFQ
+ -t 2.800000000 -s 0 -d 1 -p cbr -e 230 -c 2 -a 0 -i 100 -k RTR 
- -t 2.800000000 -s 0 -d 1 -p cbr -e 230 -c 2 -a 0 -i 100 -k RTR
h -t 2.800000000 -s 0 -d 1 -p cbr -e 230 -c 2 -a 0 -i 100 -k RTR
+ -t 2.800000000 -s 3 -d 4 -p cbr -e 230 -c 2 -a 0 -i 101 -k RTR 
- -t 2.800000000 -s 3 -d 4 -p cbr -e 230 -c 2 -a 0 -i 101 -k RTR
h -t 2.800000000 -s 3 -d 4 -p cbr -e 230 -c 2 -a 0 -i 101 -k RTR
d -t 2.800025000 -s 0 -d 1 -p cbr -e 230 -c 2 -a 0 -i 100 -k IFQ
d -t 2.800025000 -s 3 -d 4 -p cbr -e 230 -c 2 -a 0 -i 101 -k IFQ
+ -t 2.824812443 -s 0 -d -1 -p AODV -e 44 -c 2 -a 0 -i 0 -k RTR 
- -t 2.824812443 -s 0 -d -1 -p AODV -e 44 -c 2 -a 0 -i 0 -k RTR
h -t 2.824812443 -s 0 -d -1 -p AODV -e 44 -c 2 -a 0 -i 0 -k RTR
d -t 2.824837443 -s 0 -d 1 -p cbr -e 230 -c 2 -a 0 -i 94 -k IFQ
+ -t 2.846923387 -s 4 -d -1 -p AODV -e 44 -c 2 -a 0 -i 0 -k RTR 
- -t 2.846923387 -s 4 -d -1 -p AODV -e 44 -c 2 -a 0 -i 0 -k RTR
h -t 2.846923387 -s 4 -d -1 -p AODV -e 44 -c 2 -a 0 -i 0 -k RTR
+ -t 2.856000000 -s 0 -d 1 -p cbr -e 230 -c 2 -a 0 -i 102 -k RTR 
- -t 2.856000000 -s 0 -d 1 -p cbr -e 230 -c 2 -a 0 -i 102 -k RTR
h -t 2.856000000 -s 0 -d 1 -p cbr -e 230 -c 2 -a 0 -i 102 -k RTR
+ -t 2.856000000 -s 3 -d 4 -p cbr -e 230 -c 2 -a 0 -i 103 -k RTR 
- -t 2.856000000 -s 3 -d 4 -p cbr -e 230 -c 2 -a 0 -i 103 -k RTR
h -t 2.856000000 -s 3 -d 4 -p cbr -e 230 -c 2 -a 0 -i 103 -k RTR
d -t 2.856025000 -s 0 -d 1 -p cbr -e 230 -c 2 -a 0 -i 102 -k IFQ
d -t 2.856025000 -s 3 -d 4 -p cbr -e 230 -c 2 -a 0 -i 103 -k IFQ
r -t 2.862409400 -s 3 -d -1 -p AODV -e 44 -c 2 -a 0 -i 0 -k RTR
+ -t 2.912000000 -s 0 -d 1 -p cbr -e 230 -c 2 -a 0 -i 104 -k RTR 
- -t 2.912000000 -s 0 -d 1 -p cbr -e 230 -c 2 -a 0 -i 104 -k RTR
h -t 2.912000000 -s 0 -d 1 -p cbr -e 230 -c 2 -a 0 -i 104 -k RTR
+ -t 2.912000000 -s 3 -d 4 -p cbr -e 230 -c 2 -a 0 -i 105 -k RTR 
- -t 2.912000000 -s 3 -d 4 -p cbr -e 230 -c 2 -a 0 -i 105 -k RTR
h -t 2.912000000 -s 3 -d 4 -p cbr -e 230 -c 2 -a 0 -i 105 -k RTR
d -t 2.912025000 -s 0 -d 1 -p cbr -e 230 -c 2 -a 0 -i 104 -k IFQ
d -t 2.912025000 -s 3 -d 4 -p cbr -e 230 -c 2 -a 0 -i 105 -k IFQ
+ -t 2.968000000 -s 0 -d 1 -p cbr -e 230 -c 2 -a 0 -i 106 -k RTR 
- -t 2.968000000 -s 0 -d 1 -p cbr -e 230 -c 2 -a 0 -i 106 -k RTR
h -t 2.968000000 -s 0 -d 1 -p cbr -e 230 -c 2 -a 0 -i 106 -k RTR
+ -t 2.968000000 -s 3 -d 4 -p cbr -e 230 -c 2 -a 0 -i 107 -k RTR 
- -t 2.968000000 -s 3 -d 4 -p cbr -e 230 -c 2 -a 0 -i 107 -k RTR
h -t 2.968000000 -s 3 -d 4 -p cbr -e 230 -c 2 -a 0 -i 107 -k RTR
d -t 2.968025000 -s 0 -d 1 -p cbr -e 230 -c 2 -a 0 -i 106 -k IFQ
d -t 2.968025000 -s 3 -d 4 -p cbr -e 230 -c 2 -a 0 -i 107 -k IFQ
+ -t 3.002513716 -s 1 -d -1 -p AODV -e 44 -c 2 -a 0 -i 0 -k RTR 
- -t 3.002513716 -s 1 -d -1 -p AODV -e 44 -c 2 -a 0 -i 0 -k RTR
h -t 3.002513716 -s 1 -d -1 -p AODV -e 44 -c 2 -a 0 -i 0 -k RTR
+ -t 3.024000000 -s 0 -d 1 -p cbr -e 230 -c 2 -a 0 -i 108 -k RTR 
- -t 3.024000000 -s 0 -d 1 -p cbr -e 230 -c 2 -a 0 -i 108 -k RTR
h -t 3.024000000 -s 0 -d 1 -p cbr -e 230 -c 2 -a 0 -i 108 -k RTR
+ -t 3.024000000 -s 3 -d 4 -p cbr -e 230 -c 2 -a 0 -i 109 -k RTR 
- -t 3.024000000 -s 3 -d 4 -p cbr -e 230 -c 2 -a 0 -i 109 -k RTR
h -t 3.024000000 -s 3 -d 4 -p cbr -e 230 -c 2 -a 0 -i 109 -k RTR
d -t 3.024025000 -s 0 -d 1 -p cbr -e 230 -c 2 -a 0 -i 108 -k IFQ
d -t 3.024025000 -s 3 -d 4 -p cbr -e 230 -c 2 -a 0 -i 109 -k IFQ
r -t 3.030409767 -s 0 -d -1 -p AODV -e 44 -c 2 -a 0 -i 0 -k RTR
r -t 3.030409767 -s 2 -d -1 -p AODV -e 44 -c 2 -a 0 -i 0 -k RTR
r -t 3.030409792 -s 3 -d -1 -p AODV -e 44 -c 2 -a 0 -i 0 -k RTR
+ -t 3.080000000 -s 0 -d 1 -p cbr -e 230 -c 2 -a 0 -i 110 -k RTR 
- -t 3.080000000 -s 0 -d 1 -p cbr -e 230 -c 2 -a 0 -i 110 -k RTR
h -t 3.080000000 -s 0 -d 1 -p cbr -e 230 -c 2 -a 0 -i 110 -k RTR
+ -t 3.080000000 -s 3 -d 4 -p cbr -e 230 -c 2 -a 0 -i 111 -k RTR 
- -t 3.080000000 -s 3 -d 4 -p cbr -e 230 -c 2 -a 0 -i 111 -k RTR
h -t 3.080000000 -s 3 -d 4 -p cbr -e 230 -c 2 -a 0 -i 111 -k RTR
d -t 3.080025000 -s 0 -d 1 -p cbr -e 230 -c 2 -a 0 -i 110 -k IFQ
d -t 3.080025000 -s 3 -d 4 -p cbr -e 230 -c 2 -a 0 -i 111 -k IFQ
+ -t 3.136000000 -s 0 -d 1 -p cbr -e 230 -c 2 -a 0 -i 112 -k RTR 
- -t 3.136000000 -s 0 -d 1 -p cbr -e 230 -c 2 -a 0 -i 112 -k RTR
h -t 3.136000000 -s 0 -d 1 -p cbr -e 230 -c 2 -a 0 -i 112 -k RTR
+ -t 3.136000000 -s 3 -d 4 -p cbr -e 230 -c 2 -a 0 -i 113 -k RTR 
- -t 3.136000000 -s 3 -d 4 -p cbr -e 230 -c 2 -a 0 -i 113 -k RTR
h -t 3.136000000 -s 3 -d 4 -p cbr -e 230 -c 2 -a 0 -i 113 -k RTR
d -t 3.136025000 -s 0 -d 1 -p cbr -e 230 -c 2 -a 0 -i 112 -k IFQ
d -t 3.136025000 -s 3 -d 4 -p cbr -e 230 -c 2 -a 0 -i 113 -k IFQ
+ -t 3.192000000 -s 0 -d 1 -p cbr -e 230 -c 2 -a 0 -i 114 -k RTR 
- -t 3.192000000 -s 0 -d 1 -p cbr -e 230 -c 2 -a 0 -i 114 -k RTR