s 0.012000000 _0_ MAC  --- 0 AODV 100 [0 ffffffff 0 0] ------- [0:255 -1:255 30 0] [0x2 1 1 [3 0] [0 4]] (REQUEST)
r 0.012400767 _1_ MAC  --- 0 AODV 48 [0 ffffffff 0 0] ------- [0:255 -1:255 30 0] [0x2 1 1 [3 0] [0 4]] (REQUEST)
r 0.012401533 _2_ MAC  --- 0 AODV 48 [0 ffffffff 0 0] ------- [0:255 -1:255 30 0] [0x2 1 1 [3 0] [0 4]] (REQUEST)
s 0.018000000 _1_ MAC  --- 0 AODV 100 [0 ffffffff 1 0] ------- [1:255 -1:255 29 0] [0x2 2 1 [3 0] [0 4]] (REQUEST)
r 0.018400767 _0_ MAC  --- 0 AODV 48 [0 ffffffff 1 0] ------- [1:255 -1:255 29 0] [0x2 2 1 [3 0] [0 4]] (REQUEST)
r 0.018400767 _2_ MAC  --- 0 AODV 48 [0 ffffffff 1 0] ------- [1:255 -1:255 29 0] [0x2 2 1 [3 0] [0 4]] (REQUEST)
r 0.018401567 _3_ MAC  --- 0 AODV 48 [0 ffffffff 1 0] ------- [1:255 -1:255 29 0] [0x2 2 1 [3 0] [0 4]] (REQUEST)
s 0.048000000 _2_ MAC  --- 0 AODV 100 [0 ffffffff 2 0] ------- [2:255 -1:255 28 0] [0x2 3 1 [3 0] [0 4]] (REQUEST)
r 0.048400767 _1_ MAC  --- 0 AODV 48 [0 ffffffff 2 0] ------- [2:255 -1:255 28 0] [0x2 3 1 [3 0] [0 4]] (REQUEST)
r 0.048400800 _3_ MAC  --- 0 AODV 48 [0 ffffffff 2 0] ------- [2:255 -1:255 28 0] [0x2 3 1 [3 0] [0 4]] (REQUEST)
r 0.048401533 _0_ MAC  --- 0 AODV 48 [0 ffffffff 2 0] ------- [2:255 -1:255 28 0] [0x2 3 1 [3 0] [0 4]] (REQUEST)
s 0.060000000 _3_ MAC  --- 0 ARP 80 [0 ffffffff 3 0] ------- [REQUEST 3/3 0/2]
r 0.060320800 _2_ MAC  --- 0 ARP 28 [0 ffffffff 3 0] ------- [REQUEST 3/3 0/2]
r 0.060321567 _1_ MAC  --- 0 ARP 28 [0 ffffffff 3 0] ------- [REQUEST 3/3 0/2]
s 0.072000000 _2_ MAC  --- 0 ARP 80 [5 3 2 0] ------- [REPLY 2/2 3/3]
D 0.072320767 _1_ MAC  --- 0 ARP 80 [5 3 2 0] ------- [REPLY 2/2 3/3]
r 0.072320800 _3_ MAC  --- 0 ARP 28 [5 3 2 0] ------- [REPLY 2/2 3/3]
D 0.072321533 _0_ MAC  --- 0 ARP 80 [5 3 2 0] ------- [REPLY 2/2 3/3]
s 0.084000000 _3_ MAC  --- 0 AODV 96 [5 2 3 0] ------- [3:255 0:255 30 2] [0x4 1 [3 4] 10.000000] (REPLY)
r 0.084384800 _2_ MAC  --- 0 AODV 44 [5 2 3 0] ------- [3:255 0:255 30 2] [0x4 1 [3 4] 10.000000] (REPLY)
D 0.084385567 _1_ MAC  --- 0 AODV 96 [5 2 3 0] ------- [3:255 0:255 30 2] [0x4 1 [3 4] 10.000000] (REPLY)
s 0.096000000 _2_ MAC  --- 0 ARP 80 [0 ffffffff 2 0] ------- [REQUEST 2/2 0/1]
r 0.096320767 _1_ MAC  --- 0 ARP 28 [0 ffffffff 2 0] ------- [REQUEST 2/2 0/1]
r 0.096320800 _3_ MAC  --- 0 ARP 28 [0 ffffffff 2 0] ------- [REQUEST 2/2 0/1]
r 0.096321533 _0_ MAC  --- 0 ARP 28 [0 ffffffff 2 0] ------- [REQUEST 2/2 0/1]
s 0.114000000 _1_ MAC  --- 0 ARP 80 [5 2 1 0] ------- [REPLY 1/1 2/2]
D 0.114320767 _0_ MAC  --- 0 ARP 80 [5 2 1 0] ------- [REPLY 1/1 2/2]
r 0.114320767 _2_ MAC  --- 0 ARP 28 [5 2 1 0] ------- [REPLY 1/1 2/2]
D 0.114321567 _3_ MAC  --- 0 ARP 80 [5 2 1 0] ------- [REPLY 1/1 2/2]
s 0.120000000 _2_ MAC  --- 0 AODV 96 [5 1 2 0] ------- [3:255 0:255 29 1] [0x4 2 [3 4] 10.000000] (REPLY)
r 0.120384767 _1_ MAC  --- 0 AODV 44 [5 1 2 0] ------- [3:255 0:255 29 1] [0x4 2 [3 4] 10.000000] (REPLY)
D 0.120384800 _3_ MAC  --- 0 AODV 96 [5 1 2 0] ------- [3:255 0:255 29 1] [0x4 2 [3 4] 10.000000] (REPLY)
D 0.120385533 _0_ MAC  --- 0 AODV 96 [5 1 2 0] ------- [3:255 0:255 29 1] [0x4 2 [3 4] 10.000000] (REPLY)
s 0.138000000 _1_ MAC  --- 0 ARP 80 [0 ffffffff 1 0] ------- [REQUEST 1/1 0/0]
r 0.138320767 _0_ MAC  --- 0 ARP 28 [0 ffffffff 1 0] ------- [REQUEST 1/1 0/0]
r 0.138320767 _2_ MAC  --- 0 ARP 28 [0 ffffffff 1 0] ------- [REQUEST 1/1 0/0]
r 0.138321567 _3_ MAC  --- 0 ARP 28 [0 ffffffff 1 0] ------- [REQUEST 1/1 0/0]
s 0.156000000 _0_ MAC  --- 0 ARP 80 [5 1 0 0] ------- [REPLY 0/0 1/1]
r 0.156320767 _1_ MAC  --- 0 ARP 28 [5 1 0 0] ------- [REPLY 0/0 1/1]
D 0.156321533 _2_ MAC  --- 0 ARP 80 [5 1 0 0] ------- [REPLY 0/0 1/1]
s 0.162000000 _1_ MAC  --- 0 AODV 96 [5 0 1 0] ------- [3:255 0:255 28 0] [0x4 3 [3 4] 10.000000] (REPLY)
r 0.162384767 _0_ MAC  --- 0 AODV 44 [5 0 1 0] ------- [3:255 0:255 28 0] [0x4 3 [3 4] 10.000000] (REPLY)
D 0.162384767 _2_ MAC  --- 0 AODV 96 [5 0 1 0] ------- [3:255 0:255 28 0] [0x4 3 [3 4] 10.000000] (REPLY)
D 0.162385567 _3_ MAC  --- 0 AODV 96 [5 0 1 0] ------- [3:255 0:255 28 0] [0x4 3 [3 4] 10.000000] (REPLY)
s 0.180000000 _0_ MAC  --- 0 cbr 282 [5 1 0 0] ------- [0:0 3:0 30 1] [0] 0 0
r 0.181128767 _1_ MAC  --- 0 cbr 230 [5 1 0 0] ------- [0:0 3:0 30 1] [0] 1 0
D 0.181129533 _2_ MAC  --- 0 cbr 282 [5 1 0 0] ------- [0:0 3:0 30 1] [0] 0 0
s 0.186000000 _1_ MAC  --- 0 cbr 282 [5 2 1 0] ------- [0:0 3:0 29 2] [0] 1 0
D 0.187128767 _0_ MAC  --- 0 cbr 282 [5 2 1 0] ------- [0:0 3:0 29 2] [0] 1 0
r 0.187128767 _2_ MAC  --- 0 cbr 230 [5 2 1 0] ------- [0:0 3:0 29 2] [0] 2 0
D 0.187129567 _3_ MAC  --- 0 cbr 282 [5 2 1 0] ------- [0:0 3:0 29 2] [0] 1 0
s 0.192000000 _2_ MAC  --- 0 cbr 282 [5 3 2 0] ------- [0:0 3:0 28 3] [0] 2 0
D 0.193128767 _1_ MAC  --- 0 cbr 282 [5 3 2 0] ------- [0:0 3:0 28 3] [0] 2 0
r 0.193128800 _3_ MAC  --- 0 cbr 230 [5 3 2 0] ------- [0:0 3:0 28 3] [0] 3 0
D 0.193129533 _0_ MAC  --- 0 cbr 282 [5 3 2 0] ------- [0:0 3:0 28 3] [0] 2 0
s 0.204000000 _0_ MAC  --- 3 cbr 282 [5 1 0 0] ------- [0:0 3:0 30 1] [3] 0 0
r 0.205128767 _1_ MAC  --- 3 cbr 230 [5 1 0 0] ------- [0:0 3:0 30 1] [3] 1 0
D 0.205129533 _2_ MAC  --- 3 cbr 282 [5 1 0 0] ------- [0:0 3:0 30 1] [3] 0 0
s 0.210000000 _1_ MAC  --- 3 cbr 282 [5 2 1 0] ------- [0:0 3:0 29 2] [3] 1 0
D 0.211128767 _0_ MAC  --- 3 cbr 282 [5 2 1 0] ------- [0:0 3:0 29 2] [3] 1 0
r 0.211128767 _2_ MAC  --- 3 cbr 230 [5 2 1 0] ------- [0:0 3:0 29 2] [3] 2 0
D 0.211129567 _3_ MAC  --- 3 cbr 282 [5 2 1 0] ------- [0:0 3:0 29 2] [3] 1 0
s 0.216000000 _2_ MAC  --- 3 cbr 282 [5 3 2 0] ------- [0:0 3:0 28 3] [3] 2 0
D 0.217128767 _1_ MAC  --- 3 cbr 282 [5 3 2 0] ------- [0:0 3:0 28 3] [3] 2 0
r 0.217128800 _3_ MAC  --- 3 cbr 230 [5 3 2 0] ------- [0:0 3:0 28 3] [3] 3 0
D 0.217129533 _0_ MAC  --- 3 cbr 282 [5 3 2 0] ------- [0:0 3:0 28 3] [3] 2 0
s 0.228000000 _0_ MAC  --- 1 cbr 282 [5 1 0 0] ------- [0:0 3:0 30 1] [1] 0 0
r 0.229128767 _1_ MAC  --- 1 cbr 230 [5 1 0 0] ------- [0:0 3:0 30 1] [1] 1 0
D 0.229129533 _2_ MAC  --- 1 cbr 282 [5 1 0 0] ------- [0:0 3:0 30 1] [1] 0 0
s 0.234000000 _1_ MAC  --- 1 cbr 282 [5 2 1 0] ------- [0:0 3:0 29 2] [1] 1 0
D 0.235128767 _0_ MAC  --- 1 cbr 282 [5 2 1 0] ------- [0:0 3:0 29 2] [1] 1 0
r 0.235128767 _2_ MAC  --- 1 cbr 230 [5 2 1 0] ------- [0:0 3:0 29 2] [1] 2 0
D 0.235129567 _3_ MAC  --- 1 cbr 282 [5 2 1 0] ------- [0:0 3:0 29 2] [1] 1 0
s 0.240000000 _2_ MAC  --- 1 cbr 282 [5 3 2 0] ------- [0:0 3:0 28 3] [1] 2 0
D 0.241128767 _1_ MAC  --- 1 cbr 282 [5 3 2 0] ------- [0:0 3:0 28 3] [1] 2 0
r 0.241128800 _3_ MAC  --- 1 cbr 230 [5 3 2 0] ------- [0:0 3:0 28 3] [1] 3 0
D 0.241129533 _0_ MAC  --- 1 cbr 282 [5 3 2 0] ------- [0:0 3:0 28 3] [1] 2 0
s 0.252000000 _0_ MAC  --- 2 cbr 282 [5 1 0 0] ------- [0:0 3:0 30 1] [2] 0 0
r 0.253128767 _1_ MAC  --- 2 cbr 230 [5 1 0 0] ------- [0:0 3:0 30 1] [2] 1 0
D 0.253129533 _2_ MAC  --- 2 cbr 282 [5 1 0 0] ------- [0:0 3:0 30 1] [2] 0 0
s 0.258000000 _1_ MAC  --- 2 cbr 282 [5 2 1 0] ------- [0:0 3:0 29 2] [2] 1 0
D 0.259128767 _0_ MAC  --- 2 cbr 282 [5 2 1 0] ------- [0:0 3:0 29 2] [2] 1 0
r 0.259128767 _2_ MAC  --- 2 cbr 230 [5 2 1 0] ------- [0:0 3:0 29 2] [2] 2 0
D 0.259129567 _3_ MAC  --- 2 cbr 282 [5 2 1 0] ------- [0:0 3:0 29 2] [2] 1 0
s 0.264000000 _2_ MAC  --- 2 cbr 282 [5 3 2 0] ------- [0:0 3:0 28 3] [2] 2 0
D 0.265128767 _1_ MAC  --- 2 cbr 282 [5 3 2 0] ------- [0:0 3:0 28 3] [2] 2 0
r 0.265128800 _3_ MAC  --- 2 cbr 230 [5 3 2 0] ------- [0:0 3:0 28 3] [2] 3 0
D 0.265129533 _0_ MAC  --- 2 cbr 282 [5 3 2 0] ------- [0:0 3:0 28 3] [2] 2 0
s 0.276000000 _0_ MAC  --- 4 cbr 282 [5 1 0 0] ------- [0:0 3:0 30 1] [4] 0 0
r 0.277128767 _1_ MAC  --- 4 cbr 230 [5 1 0 0] ------- [0:0 3:0 30 1] [4] 1 0
D 0.277129533 _2_ MAC  --- 4 cbr 282 [5 1 0 0] ------- [0:0 3:0 30 1] [4] 0 0
s 0.282000000 _1_ MAC  --- 4 cbr 282 [5 2 1 0] ------- [0:0 3:0 29 2] [4] 1 0
D 0.283128767 _0_ MAC  --- 4 cbr 282 [5 2 1 0] ------- [0:0 3:0 29 2] [4] 1 0
r 0.283128767 _2_ MAC  --- 4 cbr 230 [5 2 1 0] ------- [0:0 3:0 29 2] [4] 2 0
D 0.283129567 _3_ MAC  --- 4 cbr 282 [5 2 1 0] ------- [0:0 3:0 29 2] [4] 1 0
s 0.288000000 _2_ MAC  --- 4 cbr 282 [5 3 2 0] ------- [0:0 3:0 28 3] [4] 2 0
D 0.289128767 _1_ MAC  --- 4 cbr 282 [5 3 2 0] ------- [0:0 3:0 28 3] [4] 2 0
r 0.289128800 _3_ MAC  --- 4 cbr 230 [5 3 2 0] ------- [0:0 3:0 28 3] [4] 3 0
D 0.289129533 _0_ MAC  --- 4 cbr 282 [5 3 2 0] ------- [0:0 3:0 28 3] [4] 2 0
s 0.300000000 _0_ MAC  --- 5 cbr 282 [5 1 0 0] ------- [0:0 3:0 30 1] [5] 0 0
r 0.301128767 _1_ MAC  --- 5 cbr 230 [5 1 0 0] ------- [0:0 3:0 30 1] [5] 1 0
D 0.301129533 _2_ MAC  --- 5 cbr 282 [5 1 0 0] ------- [0:0 3:0 30 1] [5] 0 0
s 0.306000000 _1_ MAC  --- 5 cbr 282 [5 2 1 0] ------- [0:0 3:0 29 2] [5] 1 0
D 0.307128767 _0_ MAC  --- 5 cbr 282 [5 2 1 0] ------- [0:0 3:0 29 2] [5] 1 0
r 0.307128767 _2_ MAC  --- 5 cbr 230 [5 2 1 0] ------- [0:0 3:0 29 2] [5] 2 0
D 0.307129567 _3_ MAC  --- 5 cbr 282 [5 2 1 0] ------- [0:0 3:0 29 2] [5] 1 0
s 0.312000000 _2_ MAC  --- 5 cbr 282 [5 3 2 0] ------- [0:0 3:0 28 3] [5] 2 0
D 0.313128767 _1_ MAC  --- 5 cbr 282 [5 3 2 0] ------- [0:0 3:0 28 3] [5] 2 0
r 0.313128800 _3_ MAC  --- 5 cbr 230 [5 3 2 0] ------- [0:0 3:0 28 3] [5] 3 0
D 0.313129533 _0_ MAC  --- 5 cbr 282 [5 3 2 0] ------- [0:0 3:0 28 3] [5] 2 0
s 0.348000000 _0_ MAC  --- 6 cbr 282 [5 1 0 0] ------- [0:0 3:0 30 1] [6] 0 0
r 0.349128767 _1_ MAC  --- 6 cbr 230 [5 1 0 0] ------- [0:0 3:0 30 1] [6] 1 0
D 0.349129533 _2_ MAC  --- 6 cbr 282 [5 1 0 0] ------- [0:0 3:0 30 1] [6] 0 0
s 0.354000000 _1_ MAC  --- 6 cbr 282 [5 2 1 0] ------- [0:0 3:0 29 2] [6] 1 0
D 0.355128767 _0_ MAC  --- 6 cbr 282 [5 2 1 0] ------- [0:0 3:0 29 2] [6] 1 0
r 0.355128767 _2_ MAC  --- 6 cbr 230 [5 2 1 0] ------- [0:0 3:0 29 2] [6] 2 0
D 0.355129567 _3_ MAC  --- 6 cbr 282 [5 2 1 0] ------- [0:0 3:0 29 2] [6] 1 0
s 0.360000000 _2_ MAC  --- 6 cbr 282 [5 3 2 0] ------- [0:0 3:0 28 3] [6] 2 0
D 0.361128767 _1_ MAC  --- 6 cbr 282 [5 3 2 0] ------- [0:0 3:0 28 3] [6] 2 0
r 0.361128800 _3_ MAC  --- 6 cbr 230 [5 3 2 0] ------- [0:0 3:0 28 3] [6] 3 0
D 0.361129533 _0_ MAC  --- 6 cbr 282 [5 3 2 0] ------- [0:0 3:0 28 3] [6] 2 0
s 0.396000000 _0_ MAC  --- 7 cbr 282 [5 1 0 0] ------- [0:0 3:0 30 1] [7] 0 0
r 0.397128767 _1_ MAC  --- 7 cbr 230 [5 1 0 0] ------- [0:0 3:0 30 1] [7] 1 0
D 0.397129533 _2_ MAC  --- 7 cbr 282 [5 1 0 0] ------- [0:0 3:0 30 1] [7] 0 0
s 0.402000000 _1_ MAC  --- 7 cbr 282 [5 2 1 0] ------- [0:0 3:0 29 2] [7] 1 0
D 0.403128767 _0_ MAC  --- 7 cbr 282 [5 2 1 0] ------- [0:0 3:0 29 2] [7] 1 0
r 0.403128767 _2_ MAC  --- 7 cbr 230 [5 2 1 0] ------- [0:0 3:0 29 2] [7] 2 0
D 0.403129567 _3_ MAC  --- 7 cbr 282 [5 2 1 0] ------- [0:0 3:0 29 2] [7] 1 0
s 0.408000000 _2_ MAC  --- 7 cbr 282 [5 3 2 0] ------- [0:0 3:0 28 3] [7] 2 0
D 0.409128767 _1_ MAC  --- 7 cbr 282 [5 3 2 0] ------- [0:0 3:0 28 3] [7] 2 0
r 0.409128800 _3_ MAC  --- 7 cbr 230 [5 3 2 0] ------- [0:0 3:0 28 3] [7] 3 0
D 0.409129533 _0_ MAC  --- 7 cbr 282 [5 3 2 0] ------- [0:0 3:0 28 3] [7] 2 0
s 0.468000000 _0_ MAC  --- 8 cbr 282 [5 1 0 0] ------- [0:0 3:0 30 1] [8] 0 0
r 0.469128767 _1_ MAC  --- 8 cbr 230 [5 1 0 0] ------- [0:0 3:0 30 1] [8] 1 0
D 0.469129533 _2_ MAC  --- 8 cbr 282 [5 1 0 0] ------- [0:0 3:0 30 1] [8] 0 0
s 0.474000000 _1_ MAC  --- 8 cbr 282 [5 2 1 0] ------- [0:0 3:0 29 2] [8] 1 0
D 0.475128767 _0_ MAC  --- 8 cbr 282 [5 2 1 0] ------- [0:0 3:0 29 2] [8] 1 0
r 0.475128767 _2_ MAC  --- 8 cbr 230 [5 2 1 0] ------- [0:0 3:0 29 2] [8] 2 0
D 0.475129567 _3_ MAC  --- 8 cbr 282 [5 2 1 0] ------- [0:0 3:0 29 2] [8] 1 0
s 0.480000000 _2_ MAC  --- 8 cbr 282 [5 3 2 0] ------- [0:0 3:0 28 3] [8] 2 0
D 0.481128767 _1_ MAC  --- 8 cbr 282 [5 3 2 0] ------- [0:0 3:0 28 3] [8] 2 0
r 0.481128800 _3_ MAC  --- 8 cbr 230 [5 3 2 0] ------- [0:0 3:0 28 3] [8] 3 0
D 0.481129533 _0_ MAC  --- 8 cbr 282 [5 3 2 0] ------- [0:0 3:0 28 3] [8] 2 0
s 0.516000000 _0_ MAC  --- 9 cbr 282 [5 1 0 0] ------- [0:0 3:0 30 1] [9] 0 0
r 0.517128767 _1_ MAC  --- 9 cbr 230 [5 1 0 0] ------- [0:0 3:0 30 1] [9] 1 0
D 0.517129533 _2_ MAC  --- 9 cbr 282 [5 1 0 0] ------- [0:0 3:0 30 1] [9] 0 0
s 0.522000000 _1_ MAC  --- 9 cbr 282 [5 2 1 0] ------- [0:0 3:0 29 2] [9] 1 0
D 0.523128767 _0_ MAC  --- 9 cbr 282 [5 2 1 0] ------- [0:0 3:0 29 2] [9] 1 0
r 0.523128767 _2_ MAC  --- 9 cbr 230 [5 2 1 0] ------- [0:0 3:0 29 2] [9] 2 0
D 0.523129567 _3_ MAC  --- 9 cbr 282 [5 2 1 0] ------- [0:0 3:0 29 2] [9] 1 0
s 0.528000000 _2_ MAC  --- 9 cbr 282 [5 3 2 0] ------- [0:0 3:0 28 3] [9] 2 0
D 0.529128767 _1_ MAC  --- 9 cbr 282 [5 3 2 0] ------- [0:0 3:0 28 3] [9] 2 0
r 0.529128800 _3_ MAC  --- 9 cbr 230 [5 3 2 0] ------- [0:0 3:0 28 3] [9] 3 0
D 0.529129533 _0_ MAC  --- 9 cbr 282 [5 3 2 0] ------- [0:0 3:0 28 3] [9] 2 0
s 0.564000000 _0_ MAC  --- 10 cbr 282 [5 1 0 0] ------- [0:0 3:0 30 1] [10] 0 0
r 0.565128767 _1_ MAC  --- 10 cbr 230 [5 1 0 0] ------- [0:0 3:0 30 1] [10] 1 0
D 0.565129533 _2_ MAC  --- 10 cbr 282 [5 1 0 0] ------- [0:0 3:0 30 1] [10] 0 0
s 0.570000000 _1_ MAC  --- 10 cbr 282 [5 2 1 0] ------- [0:0 3:0 29 2] [10] 1 0
D 0.571128767 _0_ MAC  --- 10 cbr 282 [5 2 1 0] ------- [0:0 3:0 29 2] [10] 1 0
r 0.571128767 _2_ MAC  --- 10 cbr 230 [5 2 1 0] ------- [0:0 3:0 29 2] [10] 2 0
D 0.571129567 _3_ MAC  --- 10 cbr 282 [5 2 1 0] ------- [0:0 3:0 29 2] [10] 1 0
s 0.576000000 _2_ MAC  --- 10 cbr 282 [5 3 2 0] ------- [0:0 3:0 28 3] [10] 2 0
D 0.577128767 _1_ MAC  --- 10 cbr 282 [5 3 2 0] ------- [0:0 3:0 28 3] [10] 2 0
r 0.577128800 _3_ MAC  --- 10 cbr 230 [5 3 2 0] ------- [0:0 3:0 28 3] [10] 3 0
D 0.577129533 _0_ MAC  --- 10 cbr 282 [5 3 2 0] ------- [0:0 3:0 28 3] [10] 2 0
s 0.636000000 _0_ MAC  --- 11 cbr 282 [5 1 0 0] ------- [0:0 3:0 30 1] [11] 0 0
r 0.637128767 _1_ MAC  --- 11 cbr 230 [5 1 0 0] ------- [0:0 3:0 30 1] [11] 1 0
D 0.637129533 _2_ MAC  --- 11 cbr 282 [5 1 0 0] ------- [0:0 3:0 30 1] [11] 0 0
s 0.642000000 _1_ MAC  --- 11 cbr 282 [5 2 1 0] ------- [0:0 3:0 29 2] [11] 1 0
D 0.643128767 _0_ MAC  --- 11 cbr 282 [5 2 1 0] ------- [0:0 3:0 29 2] [11] 1 0
r 0.643128767 _2_ MAC  --- 11 cbr 230 [5 2 1 0] ------- [0:0 3:0 29 2] [11] 2 0
D 0.643129567 _3_ MAC  --- 11 cbr 282 [5 2 1 0] ------- [0:0 3:0 29 2] [11] 1 0
s 0.648000000 _2_ MAC  --- 11 cbr 282 [5 3 2 0] ------- [0:0 3:0 28 3] [11] 2 0
D 0.649128767 _1_ MAC  --- 11 cbr 282 [5 3 2 0] ------- [0:0 3:0 28 3] [11] 2 0
r 0.649128800 _3_ MAC  --- 11 cbr 230 [5 3 2 0] ------- [0:0 3:0 28 3] [11] 3 0
D 0.649129533 _0_ MAC  --- 11 cbr 282 [5 3 2 0] ------- [0:0 3:0 28 3] [11] 2 0
s 0.684000000 _0_ MAC  --- 12 cbr 282 [5 1 0 0] ------- [0:0 3:0 30 1] [12] 0 0
r 0.685128767 _1_ MAC  --- 12 cbr 230 [5 1 0 0] ------- [0:0 3:0 30 1] [12] 1 0
D 0.685129533 _2_ MAC  --- 12 cbr 282 [5 1 0 0] ------- [0:0 3:0 30 1] [12] 0 0
s 0.690000000 _1_ MAC  --- 12 cbr 282 [5 2 1 0] ------- [0:0 3:0 29 2] [12] 1 0
D 0.691128767 _0_ MAC  --- 12 cbr 282 [5 2 1 0] ------- [0:0 3:0 29 2] [12] 1 0
r 0.691128767 _2_ MAC  --- 12 cbr 230 [5 2 1 0] ------- [0:0 3:0 29 2] [12] 2 0
D 0.691129567 _3_ MAC  --- 12 cbr 282 [5 2 1 0] ------- [0:0 3:0 29 2] [12] 1 0
s 0.696000000 _2_ MAC  --- 12 cbr 282 [5 3 2 0] ------- [0:0 3:0 28 3] [12] 2 0
D 0.697128767 _1_ MAC  --- 12 cbr 282 [5 3 2 0] ------- [0:0 3:0 28 3] [12] 2 0
r 0.697128800 _3_ MAC  --- 12 cbr 230 [5 3 2 0] ------- [0:0 3:0 28 3] [12] 3 0
D 0.697129533 _0_ MAC  --- 12 cbr 282 [5 3 2 0] ------- [0:0 3:0 28 3] [12] 2 0
s 0.732000000 _0_ MAC  --- 13 cbr 282 [5 1 0 0] ------- [0:0 3:0 30 1] [13] 0 0
r 0.733128767 _1_ MAC  --- 13 cbr 230 [5 1 0 0] ------- [0:0 3:0 30 1] [13] 1 0
D 0.733129533 _2_ MAC  --- 13 cbr 282 [5 1 0 0] ------- [0:0 3:0 30 1] [13] 0 0
s 0.738000000 _1_ MAC  --- 13 cbr 282 [5 2 1 0] ------- [0:0 3:0 29 2] [13] 1 0
D 0.739128767 _0_ MAC  --- 13 cbr 282 [5 2 1 0] ------- [0:0 3:0 29 2] [13] 1 0
r 0.739128767 _2_ MAC  --- 13 cbr 230 [5 2 1 0] ------- [0:0 3:0 29 2] [13] 2 0
D 0.739129567 _3_ MAC  --- 13 cbr 282 [5 2 1 0] ------- [0:0 3:0 29 2] [13] 1 0
s 0.744000000 _2_ MAC  --- 13 cbr 282 [5 3 2 0] ------- [0:0 3:0 28 3] [13] 2 0
D 0.745128767 _1_ MAC  --- 13 cbr 282 [5 3 2 0] ------- [0:0 3:0 28 3] [13] 2 0
r 0.745128800 _3_ MAC  --- 13 cbr 230 [5 3 2 0] ------- [0:0 3:0 28 3] [13] 3 0
D 0.745129533 _0_ MAC  --- 13 cbr 282 [5 3 2 0] ------- [0:0 3:0 28 3] [13] 2 0
s 0.804000000 _0_ MAC  --- 14 cbr 282 [5 1 0 0] ------- [0:0 3:0 30 1] [14] 0 0
r 0.805128767 _1_ MAC  --- 14 cbr 230 [5 1 0 0] ------- [0:0 3:0 30 1] [14] 1 0
D 0.805129533 _2_ MAC  --- 14 cbr 282 [5 1 0 0] ------- [0:0 3:0 30 1] [14] 0 0
s 0.810000000 _1_ MAC  --- 14 cbr 282 [5 2 1 0] ------- [0:0 3:0 29 2] [14] 1 0
D 0.811128767 _0_ MAC  --- 14 cbr 282 [5 2 1 0] ------- [0:0 3:0 29 2] [14] 1 0
r 0.811128767 _2_ MAC  --- 14 cbr 230 [5 2 1 0] ------- [0:0 3:0 29 2] [14] 2 0
D 0.811129567 _3_ MAC  --- 14 cbr 282 [5 2 1 0] ------- [0:0 3:0 29 2] [14] 1 0
s 0.816000000 _2_ MAC  --- 14 cbr 282 [5 3 2 0] ------- [0:0 3:0 28 3] [14] 2 0
D 0.817128767 _1_ MAC  --- 14 cbr 282 [5 3 2 0] ------- [0:0 3:0 28 3] [14] 2 0
r 0.817128800 _3_ MAC  --- 14 cbr 230 [5 3 2 0] ------- [0:0 3:0 28 3] [14] 3 0
D 0.817129533 _0_ MAC  --- 14 cbr 282 [5 3 2 0] ------- [0:0 3:0 28 3] [14] 2 0
s 0.852000000 _0_ MAC  --- 15 cbr 282 [5 1 0 0] ------- [0:0 3:0 30 1] [15] 0 0
r 0.853128767 _1_ MAC  --- 15 cbr 230 [5 1 0 0] ------- [0:0 3:0 30 1] [15] 1 0
D 0.853129533 _2_ MAC  --- 15 cbr 282 [5 1 0 0] ------- [0:0 3:0 30 1] [15] 0 0
s 0.858000000 _1_ MAC  --- 15 cbr 282 [5 2 1 0] ------- [0:0 3:0 29 2] [15] 1 0
D 0.859128767 _0_ MAC  --- 15 cbr 282 [5 2 1 0] ------- [0:0 3:0 29 2] [15] 1 0
r 0.859128767 _2_ MAC  --- 15 cbr 230 [5 2 1 0] ------- [0:0 3:0 29 2] [15] 2 0
D 0.859129567 _3_ MAC  --- 15 cbr 282 [5 2 1 0] ------- [0:0 3:0 29 2] [15] 1 0
s 0.864000000 _2_ MAC  --- 15 cbr 282 [5 3 2 0] ------- [0:0 3:0 28 3] [15] 2 0
D 0.865128767 _1_ MAC  --- 15 cbr 282 [5 3 2 0] ------- [0:0 3:0 28 3] [15] 2 0
r 0.865128800 _3_ MAC  --- 15 cbr 230 [5 3 2 0] ------- [0:0 3:0 28 3] [15] 3 0
D 0.865129533 _0_ MAC  --- 15 cbr 282 [5 3 2 0] ------- [0:0 3:0 28 3] [15] 2 0
s 0.900000000 _0_ MAC  --- 16 cbr 282 [5 1 0 0] ------- [0:0 3:0 30 1] [16] 0 0
r 0.901128767 _1_ MAC  --- 16 cbr 230 [5 1 0 0] ------- [0:0 3:0 30 1] [16] 1 0
D 0.901129533 _2_ MAC  --- 16 cbr 282 [5 1 0 0] ------- [0:0 3:0 30 1] [16] 0 0
s 0.906000000 _1_ MAC  --- 16 cbr 282 [5 2 1 0] ------- [0:0 3:0 29 2] [16] 1 0
D 0.907128767 _0_ MAC  --- 16 cbr 282 [5 2 1 0] ------- [0:0 3:0 29 2] [16] 1 0
r 0.907128767 _2_ MAC  --- 16 cbr 230 [5 2 1 0] ------- [0:0 3:0 29 2] [16] 2 0
D 0.907129567 _3_ MAC  --- 16 cbr 282 [5 2 1 0] ------- [0:0 3:0 29 2] [16] 1 0
s 0.912000000 _2_ MAC  --- 16 cbr 282 [5 3 2 0] ------- [0:0 3:0 28 3] [16] 2 0
D 0.913128767 _1_ MAC  --- 16 cbr 282 [5 3 2 0] ------- [0:0 3:0 28 3] [16] 2 0
r 0.913128800 _3_ MAC  --- 16 cbr 230 [5 3 2 0] ------- [0:0 3:0 28 3] [16] 3 0
D 0.913129533 _0_ MAC  --- 16 cbr 282 [5 3 2 0] ------- [0:0 3:0 28 3] [16] 2 0
s 0.972000000 _0_ MAC  --- 17 cbr 282 [5 1 0 0] ------- [0:0 3:0 30 1] [17] 0 0
r 0.973128767 _1_ MAC  --- 17 cbr 230 [5 1 0 0] ------- [0:0 3:0 30 1] [17] 1 0
D 0.973129533 _2_ MAC  --- 17 cbr 282 [5 1 0 0] ------- [0:0 3:0 30 1] [17] 0 0
s 0.978000000 _1_ MAC  --- 17 cbr 282 [5 2 1 0] ------- [0:0 3:0 29 2] [17] 1 0
D 0.979128767 _0_ MAC  --- 17 cbr 282 [5 2 1 0] ------- [0:0 3:0 29 2] [17] 1 0
r 0.979128767 _2_ MAC  --- 17 cbr 230 [5 2 1 0] ------- [0:0 3:0 29 2] [17] 2 0
D 0.979129567 _3_ MAC  --- 17 cbr 282 [5 2 1 0] ------- [0:0 3:0 29 2] [17] 1 0
s 0.984000000 _2_ MAC  --- 17 cbr 282 [5 3 2 0] ------- [0:0 3:0 28 3] [17] 2 0
D 0.985128767 _1_ MAC  --- 17 cbr 282 [5 3 2 0] ------- [0:0 3:0 28 3] [17] 2 0
r 0.985128800 _3_ MAC  --- 17 cbr 230 [5 3 2 0] ------- [0:0 3:0 28 3] [17] 3 0
D 0.985129533 _0_ MAC  --- 17 cbr 282 [5 3 2 0] ------- [0:0 3:0 28 3] [17] 2 0
s 1.020000000 _0_ MAC  --- 18 cbr 282 [5 1 0 0] ------- [0:0 3:0 30 1] [18] 0 0
r 1.021128767 _1_ MAC  --- 18 cbr 230 [5 1 0 0] ------- [0:0 3:0 30 1] [18] 1 0
D 1.021129533 _2_ MAC  --- 18 cbr 282 [5 1 0 0] ------- [0:0 3:0 30 1] [18] 0 0
s 1.026000000 _1_ MAC  --- 18 cbr 282 [5 2 1 0] ------- [0:0 3:0 29 2] [18] 1 0
D 1.027128767 _0_ MAC  --- 18 cbr 282 [5 2 1 0] ------- [0:0 3:0 29 2] [18] 1 0
r 1.027128767 _2_ MAC  --- 18 cbr 230 [5 2 1 0] ------- [0:0 3:0 29 2] [18] 2 0
D 1.027129567 _3_ MAC  --- 18 cbr 282 [5 2 1 0] ------- [0:0 3:0 29 2] [18] 1 0
s 1.032000000 _2_ MAC  --- 18 cbr 282 [5 3 2 0] ------- [0:0 3:0 28 3] [18] 2 0
D 1.033128767 _1_ MAC  --- 18 cbr 282 [5 3 2 0] ------- [0:0 3:0 28 3] [18] 2 0
r 1.033128800 _3_ MAC  --- 18 cbr 230 [5 3 2 0] ------- [0:0 3:0 28 3] [18] 3 0
D 1.033129533 _0_ MAC  --- 18 cbr 282 [5 3 2 0] ------- [0:0 3:0 28 3] [18] 2 0
s 1.068000000 _0_ MAC  --- 19 cbr 282 [5 1 0 0] ------- [0:0 3:0 30 1] [19] 0 0
r 1.069128767 _1_ MAC  --- 19 cbr 230 [5 1 0 0] ------- [0:0 3:0 30 1] [19] 1 0
D 1.069129533 _2_ MAC  --- 19 cbr 282 [5 1 0 0] ------- [0:0 3:0 30 1] [19] 0 0
s 1.074000000 _1_ MAC  --- 19 cbr 282 [5 2 1 0] ------- [0:0 3:0 29 2] [19] 1 0
D 1.075128767 _0_ MAC  --- 19 cbr 282 [5 2 1 0] ------- [0:0 3:0 29 2] [19] 1 0
r 1.075128767 _2_ MAC  --- 19 cbr 230 [5 2 1 0] ------- [0:0 3:0 29 2] [19] 2 0
D 1.075129567 _3_ MAC  --- 19 cbr 282 [5 2 1 0] ------- [0:0 3:0 29 2] [19] 1 0
s 1.080000000 _2_ MAC  --- 19 cbr 282 [5 3 2 0] ------- [0:0 3:0 28 3] [19] 2 0
D 1.081128767 _1_ MAC  --- 19 cbr 282 [5 3 2 0] ------- [0:0 3:0 28 3] [19] 2 0
r 1.081128800 _3_ MAC  --- 19 cbr 230 [5 3 2 0] ------- [0:0 3:0 28 3] [19] 3 0
D 1.081129533 _0_ MAC  --- 19 cbr 282 [5 3 2 0] ------- [0:0 3:0 28 3] [19] 2 0
s 1.140000000 _0_ MAC  --- 20 cbr 282 [5 1 0 0] ------- [0:0 3:0 30 1] [20] 0 0
r 1.141128767 _1_ MAC  --- 20 cbr 230 [5 1 0 0] ------- [0:0 3:0 30 1] [20] 1 0
D 1.141129533 _2_ MAC  --- 20 cbr 282 [5 1 0 0] ------- [0:0 3:0 30 1] [20] 0 0
s 1.146000000 _1_ MAC  --- 20 cbr 282 [5 2 1 0] ------- [0:0 3:0 29 2] [20] 1 0
D 1.147128767 _0_ MAC  --- 20 cbr 282 [5 2 1 0] ------- [0:0 3:0 29 2] [20] 1 0
r 1.147128767 _2_ MAC  --- 20 cbr 230 [5 2 1 0] ------- [0:0 3:0 29 2] [20] 2 0
D 1.147129567 _3_ MAC  --- 20 cbr 282 [5 2 1 0] ------- [0:0 3:0 29 2] [20] 1 0
s 1.152000000 _2_ MAC  --- 20 cbr 282 [5 3 2 0] ------- [0:0 3:0 28 3] [20] 2 0
D 1.153128767 _1_ MAC  --- 20 cbr 282 [5 3 2 0] ------- [0:0 3:0 28 3] [20] 2 0
r 1.153128800 _3_ MAC  --- 20 cbr 230 [5 3 2 0] ------- [0:0 3:0 28 3] [20] 3 0
D 1.153129533 _0_ MAC  --- 20 cbr 282 [5 3 2 0] ------- [0:0 3:0 28 3] [20] 2 0
s 1.188000000 _0_ MAC  --- 21 cbr 282 [5 1 0 0] ------- [0:0 3:0 30 1] [21] 0 0
r 1.189128767 _1_ MAC  --- 21 cbr 230 [5 1 0 0] ------- [0:0 3:0 30 1] [21] 1 0
D 1.189129533 _2_ MAC  --- 21 cbr 282 [5 1 0 0] ------- [0:0 3:0 30 1] [21] 0 0
s 1.194000000 _1_ MAC  --- 21 cbr 282 [5 2 1 0] ------- [0:0 3:0 29 2] [21] 1 0
D 1.195128767 _0_ MAC  --- 21 cbr 282 [5 2 1 0] ------- [0:0 3:0 29 2] [21] 1 0
r 1.195128767 _2_ MAC  --- 21 cbr 230 [5 2 1 0] ------- [0:0 3:0 29 2] [21] 2 0
D 1.195129567 _3_ MAC  --- 21 cbr 282 [5 2 1 0] ------- [0:0 3:0 29 2] [21] 1 0
s 1.200000000 _2_ MAC  --- 21 cbr 282 [5 3 2 0] ------- [0:0 3:0 28 3] [21] 2 0
D 1.201128767 _1_ MAC  --- 21 cbr 282 [5 3 2 0] ------- [0:0 3:0 28 3] [21] 2 0
r 1.201128800 _3_ MAC  --- 21 cbr 230 [5 3 2 0] ------- [0:0 3:0 28 3] [21] 3 0
D 1.201129533 _0_ MAC  --- 21 cbr 282 [5 3 2 0] ------- [0:0 3:0 28 3] [21] 2 0
s 1.236000000 _0_ MAC  --- 22 cbr 282 [5 1 0 0] ------- [0:0 3:0 30 1] [22] 0 0
r 1.237128767 _1_ MAC  --- 22 cbr 230 [5 1 0 0] ------- [0:0 3:0 30 1] [22] 1 0
D 1.237129533 _2_ MAC  --- 22 cbr 282 [5 1 0 0] ------- [0:0 3:0 30 1] [22] 0 0
s 1.242000000 _1_ MAC  --- 22 cbr 282 [5 2 1 0] ------- [0:0 3:0 29 2] [22] 1 0
D 1.243128767 _0_ MAC  --- 22 cbr 282 [5 2 1 0] ------- [0:0 3:0 29 2] [22] 1 0
r 1.243128767 _2_ MAC  --- 22 cbr 230 [5 2 1 0] ------- [0:0 3:0 29 2] [22] 2 0
D 1.243129567 _3_ MAC  --- 22 cbr 282 [5 2 1 0] ------- [0:0 3:0 29 2] [22] 1 0
s 1.248000000 _2_ MAC  --- 22 cbr 282 [5 3 2 0] ------- [0:0 3:0 28 3] [22] 2 0
D 1.249128767 _1_ MAC  --- 22 cbr 282 [5 3 2 0] ------- [0:0 3:0 28 3] [22] 2 0
r 1.249128800 _3_ MAC  --- 22 cbr 230 [5 3 2 0] ------- [0:0 3:0 28 3] [22] 3 0
D 1.249129533 _0_ MAC  --- 22 cbr 282 [5 3 2 0] ------- [0:0 3:0 28 3] [22] 2 0
s 1.308000000 _0_ MAC  --- 23 cbr 282 [5 1 0 0] ------- [0:0 3:0 30 1] [23] 0 0
r 1.309128767 _1_ MAC  --- 23 cbr 230 [5 1 0 0] ------- [0:0 3:0 30 1] [23] 1 0
D 1.309129533 _2_ MAC  --- 23 cbr 282 [5 1 0 0] ------- [0:0 3:0 30 1] [23] 0 0
s 1.314000000 _1_ MAC  --- 23 cbr 282 [5 2 1 0] ------- [0:0 3:0 29 2] [23] 1 0
D 1.315128767 _0_ MAC  --- 23 cbr 282 [5 2 1 0] ------- [0:0 3:0 29 2] [23] 1 0
r 1.315128767 _2_ MAC  --- 23 cbr 230 [5 2 1 0] ------- [0:0 3:0 29 2] [23] 2 0
D 1.315129567 _3_ MAC  --- 23 cbr 282 [5 2 1 0] ------- [0:0 3:0 29 2] [23] 1 0
s 1.320000000 _2_ MAC  --- 23 cbr 282 [5 3 2 0] ------- [0:0 3:0 28 3] [23] 2 0
D 1.321128767 _1_ MAC  --- 23 cbr 282 [5 3 2 0] ------- [0:0 3:0 28 3] [23] 2 0
r 1.321128800 _3_ MAC  --- 23 cbr 230 [5 3 2 0] ------- [0:0 3:0 28 3] [23] 3 0
D 1.321129533 _0_ MAC  --- 23 cbr 282 [5 3 2 0] ------- [0:0 3:0 28 3] [23] 2 0
s 1.356000000 _0_ MAC  --- 24 cbr 282 [5 1 0 0] ------- [0:0 3:0 30 1] [24] 0 0
r 1.357128767 _1_ MAC  --- 24 cbr 230 [5 1 0 0] ------- [0:0 3:0 30 1] [24] 1 0
D 1.357129533 _2_ MAC  --- 24 cbr 282 [5 1 0 0] ------- [0:0 3:0 30 1] [24] 0 0
s 1.362000000 _1_ MAC  --- 24 cbr 282 [5 2 1 0] ------- [0:0 3:0 29 2] [24] 1 0
D 1.363128767 _0_ MAC  --- 24 cbr 282 [5 2 1 0] ------- [0:0 3:0 29 2] [24] 1 0
r 1.363128767 _2_ MAC  --- 24 cbr 230 [5 2 1 0] ------- [0:0 3:0 29 2] [24] 2 0
D 1.363129567 _3_ MAC  --- 24 cbr 282 [5 2 1 0] ------- [0:0 3:0 29 2] [24] 1 0
s 1.368000000 _2_ MAC  --- 24 cbr 282 [5 3 2 0] ------- [0:0 3:0 28 3] [24] 2 0
D 1.369128767 _1_ MAC  --- 24 cbr 282 [5 3 2 0] ------- [0:0 3:0 28 3] [24] 2 0
r 1.369128800 _3_ MAC  --- 24 cbr 230 [5 3 2 0] ------- [0:0 3:0 28 3] [24] 3 0
D 1.369129533 _0_ MAC  --- 24 cbr 282 [5 3 2 0] ------- [0:0 3:0 28 3] [24] 2 0
s 1.404000000 _0_ MAC  --- 25 cbr 282 [5 1 0 0] ------- [0:0 3:0 30 1] [25] 0 0
r 1.405128767 _1_ MAC  --- 25 cbr 230 [5 1 0 0] ------- [0:0 3:0 30 1] [25] 1 0
D 1.405129533 _2_ MAC  --- 25 cbr 282 [5 1 0 0] ------- [0:0 3:0 30 1] [25] 0 0
s 1.410000000 _1_ MAC  --- 25 cbr 282 [5 2 1 0] ------- [0:0 3:0 29 2] [25] 1 0
D 1.411128767 _0_ MAC  --- 25 cbr 282 [5 2 1 0] ------- [0:0 3:0 29 2] [25] 1 0
r 1.411128767 _2_ MAC  --- 25 cbr 230 [5 2 1 0] ------- [0:0 3:0 29 2] [25] 2 0
D 1.411129567 _3_ MAC  --- 25 cbr 282 [5 2 1 0] ------- [0:0 3:0 29 2] [25] 1 0
s 1.416000000 _2_ MAC  --- 25 cbr 282 [5 3 2 0] ------- [0:0 3:0 28 3] [25] 2 0
D 1.417128767 _1_ MAC  --- 25 cbr 282 [5 3 2 0] ------- [0:0 3:0 28 3] [25] 2 0
r 1.417128800 _3_ MAC  --- 25 cbr 230 [5 3 2 0] ------- [0:0 3:0 28 3] [25] 3 0
D 1.417129533 _0_ MAC  --- 25 cbr 282 [5 3 2 0] ------- [0:0 3:0 28 3] [25] 2 0
s 1.476000000 _0_ MAC  --- 26 cbr 282 [5 1 0 0] ------- [0:0 3:0 30 1] [26] 0 0
r 1.477128767 _1_ MAC  --- 26 cbr 230 [5 1 0 0] ------- [0:0 3:0 30 1] [26] 1 0
D 1.477129533 _2_ MAC  --- 26 cbr 282 [5 1 0 0] ------- [0:0 3:0 30 1] [26] 0 0
s 1.482000000 _1_ MAC  --- 26 cbr 282 [5 2 1 0] ------- [0:0 3:0 29 2] [26] 1 0
D 1.483128767 _0_ MAC  --- 26 cbr 282 [5 2 1 0] ------- [0:0 3:0 29 2] [26] 1 0
r 1.483128767 _2_ MAC  --- 26 cbr 230 [5 2 1 0] ------- [0:0 3:0 29 2] [26] 2 0
D 1.483129567 _3_ MAC  --- 26 cbr 282 [5 2 1 0] ------- [0:0 3:0 29 2] [26] 1 0
s 1.488000000 _2_ MAC  --- 26 cbr 282 [5 3 2 0] ------- [0:0 3:0 28 3] [26] 2 0
D 1.489128767 _1_ MAC  --- 26 cbr 282 [5 3 2 0] ------- [0:0 3:0 28 3] [26] 2 0
r 1.489128800 _3_ MAC  --- 26 cbr 230 [5 3 2 0] ------- [0:0 3:0 28 3] [26] 3 0
D 1.489129533 _0_ MAC  --- 26 cbr 282 [5 3 2 0] ------- [0:0 3:0 28 3] [26] 2 0
s 1.524000000 _0_ MAC  --- 27 cbr 282 [5 1 0 0] ------- [0:0 3:0 30 1] [27] 0 0
r 1.525128767 _1_ MAC  --- 27 cbr 230 [5 1 0 0] ------- [0:0 3:0 30 1] [27] 1 0
D 1.525129533 _2_ MAC  --- 27 cbr 282 [5 1 0 0] ------- [0:0 3:0 30 1] [27] 0 0
s 1.530000000 _1_ MAC  --- 27 cbr 282 [5 2 1 0] ------- [0:0 3:0 29 2] [27] 1 0
D 1.531128767 _0_ MAC  --- 27 cbr 282 [5 2 1 0] ------- [0:0 3:0 29 2] [27] 1 0
r 1.531128767 _2_ MAC  --- 27 cbr 230 [5 2 1 0] ------- [0:0 3:0 29 2] [27] 2 0
D 1.531129567 _3_ MAC  --- 27 cbr 282 [5 2 1 0] ------- [0:0 3:0 29 2] [27] 1 0
s 1.536000000 _2_ MAC  --- 27 cbr 282 [5 3 2 0] ------- [0:0 3:0 28 3] [27] 2 0
D 1.537128767 _1_ MAC  --- 27 cbr 282 [5 3 2 0] ------- [0:0 3:0 28 3] [27] 2 0
r 1.537128800 _3_ MAC  --- 27 cbr 230 [5 3 2 0] ------- [0:0 3:0 28 3] [27] 3 0
D 1.537129533 _0_ MAC  --- 27 cbr 282 [5 3 2 0] ------- [0:0 3:0 28 3] [27] 2 0
s 1.572000000 _0_ MAC  --- 28 cbr 282 [5 1 0 0] ------- [0:0 3:0 30 1] [28] 0 0
r 1.573128767 _1_ MAC  --- 28 cbr 230 [5 1 0 0] ------- [0:0 3:0 30 1] [28] 1 0
D 1.573129533 _2_ MAC  --- 28 cbr 282 [5 1 0 0] ------- [0:0 3:0 30 1] [28] 0 0
s 1.578000000 _1_ MAC  --- 28 cbr 282 [5 2 1 0] ------- [0:0 3:0 29 2] [28] 1 0
D 1.579128767 _0_ MAC  --- 28 cbr 282 [5 2 1 0] ------- [0:0 3:0 29 2] [28] 1 0
r 1.579128767 _2_ MAC  --- 28 cbr 230 [5 2 1 0] ------- [0:0 3:0 29 2] [28] 2 0
D 1.579129567 _3_ MAC  --- 28 cbr 282 [5 2 1 0] ------- [0:0 3:0 29 2] [28] 1 0
s 1.584000000 _2_ MAC  --- 28 cbr 282 [5 3 2 0] ------- [0:0 3:0 28 3] [28] 2 0
D 1.585128767 _1_ MAC  --- 28 cbr 282 [5 3 2 0] ------- [0:0 3:0 28 3] [28] 2 0
r 1.585128800 _3_ MAC  --- 28 cbr 230 [5 3 2 0] ------- [0:0 3:0 28 3] [28] 3 0
D 1.585129533 _0_ MAC  --- 28 cbr 282 [5 3 2 0] ------- [0:0 3:0 28 3] [28] 2 0
s 1.644000000 _0_ MAC  --- 29 cbr 282 [5 1 0 0] ------- [0:0 3:0 30 1] [29] 0 0
r 1.645128767 _1_ MAC  --- 29 cbr 230 [5 1 0 0] ------- [0:0 3:0 30 1] [29] 1 0
D 1.645129533 _2_ MAC  --- 29 cbr 282 [5 1 0 0] ------- [0:0 3:0 30 1] [29] 0 0
s 1.650000000 _1_ MAC  --- 29 cbr 282 [5 2 1 0] ------- [0:0 3:0 29 2] [29] 1 0
D 1.651128767 _0_ MAC  --- 29 cbr 282 [5 2 1 0] ------- [0:0 3:0 29 2] [29] 1 0
r 1.651128767 _2_ MAC  --- 29 cbr 230 [5 2 1 0] ------- [0:0 3:0 29 2] [29] 2 0
D 1.651129567 _3_ MAC  --- 29 cbr 282 [5 2 1 0] ------- [0:0 3:0 29 2] [29] 1 0