n -t * -s 0  -x 50 -y 50 -Z 0 -z 10  -v circle -c black
n -t * -s 1  -x 50 -y 250 -Z 0 -z 10  -v circle -c black
n -t * -s 2  -x 50 -y 450 -Z 0 -z 10  -v circle -c black
n -t * -s 3  -x 50 -y 650 -Z 0 -z 10  -v circle -c black
n -t * -s 4  -x 50 -y 850 -Z 0 -z 10  -v circle -c black
n -t * -s 5  -x 250 -y 50 -Z 0 -z 10  -v circle -c black
n -t * -s 6  -x 250 -y 250 -Z 0 -z 10  -v circle -c black
n -t * -s 7  -x 250 -y 450 -Z 0 -z 10  -v circle -c black
n -t * -s 8  -x 250 -y 650 -Z 0 -z 10  -v circle -c black
n -t * -s 9  -x 250 -y 850 -Z 0 -z 10  -v circle -c black
n -t * -s 10  -x 450 -y 50 -Z 0 -z 10  -v circle -c black
n -t * -s 11  -x 450 -y 250 -Z 0 -z 10  -v circle -c black
n -t * -s 12  -x 450 -y 450 -Z 0 -z 10  -v circle -c black
n -t * -s 13  -x 450 -y 650 -Z 0 -z 10  -v circle -c black
n -t * -s 14  -x 450 -y 850 -Z 0 -z 10  -v circle -c black
n -t * -s 15  -x 650 -y 50 -Z 0 -z 10  -v circle -c black
n -t * -s 16  -x 650 -y 250 -Z 0 -z 10  -v circle -c black
n -t * -s 17  -x 650 -y 450 -Z 0 -z 10  -v circle -c black
n -t * -s 18  -x 650 -y 650 -Z 0 -z 10  -v circle -c black
n -t * -s 19  -x 650 -y 850 -Z 0 -z 10  -v circle -c black
n -t * -s 20  -x 850 -y 50 -Z 0 -z 10  -v circle -c black
n -t * -s 21  -x 850 -y 250 -Z 0 -z 10  -v circle -c black
n -t * -s 22  -x 850 -y 450 -Z 0 -z 10  -v circle -c black
n -t * -s 23  -x 850 -y 650 -Z 0 -z 10  -v circle -c black
n -t * -s 24  -x 850 -y 850 -Z 0 -z 10  -v circle -c black
V -t * -v 1.0a5 -a 0
W -t * -x 1000 -y 1000
A -t * -n 1 -p 0 -o 0x7fffffff -c 30 -a 1
A -t * -h 1 -m 1073741823 -s 0
+ -t 0.000000000 -s 0 -d -1 -p AODV -e 44 -c 2 -a 0 -i 0 -k RTR 
- -t 0.000000000 -s 0 -d -1 -p AODV -e 44 -c 2 -a 0 -i 0 -k RTR
h -t 0.000000000 -s 0 -d -1 -p AODV -e 44 -c 2 -a 0 -i 0 -k RTR
+ -t 0.000000000 -s 1 -d -1 -p AODV -e 44 -c 2 -a 0 -i 0 -k RTR 
- -t 0.000000000 -s 1 -d -1 -p AODV -e 44 -c 2 -a 0 -i 0 -k RTR
h -t 0.000000000 -s 1 -d -1 -p AODV -e 44 -c 2 -a 0 -i 0 -k RTR
+ -t 0.000000000 -s 2 -d -1 -p AODV -e 44 -c 2 -a 0 -i 0 -k RTR 
- -t 0.000000000 -s 2 -d -1 -p AODV -e 44 -c 2 -a 0 -i 0 -k RTR
h -t 0.000000000 -s 2 -d -1 -p AODV -e 44 -c 2 -a 0 -i 0 -k RTR
+ -t 0.000000000 -s 3 -d -1 -p AODV -e 44 -c 2 -a 0 -i 0 -k RTR 
- -t 0.000000000 -s 3 -d -1 -p AODV -e 44 -c 2 -a 0 -i 0 -k RTR
h -t 0.000000000 -s 3 -d -1 -p AODV -e 44 -c 2 -a 0 -i 0 -k RTR
+ -t 0.000000000 -s 4 -d -1 -p AODV -e 44 -c 2 -a 0 -i 0 -k RTR 
- -t 0.000000000 -s 4 -d -1 -p AODV -e 44 -c 2 -a 0 -i 0 -k RTR
h -t 0.000000000 -s 4 -d -1 -p AODV -e 44 -c 2 -a 0 -i 0 -k RTR
+ -t 0.000000000 -s 5 -d -1 -p AODV -e 44 -c 2 -a 0 -i 0 -k RTR 
- -t 0.000000000 -s 5 -d -1 -p AODV -e 44 -c 2 -a 0 -i 0 -k RTR
h -t 0.000000000 -s 5 -d -1 -p AODV -e 44 -c 2 -a 0 -i 0 -k RTR
+ -t 0.000000000 -s 6 -d -1 -p AODV -e 44 -c 2 -a 0 -i 0 -k RTR 
- -t 0.000000000 -s 6 -d -1 -p AODV -e 44 -c 2 -a 0 -i 0 -k RTR
h -t 0.000000000 -s 6 -d -1 -p AODV -e 44 -c 2 -a 0 -i 0 -k RTR
+ -t 0.000000000 -s 7 -d -1 -p AODV -e 44 -c 2 -a 0 -i 0 -k RTR 
- -t 0.000000000 -s 7 -d -1 -p AODV -e 44 -c 2 -a 0 -i 0 -k RTR
h -t 0.000000000 -s 7 -d -1 -p AODV -e 44 -c 2 -a 0 -i 0 -k RTR
+ -t 0.000000000 -s 8 -d -1 -p AODV -e 44 -c 2 -a 0 -i 0 -k RTR 
- -t 0.000000000 -s 8 -d -1 -p AODV -e 44 -c 2 -a 0 -i 0 -k RTR
h -t 0.000000000 -s 8 -d -1 -p AODV -e 44 -c 2 -a 0 -i 0 -k RTR
+ -t 0.000000000 -s 9 -d -1 -p AODV -e 44 -c 2 -a 0 -i 0 -k RTR 
- -t 0.000000000 -s 9 -d -1 -p AODV -e 44 -c 2 -a 0 -i 0 -k RTR
h -t 0.000000000 -s 9 -d -1 -p AODV -e 44 -c 2 -a 0 -i 0 -k RTR
+ -t 0.000000000 -s 10 -d -1 -p AODV -e 44 -c 2 -a 0 -i 0 -k RTR 
- -t 0.000000000 -s 10 -d -1 -p AODV -e 44 -c 2 -a 0 -i 0 -k RTR
h -t 0.000000000 -s 10 -d -1 -p AODV -e 44 -c 2 -a 0 -i 0 -k RTR
+ -t 0.000000000 -s 11 -d -1 -p AODV -e 44 -c 2 -a 0 -i 0 -k RTR 
- -t 0.000000000 -s 11 -d -1 -p AODV -e 44 -c 2 -a 0 -i 0 -k RTR
h -t 0.000000000 -s 11 -d -1 -p AODV -e 44 -c 2 -a 0 -i 0 -k RTR
+ -t 0.000000000 -s 12 -d -1 -p AODV -e 44 -c 2 -a 0 -i 0 -k RTR 
- -t 0.000000000 -s 12 -d -1 -p AODV -e 44 -c 2 -a 0 -i 0 -k RTR
h -t 0.000000000 -s 12 -d -1 -p AODV -e 44 -c 2 -a 0 -i 0 -k RTR
+ -t 0.000000000 -s 13 -d -1 -p AODV -e 44 -c 2 -a 0 -i 0 -k RTR 
- -t 0.000000000 -s 13 -d -1 -p AODV -e 44 -c 2 -a 0 -i 0 -k RTR
h -t 0.000000000 -s 13 -d -1 -p AODV -e 44 -c 2 -a 0 -i 0 -k RTR
+ -t 0.000000000 -s 14 -d -1 -p AODV -e 44 -c 2 -a 0 -i 0 -k RTR 
- -t 0.000000000 -s 14 -d -1 -p AODV -e 44 -c 2 -a 0 -i 0 -k RTR
h -t 0.000000000 -s 14 -d -1 -p AODV -e 44 -c 2 -a 0 -i 0 -k RTR
+ -t 0.000000000 -s 15 -d -1 -p AODV -e 44 -c 2 -a 0 -i 0 -k RTR 
- -t 0.000000000 -s 15 -d -1 -p AODV -e 44 -c 2 -a 0 -i 0 -k RTR
h -t 0.000000000 -s 15 -d -1 -p AODV -e 44 -c 2 -a 0 -i 0 -k RTR
+ -t 0.000000000 -s 16 -d -1 -p AODV -e 44 -c 2 -a 0 -i 0 -k RTR 
- -t 0.000000000 -s 16 -d -1 -p AODV -e 44 -c 2 -a 0 -i 0 -k RTR
h -t 0.000000000 -s 16 -d -1 -p AODV -e 44 -c 2 -a 0 -i 0 -k RTR
+ -t 0.000000000 -s 17 -d -1 -p AODV -e 44 -c 2 -a 0 -i 0 -k RTR 
- -t 0.000000000 -s 17 -d -1 -p AODV -e 44 -c 2 -a 0 -i 0 -k RTR
h -t 0.000000000 -s 17 -d -1 -p AODV -e 44 -c 2 -a 0 -i 0 -k RTR
+ -t 0.000000000 -s 18 -d -1 -p AODV -e 44 -c 2 -a 0 -i 0 -k RTR 
- -t 0.000000000 -s 18 -d -1 -p AODV -e 44 -c 2 -a 0 -i 0 -k RTR
h -t 0.000000000 -s 18 -d -1 -p AODV -e 44 -c 2 -a 0 -i 0 -k RTR
+ -t 0.000000000 -s 19 -d -1 -p AODV -e 44 -c 2 -a 0 -i 0 -k RTR 
- -t 0.000000000 -s 19 -d -1 -p AODV -e 44 -c 2 -a 0 -i 0 -k RTR
h -t 0.000000000 -s 19 -d -1 -p AODV -e 44 -c 2 -a 0 -i 0 -k RTR
+ -t 0.000000000 -s 20 -d -1 -p AODV -e 44 -c 2 -a 0 -i 0 -k RTR 
- -t 0.000000000 -s 20 -d -1 -p AODV -e 44 -c 2 -a 0 -i 0 -k RTR
h -t 0.000000000 -s 20 -d -1 -p AODV -e 44 -c 2 -a 0 -i 0 -k RTR
+ -t 0.000000000 -s 21 -d -1 -p AODV -e 44 -c 2 -a 0 -i 0 -k RTR 
- -t 0.000000000 -s 21 -d -1 -p AODV -e 44 -c 2 -a 0 -i 0 -k RTR
h -t 0.000000000 -s 21 -d -1 -p AODV -e 44 -c 2 -a 0 -i 0 -k RTR
+ -t 0.000000000 -s 22 -d -1 -p AODV -e 44 -c 2 -a 0 -i 0 -k RTR 
- -t 0.000000000 -s 22 -d -1 -p AODV -e 44 -c 2 -a 0 -i 0 -k RTR
h -t 0.000000000 -s 22 -d -1 -p AODV -e 44 -c 2 -a 0 -i 0 -k RTR
+ -t 0.000000000 -s 23 -d -1 -p AODV -e 44 -c 2 -a 0 -i 0 -k RTR 
- -t 0.000000000 -s 23 -d -1 -p AODV -e 44 -c 2 -a 0 -i 0 -k RTR
h -t 0.000000000 -s 23 -d -1 -p AODV -e 44 -c 2 -a 0 -i 0 -k RTR
+ -t 0.000000000 -s 24 -d -1 -p AODV -e 44 -c 2 -a 0 -i 0 -k RTR 
- -t 0.000000000 -s 24 -d -1 -p AODV -e 44 -c 2 -a 0 -i 0 -k RTR
h -t 0.000000000 -s 24 -d -1 -p AODV -e 44 -c 2 -a 0 -i 0 -k RTR
+ -t 0.750169789 -s 0 -d -1 -p AODV -e 44 -c 2 -a 0 -i 0 -k RTR 
- -t 0.750169789 -s 0 -d -1 -p AODV -e 44 -c 2 -a 0 -i 0 -k RTR
h -t 0.750169789 -s 0 -d -1 -p AODV -e 44 -c 2 -a 0 -i 0 -k RTR
+ -t 0.757102330 -s 2 -d -1 -p AODV -e 44 -c 2 -a 0 -i 0 -k RTR 
- -t 0.757102330 -s 2 -d -1 -p AODV -e 44 -c 2 -a 0 -i 0 -k RTR
h -t 0.757102330 -s 2 -d -1 -p AODV -e 44 -c 2 -a 0 -i 0 -k RTR
r -t 0.762409667 -s 1 -d -1 -p AODV -e 44 -c 2 -a 0 -i 0 -k RTR
r -t 0.762409667 -s 5 -d -1 -p AODV -e 44 -c 2 -a 0 -i 0 -k RTR
r -t 0.762409667 -s 3 -d -1 -p AODV -e 44 -c 2 -a 0 -i 0 -k RTR
r -t 0.762409667 -s 7 -d -1 -p AODV -e 44 -c 2 -a 0 -i 0 -k RTR
+ -t 0.771397279 -s 13 -d -1 -p AODV -e 44 -c 2 -a 0 -i 0 -k RTR 
- -t 0.771397279 -s 13 -d -1 -p AODV -e 44 -c 2 -a 0 -i 0 -k RTR
h -t 0.771397279 -s 13 -d -1 -p AODV -e 44 -c 2 -a 0 -i 0 -k RTR
+ -t 0.794061336 -s 3 -d -1 -p AODV -e 44 -c 2 -a 0 -i 0 -k RTR 
- -t 0.794061336 -s 3 -d -1 -p AODV -e 44 -c 2 -a 0 -i 0 -k RTR
h -t 0.794061336 -s 3 -d -1 -p AODV -e 44 -c 2 -a 0 -i 0 -k RTR
+ -t 0.797069427 -s 19 -d -1 -p AODV -e 44 -c 2 -a 0 -i 0 -k RTR 
- -t 0.797069427 -s 19 -d -1 -p AODV -e 44 -c 2 -a 0 -i 0 -k RTR
h -t 0.797069427 -s 19 -d -1 -p AODV -e 44 -c 2 -a 0 -i 0 -k RTR
r -t 0.804409667 -s 2 -d -1 -p AODV -e 44 -c 2 -a 0 -i 0 -k RTR
r -t 0.804409667 -s 4 -d -1 -p AODV -e 44 -c 2 -a 0 -i 0 -k RTR
r -t 0.804409667 -s 8 -d -1 -p AODV -e 44 -c 2 -a 0 -i 0 -k RTR
r -t 0.804409667 -s 12 -d -1 -p AODV -e 44 -c 2 -a 0 -i 0 -k RTR
r -t 0.804409667 -s 14 -d -1 -p AODV -e 44 -c 2 -a 0 -i 0 -k RTR
r -t 0.804409667 -s 18 -d -1 -p AODV -e 44 -c 2 -a 0 -i 0 -k RTR
r -t 0.804409667 -s 24 -d -1 -p AODV -e 44 -c 2 -a 0 -i 0 -k RTR
+ -t 0.806904124 -s 15 -d -1 -p AODV -e 44 -c 2 -a 0 -i 0 -k RTR 
- -t 0.806904124 -s 15 -d -1 -p AODV -e 44 -c 2 -a 0 -i 0 -k RTR
h -t 0.806904124 -s 15 -d -1 -p AODV -e 44 -c 2 -a 0 -i 0 -k RTR
+ -t 0.832072703 -s 12 -d -1 -p AODV -e 44 -c 2 -a 0 -i 0 -k RTR 
- -t 0.832072703 -s 12 -d -1 -p AODV -e 44 -c 2 -a 0 -i 0 -k RTR
h -t 0.832072703 -s 12 -d -1 -p AODV -e 44 -c 2 -a 0 -i 0 -k RTR
+ -t 0.837402627 -s 18 -d -1 -p AODV -e 44 -c 2 -a 0 -i 0 -k RTR 
- -t 0.837402627 -s 18 -d -1 -p AODV -e 44 -c 2 -a 0 -i 0 -k RTR
h -t 0.837402627 -s 18 -d -1 -p AODV -e 44 -c 2 -a 0 -i 0 -k RTR
r -t 0.846409667 -s 11 -d -1 -p AODV -e 44 -c 2 -a 0 -i 0 -k RTR
r -t 0.846409667 -s 7 -d -1 -p AODV -e 44 -c 2 -a 0 -i 0 -k RTR
r -t 0.846409667 -s 13 -d -1 -p AODV -e 44 -c 2 -a 0 -i 0 -k RTR
r -t 0.846409667 -s 17 -d -1 -p AODV -e 44 -c 2 -a 0 -i 0 -k RTR
r -t 0.846409667 -s 10 -d -1 -p AODV -e 44 -c 2 -a 0 -i 0 -k RTR
r -t 0.846409667 -s 16 -d -1 -p AODV -e 44 -c 2 -a 0 -i 0 -k RTR
r -t 0.846409667 -s 20 -d -1 -p AODV -e 44 -c 2 -a 0 -i 0 -k RTR
r -t 0.846409667 -s 19 -d -1 -p AODV -e 44 -c 2 -a 0 -i 0 -k RTR
r -t 0.846409667 -s 23 -d -1 -p AODV -e 44 -c 2 -a 0 -i 0 -k RTR
+ -t 0.867300876 -s 8 -d -1 -p AODV -e 44 -c 2 -a 0 -i 0 -k RTR 
- -t 0.867300876 -s 8 -d -1 -p AODV -e 44 -c 2 -a 0 -i 0 -k RTR
h -t 0.867300876 -s 8 -d -1 -p AODV -e 44 -c 2 -a 0 -i 0 -k RTR
+ -t 0.879043974 -s 22 -d -1 -p AODV -e 44 -c 2 -a 0 -i 0 -k RTR 
- -t 0.879043974 -s 22 -d -1 -p AODV -e 44 -c 2 -a 0 -i 0 -k RTR
h -t 0.879043974 -s 22 -d -1 -p AODV -e 44 -c 2 -a 0 -i 0 -k RTR
r -t 0.888409667 -s 7 -d -1 -p AODV -e 44 -c 2 -a 0 -i 0 -k RTR
r -t 0.888409667 -s 3 -d -1 -p AODV -e 44 -c 2 -a 0 -i 0 -k RTR
r -t 0.888409667 -s 9 -d -1 -p AODV -e 44 -c 2 -a 0 -i 0 -k RTR
r -t 0.888409667 -s 13 -d -1 -p AODV -e 44 -c 2 -a 0 -i 0 -k RTR
r -t 0.888409667 -s 21 -d -1 -p AODV -e 44 -c 2 -a 0 -i 0 -k RTR
r -t 0.888409667 -s 17 -d -1 -p AODV -e 44 -c 2 -a 0 -i 0 -k RTR
r -t 0.888409667 -s 23 -d -1 -p AODV -e 44 -c 2 -a 0 -i 0 -k RTR
+ -t 0.904539529 -s 10 -d -1 -p AODV -e 44 -c 2 -a 0 -i 0 -k RTR 
- -t 0.904539529 -s 10 -d -1 -p AODV -e 44 -c 2 -a 0 -i 0 -k RTR
h -t 0.904539529 -s 10 -d -1 -p AODV -e 44 -c 2 -a 0 -i 0 -k RTR
+ -t 0.906480886 -s 6 -d -1 -p AODV -e 44 -c 2 -a 0 -i 0 -k RTR 
- -t 0.906480886 -s 6 -d -1 -p AODV -e 44 -c 2 -a 0 -i 0 -k RTR
h -t 0.906480886 -s 6 -d -1 -p AODV -e 44 -c 2 -a 0 -i 0 -k RTR
+ -t 0.924370513 -s 21 -d -1 -p AODV -e 44 -c 2 -a 0 -i 0 -k RTR 
- -t 0.924370513 -s 21 -d -1 -p AODV -e 44 -c 2 -a 0 -i 0 -k RTR
h -t 0.924370513 -s 21 -d -1 -p AODV -e 44 -c 2 -a 0 -i 0 -k RTR
r -t 0.930409667 -s 5 -d -1 -p AODV -e 44 -c 2 -a 0 -i 0 -k RTR
r -t 0.930409667 -s 1 -d -1 -p AODV -e 44 -c 2 -a 0 -i 0 -k RTR
r -t 0.930409667 -s 7 -d -1 -p AODV -e 44 -c 2 -a 0 -i 0 -k RTR
r -t 0.930409667 -s 11 -d -1 -p AODV -e 44 -c 2 -a 0 -i 0 -k RTR
r -t 0.930409667 -s 15 -d -1 -p AODV -e 44 -c 2 -a 0 -i 0 -k RTR
r -t 0.930409667 -s 20 -d -1 -p AODV -e 44 -c 2 -a 0 -i 0 -k RTR
r -t 0.930409667 -s 16 -d -1 -p AODV -e 44 -c 2 -a 0 -i 0 -k RTR
r -t 0.930409667 -s 22 -d -1 -p AODV -e 44 -c 2 -a 0 -i 0 -k RTR
+ -t 0.954342838 -s 23 -d -1 -p AODV -e 44 -c 2 -a 0 -i 0 -k RTR 
- -t 0.954342838 -s 23 -d -1 -p AODV -e 44 -c 2 -a 0 -i 0 -k RTR
h -t 0.954342838 -s 23 -d -1 -p AODV -e 44 -c 2 -a 0 -i 0 -k RTR
+ -t 0.961828368 -s 17 -d -1 -p AODV -e 44 -c 2 -a 0 -i 0 -k RTR 
- -t 0.961828368 -s 17 -d -1 -p AODV -e 44 -c 2 -a 0 -i 0 -k RTR
h -t 0.961828368 -s 17 -d -1 -p AODV -e 44 -c 2 -a 0 -i 0 -k RTR
+ -t 0.970586691 -s 4 -d -1 -p AODV -e 44 -c 2 -a 0 -i 0 -k RTR 
- -t 0.970586691 -s 4 -d -1 -p AODV -e 44 -c 2 -a 0 -i 0 -k RTR
h -t 0.970586691 -s 4 -d -1 -p AODV -e 44 -c 2 -a 0 -i 0 -k RTR
r -t 0.972409667 -s 3 -d -1 -p AODV -e 44 -c 2 -a 0 -i 0 -k RTR
r -t 0.972409667 -s 9 -d -1 -p AODV -e 44 -c 2 -a 0 -i 0 -k RTR
r -t 0.972409667 -s 16 -d -1 -p AODV -e 44 -c 2 -a 0 -i 0 -k RTR
r -t 0.972409667 -s 12 -d -1 -p AODV -e 44 -c 2 -a 0 -i 0 -k RTR
r -t 0.972409667 -s 18 -d -1 -p AODV -e 44 -c 2 -a 0 -i 0 -k RTR
r -t 0.972409667 -s 22 -d -1 -p AODV -e 44 -c 2 -a 0 -i 0 -k RTR
r -t 0.972409667 -s 24 -d -1 -p AODV -e 44 -c 2 -a 0 -i 0 -k RTR
+ -t 1.009324397 -s 24 -d -1 -p AODV -e 44 -c 2 -a 0 -i 0 -k RTR 
- -t 1.009324397 -s 24 -d -1 -p AODV -e 44 -c 2 -a 0 -i 0 -k RTR
h -t 1.009324397 -s 24 -d -1 -p AODV -e 44 -c 2 -a 0 -i 0 -k RTR
r -t 1.014409667 -s 23 -d -1 -p AODV -e 44 -c 2 -a 0 -i 0 -k RTR
r -t 1.014409667 -s 19 -d -1 -p AODV -e 44 -c 2 -a 0 -i 0 -k RTR
+ -t 1.027940358 -s 1 -d -1 -p AODV -e 44 -c 2 -a 0 -i 0 -k RTR 
- -t 1.027940358 -s 1 -d -1 -p AODV -e 44 -c 2 -a 0 -i 0 -k RTR
h -t 1.027940358 -s 1 -d -1 -p AODV -e 44 -c 2 -a 0 -i 0 -k RTR
r -t 1.056409667 -s 0 -d -1 -p AODV -e 44 -c 2 -a 0 -i 0 -k RTR
r -t 1.056409667 -s 2 -d -1 -p AODV -e 44 -c 2 -a 0 -i 0 -k RTR
r -t 1.056409667 -s 6 -d -1 -p AODV -e 44 -c 2 -a 0 -i 0 -k RTR
+ -t 1.069432572 -s 9 -d -1 -p AODV -e 44 -c 2 -a 0 -i 0 -k RTR 
- -t 1.069432572 -s 9 -d -1 -p AODV -e 44 -c 2 -a 0 -i 0 -k RTR
h -t 1.069432572 -s 9 -d -1 -p AODV -e 44 -c 2 -a 0 -i 0 -k RTR
+ -t 1.070033830 -s 14 -d -1 -p AODV -e 44 -c 2 -a 0 -i 0 -k RTR 
- -t 1.070033830 -s 14 -d -1 -p AODV -e 44 -c 2 -a 0 -i 0 -k RTR
h -t 1.070033830 -s 14 -d -1 -p AODV -e 44 -c 2 -a 0 -i 0 -k RTR
r -t 1.098409667 -s 8 -d -1 -p AODV -e 44 -c 2 -a 0 -i 0 -k RTR
r -t 1.098409667 -s 4 -d -1 -p AODV -e 44 -c 2 -a 0 -i 0 -k RTR
r -t 1.098409667 -s 13 -d -1 -p AODV -e 44 -c 2 -a 0 -i 0 -k RTR
r -t 1.098409667 -s 19 -d -1 -p AODV -e 44 -c 2 -a 0 -i 0 -k RTR
+ -t 1.149577727 -s 5 -d -1 -p AODV -e 44 -c 2 -a 0 -i 0 -k RTR 
- -t 1.149577727 -s 5 -d -1 -p AODV -e 44 -c 2 -a 0 -i 0 -k RTR
h -t 1.149577727 -s 5 -d -1 -p AODV -e 44 -c 2 -a 0 -i 0 -k RTR
+ -t 1.153514277 -s 20 -d -1 -p AODV -e 44 -c 2 -a 0 -i 0 -k RTR 
- -t 1.153514277 -s 20 -d -1 -p AODV -e 44 -c 2 -a 0 -i 0 -k RTR
h -t 1.153514277 -s 20 -d -1 -p AODV -e 44 -c 2 -a 0 -i 0 -k RTR
+ -t 1.158238026 -s 7 -d -1 -p AODV -e 44 -c 2 -a 0 -i 0 -k RTR 
- -t 1.158238026 -s 7 -d -1 -p AODV -e 44 -c 2 -a 0 -i 0 -k RTR
h -t 1.158238026 -s 7 -d -1 -p AODV -e 44 -c 2 -a 0 -i 0 -k RTR
+ -t 1.168161768 -s 11 -d -1 -p AODV -e 44 -c 2 -a 0 -i 0 -k RTR 
- -t 1.168161768 -s 11 -d -1 -p AODV -e 44 -c 2 -a 0 -i 0 -k RTR
h -t 1.168161768 -s 11 -d -1 -p AODV -e 44 -c 2 -a 0 -i 0 -k RTR
+ -t 1.179863849 -s 16 -d -1 -p AODV -e 44 -c 2 -a 0 -i 0 -k RTR 
- -t 1.179863849 -s 16 -d -1 -p AODV -e 44 -c 2 -a 0 -i 0 -k RTR
h -t 1.179863849 -s 16 -d -1 -p AODV -e 44 -c 2 -a 0 -i 0 -k RTR
r -t 1.182409667 -s 0 -d -1 -p AODV -e 44 -c 2 -a 0 -i 0 -k RTR
r -t 1.182409667 -s 6 -d -1 -p AODV -e 44 -c 2 -a 0 -i 0 -k RTR
r -t 1.182409667 -s 10 -d -1 -p AODV -e 44 -c 2 -a 0 -i 0 -k RTR
r -t 1.182409667 -s 2 -d -1 -p AODV -e 44 -c 2 -a 0 -i 0 -k RTR
r -t 1.182409667 -s 8 -d -1 -p AODV -e 44 -c 2 -a 0 -i 0 -k RTR
r -t 1.182409667 -s 12 -d -1 -p AODV -e 44 -c 2 -a 0 -i 0 -k RTR
r -t 1.182409667 -s 15 -d -1 -p AODV -e 44 -c 2 -a 0 -i 0 -k RTR
r -t 1.182409667 -s 17 -d -1 -p AODV -e 44 -c 2 -a 0 -i 0 -k RTR
r -t 1.182409667 -s 21 -d -1 -p AODV -e 44 -c 2 -a 0 -i 0 -k RTR
+ -t 1.655649157 -s 19 -d -1 -p AODV -e 44 -c 2 -a 0 -i 0 -k RTR 
- -t 1.655649157 -s 19 -d -1 -p AODV -e 44 -c 2 -a 0 -i 0 -k RTR
h -t 1.655649157 -s 19 -d -1 -p AODV -e 44 -c 2 -a 0 -i 0 -k RTR
+ -t 1.677516938 -s 15 -d -1 -p AODV -e 44 -c 2 -a 0 -i 0 -k RTR 
- -t 1.677516938 -s 15 -d -1 -p AODV -e 44 -c 2 -a 0 -i 0 -k RTR
h -t 1.677516938 -s 15 -d -1 -p AODV -e 44 -c 2 -a 0 -i 0 -k RTR
r -t 1.686409667 -s 10 -d -1 -p AODV -e 44 -c 2 -a 0 -i 0 -k RTR
r -t 1.686409667 -s 16 -d -1 -p AODV -e 44 -c 2 -a 0 -i 0 -k RTR
r -t 1.686409667 -s 20 -d -1 -p AODV -e 44 -c 2 -a 0 -i 0 -k RTR
r -t 1.686409667 -s 18 -d -1 -p AODV -e 44 -c 2 -a 0 -i 0 -k RTR
r -t 1.686409667 -s 14 -d -1 -p AODV -e 44 -c 2 -a 0 -i 0 -k RTR
r -t 1.686409667 -s 24 -d -1 -p AODV -e 44 -c 2 -a 0 -i 0 -k RTR
+ -t 1.711080122 -s 6 -d -1 -p AODV -e 44 -c 2 -a 0 -i 0 -k RTR 
- -t 1.711080122 -s 6 -d -1 -p AODV -e 44 -c 2 -a 0 -i 0 -k RTR
h -t 1.711080122 -s 6 -d -1 -p AODV -e 44 -c 2 -a 0 -i 0 -k RTR
r -t 1.728409667 -s 5 -d -1 -p AODV -e 44 -c 2 -a 0 -i 0 -k RTR
r -t 1.728409667 -s 1 -d -1 -p AODV -e 44 -c 2 -a 0 -i 0 -k RTR
r -t 1.728409667 -s 7 -d -1 -p AODV -e 44 -c 2 -a 0 -i 0 -k RTR
r -t 1.728409667 -s 11 -d -1 -p AODV -e 44 -c 2 -a 0 -i 0 -k RTR
+ -t 1.733227757 -s 0 -d -1 -p AODV -e 44 -c 2 -a 0 -i 0 -k RTR 
- -t 1.733227757 -s 0 -d -1 -p AODV -e 44 -c 2 -a 0 -i 0 -k RTR
h -t 1.733227757 -s 0 -d -1 -p AODV -e 44 -c 2 -a 0 -i 0 -k RTR
r -t 1.770409667 -s 1 -d -1 -p AODV -e 44 -c 2 -a 0 -i 0 -k RTR
r -t 1.770409667 -s 5 -d -1 -p AODV -e 44 -c 2 -a 0 -i 0 -k RTR
+ -t 1.798025459 -s 23 -d -1 -p AODV -e 44 -c 2 -a 0 -i 0 -k RTR 
- -t 1.798025459 -s 23 -d -1 -p AODV -e 44 -c 2 -a 0 -i 0 -k RTR
h -t 1.798025459 -s 23 -d -1 -p AODV -e 44 -c 2 -a 0 -i 0 -k RTR
r -t 1.812409667 -s 22 -d -1 -p AODV -e 44 -c 2 -a 0 -i 0 -k RTR
r -t 1.812409667 -s 18 -d -1 -p AODV -e 44 -c 2 -a 0 -i 0 -k RTR
r -t 1.812409667 -s 24 -d -1 -p AODV -e 44 -c 2 -a 0 -i 0 -k RTR
+ -t 1.825437999 -s 14 -d -1 -p AODV -e 44 -c 2 -a 0 -i 0 -k RTR 
- -t 1.825437999 -s 14 -d -1 -p AODV -e 44 -c 2 -a 0 -i 0 -k RTR
h -t 1.825437999 -s 14 -d -1 -p AODV -e 44 -c 2 -a 0 -i 0 -k RTR
+ -t 1.833956016 -s 1 -d -1 -p AODV -e 44 -c 2 -a 0 -i 0 -k RTR 
- -t 1.833956016 -s 1 -d -1 -p AODV -e 44 -c 2 -a 0 -i 0 -k RTR
h -t 1.833956016 -s 1 -d -1 -p AODV -e 44 -c 2 -a 0 -i 0 -k RTR
+ -t 1.848633885 -s 9 -d -1 -p AODV -e 44 -c 2 -a 0 -i 0 -k RTR 
- -t 1.848633885 -s 9 -d -1 -p AODV -e 44 -c 2 -a 0 -i 0 -k RTR
h -t 1.848633885 -s 9 -d -1 -p AODV -e 44 -c 2 -a 0 -i 0 -k RTR
+ -t 1.853255747 -s 2 -d -1 -p AODV -e 44 -c 2 -a 0 -i 0 -k RTR 
- -t 1.853255747 -s 2 -d -1 -p AODV -e 44 -c 2 -a 0 -i 0 -k RTR
h -t 1.853255747 -s 2 -d -1 -p AODV -e 44 -c 2 -a 0 -i 0 -k RTR
r -t 1.854409667 -s 0 -d -1 -p AODV -e 44 -c 2 -a 0 -i 0 -k RTR
r -t 1.854409667 -s 6 -d -1 -p AODV -e 44 -c 2 -a 0 -i 0 -k RTR
r -t 1.854409667 -s 3 -d -1 -p AODV -e 44 -c 2 -a 0 -i 0 -k RTR
r -t 1.854409667 -s 7 -d -1 -p AODV -e 44 -c 2 -a 0 -i 0 -k RTR
r -t 1.854409667 -s 8 -d -1 -p AODV -e 44 -c 2 -a 0 -i 0 -k RTR
r -t 1.854409667 -s 4 -d -1 -p AODV -e 44 -c 2 -a 0 -i 0 -k RTR
r -t 1.854409667 -s 13 -d -1 -p AODV -e 44 -c 2 -a 0 -i 0 -k RTR
r -t 1.854409667 -s 19 -d -1 -p AODV -e 44 -c 2 -a 0 -i 0 -k RTR
+ -t 1.857299068 -s 10 -d -1 -p AODV -e 44 -c 2 -a 0 -i 0 -k RTR 
- -t 1.857299068 -s 10 -d -1 -p AODV -e 44 -c 2 -a 0 -i 0 -k RTR
h -t 1.857299068 -s 10 -d -1 -p AODV -e 44 -c 2 -a 0 -i 0 -k RTR
+ -t 1.876474277 -s 21 -d -1 -p AODV -e 44 -c 2 -a 0 -i 0 -k RTR 
- -t 1.876474277 -s 21 -d -1 -p AODV -e 44 -c 2 -a 0 -i 0 -k RTR
h -t 1.876474277 -s 21 -d -1 -p AODV -e 44 -c 2 -a 0 -i 0 -k RTR
r -t 1.896409667 -s 5 -d -1 -p AODV -e 44 -c 2 -a 0 -i 0 -k RTR
r -t 1.896409667 -s 11 -d -1 -p AODV -e 44 -c 2 -a 0 -i 0 -k RTR
r -t 1.896409667 -s 15 -d -1 -p AODV -e 44 -c 2 -a 0 -i 0 -k RTR
r -t 1.896409667 -s 20 -d -1 -p AODV -e 44 -c 2 -a 0 -i 0 -k RTR
r -t 1.896409667 -s 16 -d -1 -p AODV -e 44 -c 2 -a 0 -i 0 -k RTR
r -t 1.896409667 -s 22 -d -1 -p AODV -e 44 -c 2 -a 0 -i 0 -k RTR
+ -t 1.926077098 -s 18 -d -1 -p AODV -e 44 -c 2 -a 0 -i 0 -k RTR 
- -t 1.926077098 -s 18 -d -1 -p AODV -e 44 -c 2 -a 0 -i 0 -k RTR
h -t 1.926077098 -s 18 -d -1 -p AODV -e 44 -c 2 -a 0 -i 0 -k RTR
r -t 1.938409667 -s 17 -d -1 -p AODV -e 44 -c 2 -a 0 -i 0 -k RTR
r -t 1.938409667 -s 13 -d -1 -p AODV -e 44 -c 2 -a 0 -i 0 -k RTR
r -t 1.938409667 -s 19 -d -1 -p AODV -e 44 -c 2 -a 0 -i 0 -k RTR
r -t 1.938409667 -s 23 -d -1 -p AODV -e 44 -c 2 -a 0 -i 0 -k RTR
+ -t 1.952430919 -s 13 -d -1 -p AODV -e 44 -c 2 -a 0 -i 0 -k RTR 
- -t 1.952430919 -s 13 -d -1 -p AODV -e 44 -c 2 -a 0 -i 0 -k RTR
h -t 1.952430919 -s 13 -d -1 -p AODV -e 44 -c 2 -a 0 -i 0 -k RTR
+ -t 1.963973937 -s 3 -d -1 -p AODV -e 44 -c 2 -a 0 -i 0 -k RTR 
- -t 1.963973937 -s 3 -d -1 -p AODV -e 44 -c 2 -a 0 -i 0 -k RTR
h -t 1.963973937 -s 3 -d -1 -p AODV -e 44 -c 2 -a 0 -i 0 -k RTR
+ -t 1.969789774 -s 7 -d -1 -p AODV -e 44 -c 2 -a 0 -i 0 -k RTR 
- -t 1.969789774 -s 7 -d -1 -p AODV -e 44 -c 2 -a 0 -i 0 -k RTR
h -t 1.969789774 -s 7 -d -1 -p AODV -e 44 -c 2 -a 0 -i 0 -k RTR
r -t 1.980409667 -s 2 -d -1 -p AODV -e 44 -c 2 -a 0 -i 0 -k RTR
r -t 1.980409667 -s 4 -d -1 -p AODV -e 44 -c 2 -a 0 -i 0 -k RTR
r -t 1.980409667 -s 8 -d -1 -p AODV -e 44 -c 2 -a 0 -i 0 -k RTR
r -t 1.980409667 -s 6 -d -1 -p AODV -e 44 -c 2 -a 0 -i 0 -k RTR
r -t 1.980409667 -s 12 -d -1 -p AODV -e 44 -c 2 -a 0 -i 0 -k RTR
r -t 1.980409667 -s 14 -d -1 -p AODV -e 44 -c 2 -a 0 -i 0 -k RTR
r -t 1.980409667 -s 18 -d -1 -p AODV -e 44 -c 2 -a 0 -i 0 -k RTR
+ -t 1.998416822 -s 8 -d -1 -p AODV -e 44 -c 2 -a 0 -i 0 -k RTR 
- -t 1.998416822 -s 8 -d -1 -p AODV -e 44 -c 2 -a 0 -i 0 -k RTR
h -t 1.998416822 -s 8 -d -1 -p AODV -e 44 -c 2 -a 0 -i 0 -k RTR
+ -t 2.007625979 -s 12 -d -1 -p AODV -e 44 -c 2 -a 0 -i 0 -k RTR 
- -t 2.007625979 -s 12 -d -1 -p AODV -e 44 -c 2 -a 0 -i 0 -k RTR
h -t 2.007625979 -s 12 -d -1 -p AODV -e 44 -c 2 -a 0 -i 0 -k RTR
r -t 2.022409667 -s 7 -d -1 -p AODV -e 44 -c 2 -a 0 -i 0 -k RTR
r -t 2.022409667 -s 3 -d -1 -p AODV -e 44 -c 2 -a 0 -i 0 -k RTR
r -t 2.022409667 -s 9 -d -1 -p AODV -e 44 -c 2 -a 0 -i 0 -k RTR
r -t 2.022409667 -s 13 -d -1 -p AODV -e 44 -c 2 -a 0 -i 0 -k RTR
r -t 2.022409667 -s 11 -d -1 -p AODV -e 44 -c 2 -a 0 -i 0 -k RTR
r -t 2.022409667 -s 17 -d -1 -p AODV -e 44 -c 2 -a 0 -i 0 -k RTR
+ -t 2.058360718 -s 16 -d -1 -p AODV -e 44 -c 2 -a 0 -i 0 -k RTR 
- -t 2.058360718 -s 16 -d -1 -p AODV -e 44 -c 2 -a 0 -i 0 -k RTR
h -t 2.058360718 -s 16 -d -1 -p AODV -e 44 -c 2 -a 0 -i 0 -k RTR
r -t 2.064409667 -s 15 -d -1 -p AODV -e 44 -c 2 -a 0 -i 0 -k RTR
r -t 2.064409667 -s 11 -d -1 -p AODV -e 44 -c 2 -a 0 -i 0 -k RTR
r -t 2.064409667 -s 17 -d -1 -p AODV -e 44 -c 2 -a 0 -i 0 -k RTR
r -t 2.064409667 -s 21 -d -1 -p AODV -e 44 -c 2 -a 0 -i 0 -k RTR
+ -t 2.071345656 -s 20 -d -1 -p AODV -e 44 -c 2 -a 0 -i 0 -k RTR 
- -t 2.071345656 -s 20 -d -1 -p AODV -e 44 -c 2 -a 0 -i 0 -k RTR
h -t 2.071345656 -s 20 -d -1 -p AODV -e 44 -c 2 -a 0 -i 0 -k RTR
+ -t 2.081516709 -s 22 -d -1 -p AODV -e 44 -c 2 -a 0 -i 0 -k RTR 
- -t 2.081516709 -s 22 -d -1 -p AODV -e 44 -c 2 -a 0 -i 0 -k RTR
h -t 2.081516709 -s 22 -d -1 -p AODV -e 44 -c 2 -a 0 -i 0 -k RTR
r -t 2.106409667 -s 15 -d -1 -p AODV -e 44 -c 2 -a 0 -i 0 -k RTR
r -t 2.106409667 -s 21 -d -1 -p AODV -e 44 -c 2 -a 0 -i 0 -k RTR
r -t 2.106409667 -s 17 -d -1 -p AODV -e 44 -c 2 -a 0 -i 0 -k RTR
r -t 2.106409667 -s 23 -d -1 -p AODV -e 44 -c 2 -a 0 -i 0 -k RTR
+ -t 2.155550141 -s 17 -d -1 -p AODV -e 44 -c 2 -a 0 -i 0 -k RTR 
- -t 2.155550141 -s 17 -d -1 -p AODV -e 44 -c 2 -a 0 -i 0 -k RTR
h -t 2.155550141 -s 17 -d -1 -p AODV -e 44 -c 2 -a 0 -i 0 -k RTR
r -t 2.190409667 -s 16 -d -1 -p AODV -e 44 -c 2 -a 0 -i 0 -k RTR
r -t 2.190409667 -s 12 -d -1 -p AODV -e 44 -c 2 -a 0 -i 0 -k RTR
r -t 2.190409667 -s 18 -d -1 -p AODV -e 44 -c 2 -a 0 -i 0 -k RTR
r -t 2.190409667 -s 22 -d -1 -p AODV -e 44 -c 2 -a 0 -i 0 -k RTR
+ -t 2.193719168 -s 4 -d -1 -p AODV -e 44 -c 2 -a 0 -i 0 -k RTR 
- -t 2.193719168 -s 4 -d -1 -p AODV -e 44 -c 2 -a 0 -i 0 -k RTR
h -t 2.193719168 -s 4 -d -1 -p AODV -e 44 -c 2 -a 0 -i 0 -k RTR
+ -t 2.197091421 -s 5 -d -1 -p AODV -e 44 -c 2 -a 0 -i 0 -k RTR 
- -t 2.197091421 -s 5 -d -1 -p AODV -e 44 -c 2 -a 0 -i 0 -k RTR
h -t 2.197091421 -s 5 -d -1 -p AODV -e 44 -c 2 -a 0 -i 0 -k RTR
+ -t 2.204998308 -s 24 -d -1 -p AODV -e 44 -c 2 -a 0 -i 0 -k RTR 
- -t 2.204998308 -s 24 -d -1 -p AODV -e 44 -c 2 -a 0 -i 0 -k RTR
h -t 2.204998308 -s 24 -d -1 -p AODV -e 44 -c 2 -a 0 -i 0 -k RTR
r -t 2.232409667 -s 3 -d -1 -p AODV -e 44 -c 2 -a 0 -i 0 -k RTR
r -t 2.232409667 -s 9 -d -1 -p AODV -e 44 -c 2 -a 0 -i 0 -k RTR
r -t 2.232409667 -s 0 -d -1 -p AODV -e 44 -c 2 -a 0 -i 0 -k RTR
r -t 2.232409667 -s 6 -d -1 -p AODV -e 44 -c 2 -a 0 -i 0 -k RTR
r -t 2.232409667 -s 10 -d -1 -p AODV -e 44 -c 2 -a 0 -i 0 -k RTR
r -t 2.232409667 -s 23 -d -1 -p AODV -e 44 -c 2 -a 0 -i 0 -k RTR
r -t 2.232409667 -s 19 -d -1 -p AODV -e 44 -c 2 -a 0 -i 0 -k RTR
+ -t 2.252473715 -s 11 -d -1 -p AODV -e 44 -c 2 -a 0 -i 0 -k RTR 
- -t 2.252473715 -s 11 -d -1 -p AODV -e 44 -c 2 -a 0 -i 0 -k RTR
h -t 2.252473715 -s 11 -d -1 -p AODV -e 44 -c 2 -a 0 -i 0 -k RTR
r -t 2.274409667 -s 10 -d -1 -p AODV -e 44 -c 2 -a 0 -i 0 -k RTR
r -t 2.274409667 -s 6 -d -1 -p AODV -e 44 -c 2 -a 0 -i 0 -k RTR
r -t 2.274409667 -s 12 -d -1 -p AODV -e 44 -c 2 -a 0 -i 0 -k RTR
r -t 2.274409667 -s 16 -d -1 -p AODV -e 44 -c 2 -a 0 -i 0 -k RTR
+ -t 2.597734752 -s 1 -d -1 -p AODV -e 44 -c 2 -a 0 -i 0 -k RTR 
- -t 2.597734752 -s 1 -d -1 -p AODV -e 44 -c 2 -a 0 -i 0 -k RTR
h -t 2.597734752 -s 1 -d -1 -p AODV -e 44 -c 2 -a 0 -i 0 -k RTR
r -t 2.610409667 -s 0 -d -1 -p AODV -e 44 -c 2 -a 0 -i 0 -k RTR
r -t 2.610409667 -s 2 -d -1 -p AODV -e 44 -c 2 -a 0 -i 0 -k RTR
r -t 2.610409667 -s 6 -d -1 -p AODV -e 44 -c 2 -a 0 -i 0 -k RTR
+ -t 2.614139830 -s 0 -d -1 -p AODV -e 44 -c 2 -a 0 -i 0 -k RTR 
- -t 2.614139830 -s 0 -d -1 -p AODV -e 44 -c 2 -a 0 -i 0 -k RTR
h -t 2.614139830 -s 0 -d -1 -p AODV -e 44 -c 2 -a 0 -i 0 -k RTR
r -t 2.652409667 -s 1 -d -1 -p AODV -e 44 -c 2 -a 0 -i 0 -k RTR
r -t 2.652409667 -s 5 -d -1 -p AODV -e 44 -c 2 -a 0 -i 0 -k RTR
+ -t 2.696362873 -s 2 -d -1 -p AODV -e 44 -c 2 -a 0 -i 0 -k RTR 
- -t 2.696362873 -s 2 -d -1 -p AODV -e 44 -c 2 -a 0 -i 0 -k RTR
h -t 2.696362873 -s 2 -d -1 -p AODV -e 44 -c 2 -a 0 -i 0 -k RTR
+ -t 2.699927922 -s 15 -d -1 -p AODV -e 44 -c 2 -a 0 -i 0 -k RTR 
- -t 2.699927922 -s 15 -d -1 -p AODV -e 44 -c 2 -a 0 -i 0 -k RTR
h -t 2.699927922 -s 15 -d -1 -p AODV -e 44 -c 2 -a 0 -i 0 -k RTR
r -t 2.736409667 -s 1 -d -1 -p AODV -e 44 -c 2 -a 0 -i 0 -k RTR
r -t 2.736409667 -s 3 -d -1 -p AODV -e 44 -c 2 -a 0 -i 0 -k RTR
r -t 2.736409667 -s 7 -d -1 -p AODV -e 44 -c 2 -a 0 -i 0 -k RTR
r -t 2.736409667 -s 10 -d -1 -p AODV -e 44 -c 2 -a 0 -i 0 -k RTR
r -t 2.736409667 -s 16 -d -1 -p AODV -e 44 -c 2 -a 0 -i 0 -k RTR
r -t 2.736409667 -s 20 -d -1 -p AODV -e 44 -c 2 -a 0 -i 0 -k RTR
+ -t 2.754985770 -s 19 -d -1 -p AODV -e 44 -c 2 -a 0 -i 0 -k RTR 
- -t 2.754985770 -s 19 -d -1 -p AODV -e 44 -c 2 -a 0 -i 0 -k RTR
h -t 2.754985770 -s 19 -d -1 -p AODV -e 44 -c 2 -a 0 -i 0 -k RTR
+ -t 2.762292385 -s 9 -d -1 -p AODV -e 44 -c 2 -a 0 -i 0 -k RTR 
- -t 2.762292385 -s 9 -d -1 -p AODV -e 44 -c 2 -a 0 -i 0 -k RTR
h -t 2.762292385 -s 9 -d -1 -p AODV -e 44 -c 2 -a 0 -i 0 -k RTR
r -t 2.778409667 -s 8 -d -1 -p AODV -e 44 -c 2 -a 0 -i 0 -k RTR
r -t 2.778409667 -s 4 -d -1 -p AODV -e 44 -c 2 -a 0 -i 0 -k RTR
r -t 2.778409667 -s 14 -d -1 -p AODV -e 44 -c 2 -a 0 -i 0 -k RTR
r -t 2.778409667 -s 18 -d -1 -p AODV -e 44 -c 2 -a 0 -i 0 -k RTR
r -t 2.778409667 -s 24 -d -1 -p AODV -e 44 -c 2 -a 0 -i 0 -k RTR
+ -t 2.788281638 -s 14 -d -1 -p AODV -e 44 -c 2 -a 0 -i 0 -k RTR 
- -t 2.788281638 -s 14 -d -1 -p AODV -e 44 -c 2 -a 0 -i 0 -k RTR
h -t 2.788281638 -s 14 -d -1 -p AODV -e 44 -c 2 -a 0 -i 0 -k RTR
+ -t 2.803304437 -s 12 -d -1 -p AODV -e 44 -c 2 -a 0 -i 0 -k RTR 
- -t 2.803304437 -s 12 -d -1 -p AODV -e 44 -c 2 -a 0 -i 0 -k RTR
h -t 2.803304437 -s 12 -d -1 -p AODV -e 44 -c 2 -a 0 -i 0 -k RTR
+ -t 2.805797934 -s 13 -d -1 -p AODV -e 44 -c 2 -a 0 -i 0 -k RTR 
- -t 2.805797934 -s 13 -d -1 -p AODV -e 44 -c 2 -a 0 -i 0 -k RTR
h -t 2.805797934 -s 13 -d -1 -p AODV -e 44 -c 2 -a 0 -i 0 -k RTR
+ -t 2.809153699 -s 7 -d -1 -p AODV -e 44 -c 2 -a 0 -i 0 -k RTR 
- -t 2.809153699 -s 7 -d -1 -p AODV -e 44 -c 2 -a 0 -i 0 -k RTR
h -t 2.809153699 -s 7 -d -1 -p AODV -e 44 -c 2 -a 0 -i 0 -k RTR
r -t 2.820409667 -s 6 -d -1 -p AODV -e 44 -c 2 -a 0 -i 0 -k RTR
r -t 2.820409667 -s 2 -d -1 -p AODV -e 44 -c 2 -a 0 -i 0 -k RTR
r -t 2.820409667 -s 8 -d -1 -p AODV -e 44 -c 2 -a 0 -i 0 -k RTR
r -t 2.820409667 -s 11 -d -1 -p AODV -e 44 -c 2 -a 0 -i 0 -k RTR
r -t 2.820409667 -s 17 -d -1 -p AODV -e 44 -c 2 -a 0 -i 0 -k RTR
r -t 2.820409667 -s 18 -d -1 -p AODV -e 44 -c 2 -a 0 -i 0 -k RTR
r -t 2.820409667 -s 9 -d -1 -p AODV -e 44 -c 2 -a 0 -i 0 -k RTR
r -t 2.820409667 -s 19 -d -1 -p AODV -e 44 -c 2 -a 0 -i 0 -k RTR
+ -t 2.825445296 -s 23 -d -1 -p AODV -e 44 -c 2 -a 0 -i 0 -k RTR 
- -t 2.825445296 -s 23 -d -1 -p AODV -e 44 -c 2 -a 0 -i 0 -k RTR
h -t 2.825445296 -s 23 -d -1 -p AODV -e 44 -c 2 -a 0 -i 0 -k RTR
+ -t 2.846412358 -s 20 -d -1 -p AODV -e 44 -c 2 -a 0 -i 0 -k RTR 
- -t 2.846412358 -s 20 -d -1 -p AODV -e 44 -c 2 -a 0 -i 0 -k RTR
h -t 2.846412358 -s 20 -d -1 -p AODV -e 44 -c 2 -a 0 -i 0 -k RTR
r -t 2.862409667 -s 15 -d -1 -p AODV -e 44 -c 2 -a 0 -i 0 -k RTR
r -t 2.862409667 -s 21 -d -1 -p AODV -e 44 -c 2 -a 0 -i 0 -k RTR
r -t 2.862409667 -s 22 -d -1 -p AODV -e 44 -c 2 -a 0 -i 0 -k RTR
r -t 2.862409667 -s 18 -d -1 -p AODV -e 44 -c 2 -a 0 -i 0 -k RTR
r -t 2.862409667 -s 24 -d -1 -p AODV -e 44 -c 2 -a 0 -i 0 -k RTR
+ -t 2.899407959 -s 6 -d -1 -p AODV -e 44 -c 2 -a 0 -i 0 -k RTR 
- -t 2.899407959 -s 6 -d -1 -p AODV -e 44 -c 2 -a 0 -i 0 -k RTR
h -t 2.899407959 -s 6 -d -1 -p AODV -e 44 -c 2 -a 0 -i 0 -k RTR
r -t 2.904409667 -s 5 -d -1 -p AODV -e 44 -c 2 -a 0 -i 0 -k RTR
r -t 2.904409667 -s 1 -d -1 -p AODV -e 44 -c 2 -a 0 -i 0 -k RTR
r -t 2.904409667 -s 7 -d -1 -p AODV -e 44 -c 2 -a 0 -i 0 -k RTR
r -t 2.904409667 -s 11 -d -1 -p AODV -e 44 -c 2 -a 0 -i 0 -k RTR
+ -t 2.999098381 -s 24 -d -1 -p AODV -e 44 -c 2 -a 0 -i 0 -k RTR 
- -t 2.999098381 -s 24 -d -1 -p AODV -e 44 -c 2 -a 0 -i 0 -k RTR
h -t 2.999098381 -s 24 -d -1 -p AODV -e 44 -c 2 -a 0 -i 0 -k RTR
+ -t 2.999792619 -s 10 -d -1 -p AODV -e 44 -c 2 -a 0 -i 0 -k RTR 
- -t 2.999792619 -s 10 -d -1 -p AODV -e 44 -c 2 -a 0 -i 0 -k RTR
h -t 2.999792619 -s 10 -d -1 -p AODV -e 44 -c 2 -a 0 -i 0 -k RTR
r -t 3.030409667 -s 5 -d -1 -p AODV -e 44 -c 2 -a 0 -i 0 -k RTR
r -t 3.030409667 -s 11 -d -1 -p AODV -e 44 -c 2 -a 0 -i 0 -k RTR
r -t 3.030409667 -s 15 -d -1 -p AODV -e 44 -c 2 -a 0 -i 0 -k RTR
r -t 3.030409667 -s 23 -d -1 -p AODV -e 44 -c 2 -a 0 -i 0 -k RTR
r -t 3.030409667 -s 19 -d -1 -p AODV -e 44 -c 2 -a 0 -i 0 -k RTR
+ -t 3.054221570 -s 16 -d -1 -p AODV -e 44 -c 2 -a 0 -i 0 -k RTR 