s 0.000000000 _4_ AGT  --- 0 cbr 210 [0 0 0 0] ------- [4:0 3:0 32 0] [0] 0 0
r 0.000000000 _4_ RTR  --- 0 cbr 210 [0 0 0 0] ------- [4:0 3:0 32 0] [0] 0 0
s 0.000000000 _4_ RTR  --- 0 AODV 48 [0 0 0 0] ------- [4:255 -1:255 30 0] [0x2 1 1 [3 0] [4 4]] (REQUEST)
s 0.005600000 _4_ AGT  --- 1 cbr 210 [0 0 0 0] ------- [4:0 3:0 32 0] [1] 0 0
r 0.005600000 _4_ RTR  --- 1 cbr 210 [0 0 0 0] ------- [4:0 3:0 32 0] [1] 0 0
r 0.006425400 _3_ RTR  --- 0 AODV 48 [0 ffffffff 4 0] ------- [4:255 -1:255 30 0] [0x2 1 1 [3 0] [4 4]] (REQUEST)
s 0.006425400 _3_ RTR  --- 0 AODV 44 [0 0 0 0] ------- [3:255 4:255 30 4] [0x4 1 [3 4] 10.000000] (REPLY)
s 0.011200000 _4_ AGT  --- 2 cbr 210 [0 0 0 0] ------- [4:0 3:0 32 0] [2] 0 0
r 0.011200000 _4_ RTR  --- 2 cbr 210 [0 0 0 0] ------- [4:0 3:0 32 0] [2] 0 0
s 0.016800000 _4_ AGT  --- 3 cbr 210 [0 0 0 0] ------- [4:0 3:0 32 0] [3] 0 0
r 0.016800000 _4_ RTR  --- 3 cbr 210 [0 0 0 0] ------- [4:0 3:0 32 0] [3] 0 0
s 0.022400000 _4_ AGT  --- 4 cbr 210 [0 0 0 0] ------- [4:0 3:0 32 0] [4] 0 0
r 0.022400000 _4_ RTR  --- 4 cbr 210 [0 0 0 0] ------- [4:0 3:0 32 0] [4] 0 0
s 0.028000000 _4_ AGT  --- 5 cbr 210 [0 0 0 0] ------- [4:0 3:0 32 0] [5] 0 0
r 0.028000000 _4_ RTR  --- 5 cbr 210 [0 0 0 0] ------- [4:0 3:0 32 0] [5] 0 0
s 0.033600000 _4_ AGT  --- 6 cbr 210 [0 0 0 0] ------- [4:0 3:0 32 0] [6] 0 0
r 0.033600000 _4_ RTR  --- 6 cbr 210 [0 0 0 0] ------- [4:0 3:0 32 0] [6] 0 0
s 0.039200000 _4_ AGT  --- 7 cbr 210 [0 0 0 0] ------- [4:0 3:0 32 0] [7] 0 0
r 0.039200000 _4_ RTR  --- 7 cbr 210 [0 0 0 0] ------- [4:0 3:0 32 0] [7] 0 0
s 0.044800000 _4_ AGT  --- 8 cbr 210 [0 0 0 0] ------- [4:0 3:0 32 0] [8] 0 0
r 0.044800000 _4_ RTR  --- 8 cbr 210 [0 0 0 0] ------- [4:0 3:0 32 0] [8] 0 0
s 0.050400000 _4_ AGT  --- 9 cbr 210 [0 0 0 0] ------- [4:0 3:0 32 0] [9] 0 0
r 0.050400000 _4_ RTR  --- 9 cbr 210 [0 0 0 0] ------- [4:0 3:0 32 0] [9] 0 0
s 0.056000000 _4_ AGT  --- 10 cbr 210 [0 0 0 0] ------- [4:0 3:0 32 0] [10] 0 0
r 0.056000000 _4_ RTR  --- 10 cbr 210 [0 0 0 0] ------- [4:0 3:0 32 0] [10] 0 0
s 0.061600000 _4_ AGT  --- 11 cbr 210 [0 0 0 0] ------- [4:0 3:0 32 0] [11] 0 0
r 0.061600000 _4_ RTR  --- 11 cbr 210 [0 0 0 0] ------- [4:0 3:0 32 0] [11] 0 0
r 0.066409400 _4_ RTR  --- 0 AODV 44 [5 4 3 0] ------- [3:255 4:255 30 4] [0x4 1 [3 4] 10.000000] (REPLY)
s 0.066409400 _4_ RTR  --- 0 cbr 230 [0 0 0 0] ------- [4:0 3:0 30 3] [0] 0 0
s 0.067200000 _4_ AGT  --- 12 cbr 210 [0 0 0 0] ------- [4:0 3:0 32 0] [12] 0 0
r 0.067200000 _4_ RTR  --- 12 cbr 210 [0 0 0 0] ------- [4:0 3:0 32 0] [12] 0 0
s 0.067200000 _4_ RTR  --- 12 cbr 230 [0 0 0 0] ------- [4:0 3:0 30 3] [12] 0 0
s 0.072800000 _4_ AGT  --- 13 cbr 210 [0 0 0 0] ------- [4:0 3:0 32 0] [13] 0 0
r 0.072800000 _4_ RTR  --- 13 cbr 210 [0 0 0 0] ------- [4:0 3:0 32 0] [13] 0 0
s 0.072800000 _4_ RTR  --- 13 cbr 230 [0 0 0 0] ------- [4:0 3:0 30 3] [13] 0 0
r 0.073153400 _3_ AGT  --- 0 cbr 230 [5 3 4 0] ------- [4:0 3:0 30 3] [0] 1 0
s 0.076409400 _4_ RTR  --- 1 cbr 230 [0 0 0 0] ------- [4:0 3:0 30 3] [1] 0 0
s 0.078400000 _4_ AGT  --- 14 cbr 210 [0 0 0 0] ------- [4:0 3:0 32 0] [14] 0 0
r 0.078400000 _4_ RTR  --- 14 cbr 210 [0 0 0 0] ------- [4:0 3:0 32 0] [14] 0 0
s 0.078400000 _4_ RTR  --- 14 cbr 230 [0 0 0 0] ------- [4:0 3:0 30 3] [14] 0 0
s 0.084000000 _4_ AGT  --- 15 cbr 210 [0 0 0 0] ------- [4:0 3:0 32 0] [15] 0 0
r 0.084000000 _4_ RTR  --- 15 cbr 210 [0 0 0 0] ------- [4:0 3:0 32 0] [15] 0 0
s 0.084000000 _4_ RTR  --- 15 cbr 230 [0 0 0 0] ------- [4:0 3:0 30 3] [15] 0 0
s 0.086409400 _4_ RTR  --- 2 cbr 230 [0 0 0 0] ------- [4:0 3:0 30 3] [2] 0 0
s 0.089600000 _4_ AGT  --- 16 cbr 210 [0 0 0 0] ------- [4:0 3:0 32 0] [16] 0 0
r 0.089600000 _4_ RTR  --- 16 cbr 210 [0 0 0 0] ------- [4:0 3:0 32 0] [16] 0 0
s 0.089600000 _4_ RTR  --- 16 cbr 230 [0 0 0 0] ------- [4:0 3:0 30 3] [16] 0 0
s 0.095200000 _4_ AGT  --- 17 cbr 210 [0 0 0 0] ------- [4:0 3:0 32 0] [17] 0 0
r 0.095200000 _4_ RTR  --- 17 cbr 210 [0 0 0 0] ------- [4:0 3:0 32 0] [17] 0 0
s 0.095200000 _4_ RTR  --- 17 cbr 230 [0 0 0 0] ------- [4:0 3:0 30 3] [17] 0 0
s 0.096409400 _4_ RTR  --- 3 cbr 230 [0 0 0 0] ------- [4:0 3:0 30 3] [3] 0 0
s 0.100800000 _4_ AGT  --- 18 cbr 210 [0 0 0 0] ------- [4:0 3:0 32 0] [18] 0 0
r 0.100800000 _4_ RTR  --- 18 cbr 210 [0 0 0 0] ------- [4:0 3:0 32 0] [18] 0 0
s 0.100800000 _4_ RTR  --- 18 cbr 230 [0 0 0 0] ------- [4:0 3:0 30 3] [18] 0 0
r 0.103153400 _3_ AGT  --- 12 cbr 230 [5 3 4 0] ------- [4:0 3:0 30 3] [12] 1 0
s 0.106400000 _4_ AGT  --- 19 cbr 210 [0 0 0 0] ------- [4:0 3:0 32 0] [19] 0 0
r 0.106400000 _4_ RTR  --- 19 cbr 210 [0 0 0 0] ------- [4:0 3:0 32 0] [19] 0 0
s 0.106400000 _4_ RTR  --- 19 cbr 230 [0 0 0 0] ------- [4:0 3:0 30 3] [19] 0 0
s 0.106409400 _4_ RTR  --- 4 cbr 230 [0 0 0 0] ------- [4:0 3:0 30 3] [4] 0 0
s 0.112000000 _4_ AGT  --- 20 cbr 210 [0 0 0 0] ------- [4:0 3:0 32 0] [20] 0 0
r 0.112000000 _4_ RTR  --- 20 cbr 210 [0 0 0 0] ------- [4:0 3:0 32 0] [20] 0 0
s 0.112000000 _4_ RTR  --- 20 cbr 230 [0 0 0 0] ------- [4:0 3:0 30 3] [20] 0 0
s 0.116409400 _4_ RTR  --- 5 cbr 230 [0 0 0 0] ------- [4:0 3:0 30 3] [5] 0 0
s 0.117600000 _4_ AGT  --- 21 cbr 210 [0 0 0 0] ------- [4:0 3:0 32 0] [21] 0 0
r 0.117600000 _4_ RTR  --- 21 cbr 210 [0 0 0 0] ------- [4:0 3:0 32 0] [21] 0 0
s 0.117600000 _4_ RTR  --- 21 cbr 230 [0 0 0 0] ------- [4:0 3:0 30 3] [21] 0 0
s 0.123200000 _4_ AGT  --- 22 cbr 210 [0 0 0 0] ------- [4:0 3:0 32 0] [22] 0 0
r 0.123200000 _4_ RTR  --- 22 cbr 210 [0 0 0 0] ------- [4:0 3:0 32 0] [22] 0 0
s 0.123200000 _4_ RTR  --- 22 cbr 230 [0 0 0 0] ------- [4:0 3:0 30 3] [22] 0 0
s 0.126409400 _4_ RTR  --- 6 cbr 230 [0 0 0 0] ------- [4:0 3:0 30 3] [6] 0 0
s 0.128800000 _4_ AGT  --- 23 cbr 210 [0 0 0 0] ------- [4:0 3:0 32 0] [23] 0 0
r 0.128800000 _4_ RTR  --- 23 cbr 210 [0 0 0 0] ------- [4:0 3:0 32 0] [23] 0 0
s 0.128800000 _4_ RTR  --- 23 cbr 230 [0 0 0 0] ------- [4:0 3:0 30 3] [23] 0 0
r 0.133153400 _3_ AGT  --- 13 cbr 230 [5 3 4 0] ------- [4:0 3:0 30 3] [13] 1 0
s 0.134400000 _4_ AGT  --- 24 cbr 210 [0 0 0 0] ------- [4:0 3:0 32 0] [24] 0 0
r 0.134400000 _4_ RTR  --- 24 cbr 210 [0 0 0 0] ------- [4:0 3:0 32 0] [24] 0 0
s 0.134400000 _4_ RTR  --- 24 cbr 230 [0 0 0 0] ------- [4:0 3:0 30 3] [24] 0 0
s 0.136409400 _4_ RTR  --- 7 cbr 230 [0 0 0 0] ------- [4:0 3:0 30 3] [7] 0 0
s 0.140000000 _4_ AGT  --- 25 cbr 210 [0 0 0 0] ------- [4:0 3:0 32 0] [25] 0 0
r 0.140000000 _4_ RTR  --- 25 cbr 210 [0 0 0 0] ------- [4:0 3:0 32 0] [25] 0 0
s 0.140000000 _4_ RTR  --- 25 cbr 230 [0 0 0 0] ------- [4:0 3:0 30 3] [25] 0 0
s 0.145600000 _4_ AGT  --- 26 cbr 210 [0 0 0 0] ------- [4:0 3:0 32 0] [26] 0 0
r 0.145600000 _4_ RTR  --- 26 cbr 210 [0 0 0 0] ------- [4:0 3:0 32 0] [26] 0 0
s 0.145600000 _4_ RTR  --- 26 cbr 230 [0 0 0 0] ------- [4:0 3:0 30 3] [26] 0 0
s 0.146409400 _4_ RTR  --- 8 cbr 230 [0 0 0 0] ------- [4:0 3:0 30 3] [8] 0 0
s 0.151200000 _4_ AGT  --- 27 cbr 210 [0 0 0 0] ------- [4:0 3:0 32 0] [27] 0 0
r 0.151200000 _4_ RTR  --- 27 cbr 210 [0 0 0 0] ------- [4:0 3:0 32 0] [27] 0 0
s 0.151200000 _4_ RTR  --- 27 cbr 230 [0 0 0 0] ------- [4:0 3:0 30 3] [27] 0 0
s 0.156409400 _4_ RTR  --- 9 cbr 230 [0 0 0 0] ------- [4:0 3:0 30 3] [9] 0 0
s 0.156800000 _4_ AGT  --- 28 cbr 210 [0 0 0 0] ------- [4:0 3:0 32 0] [28] 0 0
r 0.156800000 _4_ RTR  --- 28 cbr 210 [0 0 0 0] ------- [4:0 3:0 32 0] [28] 0 0
s 0.156800000 _4_ RTR  --- 28 cbr 230 [0 0 0 0] ------- [4:0 3:0 30 3] [28] 0 0
s 0.162400000 _4_ AGT  --- 29 cbr 210 [0 0 0 0] ------- [4:0 3:0 32 0] [29] 0 0
r 0.162400000 _4_ RTR  --- 29 cbr 210 [0 0 0 0] ------- [4:0 3:0 32 0] [29] 0 0
s 0.162400000 _4_ RTR  --- 29 cbr 230 [0 0 0 0] ------- [4:0 3:0 30 3] [29] 0 0
r 0.163153400 _3_ AGT  --- 1 cbr 230 [5 3 4 0] ------- [4:0 3:0 30 3] [1] 1 0
s 0.166409400 _4_ RTR  --- 10 cbr 230 [0 0 0 0] ------- [4:0 3:0 30 3] [10] 0 0
s 0.168000000 _4_ AGT  --- 30 cbr 210 [0 0 0 0] ------- [4:0 3:0 32 0] [30] 0 0
r 0.168000000 _4_ RTR  --- 30 cbr 210 [0 0 0 0] ------- [4:0 3:0 32 0] [30] 0 0
s 0.168000000 _4_ RTR  --- 30 cbr 230 [0 0 0 0] ------- [4:0 3:0 30 3] [30] 0 0
s 0.173600000 _4_ AGT  --- 31 cbr 210 [0 0 0 0] ------- [4:0 3:0 32 0] [31] 0 0
r 0.173600000 _4_ RTR  --- 31 cbr 210 [0 0 0 0] ------- [4:0 3:0 32 0] [31] 0 0
s 0.173600000 _4_ RTR  --- 31 cbr 230 [0 0 0 0] ------- [4:0 3:0 30 3] [31] 0 0
s 0.176409400 _4_ RTR  --- 11 cbr 230 [0 0 0 0] ------- [4:0 3:0 30 3] [11] 0 0
s 0.179200000 _4_ AGT  --- 32 cbr 210 [0 0 0 0] ------- [4:0 3:0 32 0] [32] 0 0
r 0.179200000 _4_ RTR  --- 32 cbr 210 [0 0 0 0] ------- [4:0 3:0 32 0] [32] 0 0
s 0.179200000 _4_ RTR  --- 32 cbr 230 [0 0 0 0] ------- [4:0 3:0 30 3] [32] 0 0
s 0.184800000 _4_ AGT  --- 33 cbr 210 [0 0 0 0] ------- [4:0 3:0 32 0] [33] 0 0
r 0.184800000 _4_ RTR  --- 33 cbr 210 [0 0 0 0] ------- [4:0 3:0 32 0] [33] 0 0
s 0.184800000 _4_ RTR  --- 33 cbr 230 [0 0 0 0] ------- [4:0 3:0 30 3] [33] 0 0
s 0.190400000 _4_ AGT  --- 34 cbr 210 [0 0 0 0] ------- [4:0 3:0 32 0] [34] 0 0
r 0.190400000 _4_ RTR  --- 34 cbr 210 [0 0 0 0] ------- [4:0 3:0 32 0] [34] 0 0
s 0.190400000 _4_ RTR  --- 34 cbr 230 [0 0 0 0] ------- [4:0 3:0 30 3] [34] 0 0
r 0.193153400 _3_ AGT  --- 14 cbr 230 [5 3 4 0] ------- [4:0 3:0 30 3] [14] 1 0
s 0.196000000 _4_ AGT  --- 35 cbr 210 [0 0 0 0] ------- [4:0 3:0 32 0] [35] 0 0
r 0.196000000 _4_ RTR  --- 35 cbr 210 [0 0 0 0] ------- [4:0 3:0 32 0] [35] 0 0
s 0.196000000 _4_ RTR  --- 35 cbr 230 [0 0 0 0] ------- [4:0 3:0 30 3] [35] 0 0
s 0.201600000 _4_ AGT  --- 36 cbr 210 [0 0 0 0] ------- [4:0 3:0 32 0] [36] 0 0
r 0.201600000 _4_ RTR  --- 36 cbr 210 [0 0 0 0] ------- [4:0 3:0 32 0] [36] 0 0
s 0.201600000 _4_ RTR  --- 36 cbr 230 [0 0 0 0] ------- [4:0 3:0 30 3] [36] 0 0
s 0.207200000 _4_ AGT  --- 37 cbr 210 [0 0 0 0] ------- [4:0 3:0 32 0] [37] 0 0
r 0.207200000 _4_ RTR  --- 37 cbr 210 [0 0 0 0] ------- [4:0 3:0 32 0] [37] 0 0
s 0.207200000 _4_ RTR  --- 37 cbr 230 [0 0 0 0] ------- [4:0 3:0 30 3] [37] 0 0
s 0.212800000 _4_ AGT  --- 38 cbr 210 [0 0 0 0] ------- [4:0 3:0 32 0] [38] 0 0
r 0.212800000 _4_ RTR  --- 38 cbr 210 [0 0 0 0] ------- [4:0 3:0 32 0] [38] 0 0
s 0.212800000 _4_ RTR  --- 38 cbr 230 [0 0 0 0] ------- [4:0 3:0 30 3] [38] 0 0
s 0.218400000 _4_ AGT  --- 39 cbr 210 [0 0 0 0] ------- [4:0 3:0 32 0] [39] 0 0
r 0.218400000 _4_ RTR  --- 39 cbr 210 [0 0 0 0] ------- [4:0 3:0 32 0] [39] 0 0
s 0.218400000 _4_ RTR  --- 39 cbr 230 [0 0 0 0] ------- [4:0 3:0 30 3] [39] 0 0
r 0.223153400 _3_ AGT  --- 15 cbr 230 [5 3 4 0] ------- [4:0 3:0 30 3] [15] 1 0
s 0.224000000 _4_ AGT  --- 40 cbr 210 [0 0 0 0] ------- [4:0 3:0 32 0] [40] 0 0
r 0.224000000 _4_ RTR  --- 40 cbr 210 [0 0 0 0] ------- [4:0 3:0 32 0] [40] 0 0
s 0.224000000 _4_ RTR  --- 40 cbr 230 [0 0 0 0] ------- [4:0 3:0 30 3] [40] 0 0
s 0.229600000 _4_ AGT  --- 41 cbr 210 [0 0 0 0] ------- [4:0 3:0 32 0] [41] 0 0
r 0.229600000 _4_ RTR  --- 41 cbr 210 [0 0 0 0] ------- [4:0 3:0 32 0] [41] 0 0
s 0.229600000 _4_ RTR  --- 41 cbr 230 [0 0 0 0] ------- [4:0 3:0 30 3] [41] 0 0
s 0.235200000 _4_ AGT  --- 42 cbr 210 [0 0 0 0] ------- [4:0 3:0 32 0] [42] 0 0
r 0.235200000 _4_ RTR  --- 42 cbr 210 [0 0 0 0] ------- [4:0 3:0 32 0] [42] 0 0
s 0.235200000 _4_ RTR  --- 42 cbr 230 [0 0 0 0] ------- [4:0 3:0 30 3] [42] 0 0
s 0.240800000 _4_ AGT  --- 43 cbr 210 [0 0 0 0] ------- [4:0 3:0 32 0] [43] 0 0
r 0.240800000 _4_ RTR  --- 43 cbr 210 [0 0 0 0] ------- [4:0 3:0 32 0] [43] 0 0
s 0.240800000 _4_ RTR  --- 43 cbr 230 [0 0 0 0] ------- [4:0 3:0 30 3] [43] 0 0
s 0.246400000 _4_ AGT  --- 44 cbr 210 [0 0 0 0] ------- [4:0 3:0 32 0] [44] 0 0
r 0.246400000 _4_ RTR  --- 44 cbr 210 [0 0 0 0] ------- [4:0 3:0 32 0] [44] 0 0
s 0.246400000 _4_ RTR  --- 44 cbr 230 [0 0 0 0] ------- [4:0 3:0 30 3] [44] 0 0
s 0.252000000 _4_ AGT  --- 45 cbr 210 [0 0 0 0] ------- [4:0 3:0 32 0] [45] 0 0
r 0.252000000 _4_ RTR  --- 45 cbr 210 [0 0 0 0] ------- [4:0 3:0 32 0] [45] 0 0
s 0.252000000 _4_ RTR  --- 45 cbr 230 [0 0 0 0] ------- [4:0 3:0 30 3] [45] 0 0
r 0.253153400 _3_ AGT  --- 2 cbr 230 [5 3 4 0] ------- [4:0 3:0 30 3] [2] 1 0
s 0.257600000 _4_ AGT  --- 46 cbr 210 [0 0 0 0] ------- [4:0 3:0 32 0] [46] 0 0
r 0.257600000 _4_ RTR  --- 46 cbr 210 [0 0 0 0] ------- [4:0 3:0 32 0] [46] 0 0
s 0.257600000 _4_ RTR  --- 46 cbr 230 [0 0 0 0] ------- [4:0 3:0 30 3] [46] 0 0
s 0.263200000 _4_ AGT  --- 47 cbr 210 [0 0 0 0] ------- [4:0 3:0 32 0] [47] 0 0
r 0.263200000 _4_ RTR  --- 47 cbr 210 [0 0 0 0] ------- [4:0 3:0 32 0] [47] 0 0
s 0.263200000 _4_ RTR  --- 47 cbr 230 [0 0 0 0] ------- [4:0 3:0 30 3] [47] 0 0
s 0.268800000 _4_ AGT  --- 48 cbr 210 [0 0 0 0] ------- [4:0 3:0 32 0] [48] 0 0
r 0.268800000 _4_ RTR  --- 48 cbr 210 [0 0 0 0] ------- [4:0 3:0 32 0] [48] 0 0
s 0.268800000 _4_ RTR  --- 48 cbr 230 [0 0 0 0] ------- [4:0 3:0 30 3] [48] 0 0
s 0.274400000 _4_ AGT  --- 49 cbr 210 [0 0 0 0] ------- [4:0 3:0 32 0] [49] 0 0
r 0.274400000 _4_ RTR  --- 49 cbr 210 [0 0 0 0] ------- [4:0 3:0 32 0] [49] 0 0
s 0.274400000 _4_ RTR  --- 49 cbr 230 [0 0 0 0] ------- [4:0 3:0 30 3] [49] 0 0
s 0.280000000 _4_ AGT  --- 50 cbr 210 [0 0 0 0] ------- [4:0 3:0 32 0] [50] 0 0
r 0.280000000 _4_ RTR  --- 50 cbr 210 [0 0 0 0] ------- [4:0 3:0 32 0] [50] 0 0
s 0.280000000 _4_ RTR  --- 50 cbr 230 [0 0 0 0] ------- [4:0 3:0 30 3] [50] 0 0
r 0.283153400 _3_ AGT  --- 16 cbr 230 [5 3 4 0] ------- [4:0 3:0 30 3] [16] 1 0
s 0.285600000 _4_ AGT  --- 51 cbr 210 [0 0 0 0] ------- [4:0 3:0 32 0] [51] 0 0
r 0.285600000 _4_ RTR  --- 51 cbr 210 [0 0 0 0] ------- [4:0 3:0 32 0] [51] 0 0
s 0.285600000 _4_ RTR  --- 51 cbr 230 [0 0 0 0] ------- [4:0 3:0 30 3] [51] 0 0
s 0.291200000 _4_ AGT  --- 52 cbr 210 [0 0 0 0] ------- [4:0 3:0 32 0] [52] 0 0
r 0.291200000 _4_ RTR  --- 52 cbr 210 [0 0 0 0] ------- [4:0 3:0 32 0] [52] 0 0
s 0.291200000 _4_ RTR  --- 52 cbr 230 [0 0 0 0] ------- [4:0 3:0 30 3] [52] 0 0
s 0.296800000 _4_ AGT  --- 53 cbr 210 [0 0 0 0] ------- [4:0 3:0 32 0] [53] 0 0
r 0.296800000 _4_ RTR  --- 53 cbr 210 [0 0 0 0] ------- [4:0 3:0 32 0] [53] 0 0
s 0.296800000 _4_ RTR  --- 53 cbr 230 [0 0 0 0] ------- [4:0 3:0 30 3] [53] 0 0
s 0.302400000 _4_ AGT  --- 54 cbr 210 [0 0 0 0] ------- [4:0 3:0 32 0] [54] 0 0
r 0.302400000 _4_ RTR  --- 54 cbr 210 [0 0 0 0] ------- [4:0 3:0 32 0] [54] 0 0
s 0.302400000 _4_ RTR  --- 54 cbr 230 [0 0 0 0] ------- [4:0 3:0 30 3] [54] 0 0
s 0.308000000 _4_ AGT  --- 55 cbr 210 [0 0 0 0] ------- [4:0 3:0 32 0] [55] 0 0
r 0.308000000 _4_ RTR  --- 55 cbr 210 [0 0 0 0] ------- [4:0 3:0 32 0] [55] 0 0
s 0.308000000 _4_ RTR  --- 55 cbr 230 [0 0 0 0] ------- [4:0 3:0 30 3] [55] 0 0
r 0.313153400 _3_ AGT  --- 17 cbr 230 [5 3 4 0] ------- [4:0 3:0 30 3] [17] 1 0
s 0.313600000 _4_ AGT  --- 56 cbr 210 [0 0 0 0] ------- [4:0 3:0 32 0] [56] 0 0
r 0.313600000 _4_ RTR  --- 56 cbr 210 [0 0 0 0] ------- [4:0 3:0 32 0] [56] 0 0
s 0.313600000 _4_ RTR  --- 56 cbr 230 [0 0 0 0] ------- [4:0 3:0 30 3] [56] 0 0
s 0.319200000 _4_ AGT  --- 57 cbr 210 [0 0 0 0] ------- [4:0 3:0 32 0] [57] 0 0
r 0.319200000 _4_ RTR  --- 57 cbr 210 [0 0 0 0] ------- [4:0 3:0 32 0] [57] 0 0
s 0.319200000 _4_ RTR  --- 57 cbr 230 [0 0 0 0] ------- [4:0 3:0 30 3] [57] 0 0
s 0.324800000 _4_ AGT  --- 58 cbr 210 [0 0 0 0] ------- [4:0 3:0 32 0] [58] 0 0
r 0.324800000 _4_ RTR  --- 58 cbr 210 [0 0 0 0] ------- [4:0 3:0 32 0] [58] 0 0
s 0.324800000 _4_ RTR  --- 58 cbr 230 [0 0 0 0] ------- [4:0 3:0 30 3] [58] 0 0
s 0.330400000 _4_ AGT  --- 59 cbr 210 [0 0 0 0] ------- [4:0 3:0 32 0] [59] 0 0
r 0.330400000 _4_ RTR  --- 59 cbr 210 [0 0 0 0] ------- [4:0 3:0 32 0] [59] 0 0
s 0.330400000 _4_ RTR  --- 59 cbr 230 [0 0 0 0] ------- [4:0 3:0 30 3] [59] 0 0
D 0.330425000 _4_ IFQ  --- 59 cbr 230 [0 3 4 0] ------- [4:0 3:0 30 3] [59] 0 0
s 0.336000000 _4_ AGT  --- 60 cbr 210 [0 0 0 0] ------- [4:0 3:0 32 0] [60] 0 0
r 0.336000000 _4_ RTR  --- 60 cbr 210 [0 0 0 0] ------- [4:0 3:0 32 0] [60] 0 0
s 0.336000000 _4_ RTR  --- 60 cbr 230 [0 0 0 0] ------- [4:0 3:0 30 3] [60] 0 0
D 0.336025000 _4_ IFQ  --- 60 cbr 230 [0 3 4 0] ------- [4:0 3:0 30 3] [60] 0 0
s 0.341600000 _4_ AGT  --- 61 cbr 210 [0 0 0 0] ------- [4:0 3:0 32 0] [61] 0 0
r 0.341600000 _4_ RTR  --- 61 cbr 210 [0 0 0 0] ------- [4:0 3:0 32 0] [61] 0 0
s 0.341600000 _4_ RTR  --- 61 cbr 230 [0 0 0 0] ------- [4:0 3:0 30 3] [61] 0 0
D 0.341625000 _4_ IFQ  --- 61 cbr 230 [0 3 4 0] ------- [4:0 3:0 30 3] [61] 0 0
r 0.343153400 _3_ AGT  --- 3 cbr 230 [5 3 4 0] ------- [4:0 3:0 30 3] [3] 1 0
s 0.347200000 _4_ AGT  --- 62 cbr 210 [0 0 0 0] ------- [4:0 3:0 32 0] [62] 0 0
r 0.347200000 _4_ RTR  --- 62 cbr 210 [0 0 0 0] ------- [4:0 3:0 32 0] [62] 0 0
s 0.347200000 _4_ RTR  --- 62 cbr 230 [0 0 0 0] ------- [4:0 3:0 30 3] [62] 0 0
s 0.352800000 _4_ AGT  --- 63 cbr 210 [0 0 0 0] ------- [4:0 3:0 32 0] [63] 0 0
r 0.352800000 _4_ RTR  --- 63 cbr 210 [0 0 0 0] ------- [4:0 3:0 32 0] [63] 0 0
s 0.352800000 _4_ RTR  --- 63 cbr 230 [0 0 0 0] ------- [4:0 3:0 30 3] [63] 0 0
D 0.352825000 _4_ IFQ  --- 63 cbr 230 [0 3 4 0] ------- [4:0 3:0 30 3] [63] 0 0
s 0.358400000 _4_ AGT  --- 64 cbr 210 [0 0 0 0] ------- [4:0 3:0 32 0] [64] 0 0
r 0.358400000 _4_ RTR  --- 64 cbr 210 [0 0 0 0] ------- [4:0 3:0 32 0] [64] 0 0
s 0.358400000 _4_ RTR  --- 64 cbr 230 [0 0 0 0] ------- [4:0 3:0 30 3] [64] 0 0
D 0.358425000 _4_ IFQ  --- 64 cbr 230 [0 3 4 0] ------- [4:0 3:0 30 3] [64] 0 0
s 0.364000000 _4_ AGT  --- 65 cbr 210 [0 0 0 0] ------- [4:0 3:0 32 0] [65] 0 0
r 0.364000000 _4_ RTR  --- 65 cbr 210 [0 0 0 0] ------- [4:0 3:0 32 0] [65] 0 0
s 0.364000000 _4_ RTR  --- 65 cbr 230 [0 0 0 0] ------- [4:0 3:0 30 3] [65] 0 0
D 0.364025000 _4_ IFQ  --- 65 cbr 230 [0 3 4 0] ------- [4:0 3:0 30 3] [65] 0 0
s 0.369600000 _4_ AGT  --- 66 cbr 210 [0 0 0 0] ------- [4:0 3:0 32 0] [66] 0 0
r 0.369600000 _4_ RTR  --- 66 cbr 210 [0 0 0 0] ------- [4:0 3:0 32 0] [66] 0 0
s 0.369600000 _4_ RTR  --- 66 cbr 230 [0 0 0 0] ------- [4:0 3:0 30 3] [66] 0 0
D 0.369625000 _4_ IFQ  --- 66 cbr 230 [0 3 4 0] ------- [4:0 3:0 30 3] [66] 0 0
r 0.373153400 _3_ AGT  --- 18 cbr 230 [5 3 4 0] ------- [4:0 3:0 30 3] [18] 1 0
s 0.375200000 _4_ AGT  --- 67 cbr 210 [0 0 0 0] ------- [4:0 3:0 32 0] [67] 0 0
r 0.375200000 _4_ RTR  --- 67 cbr 210 [0 0 0 0] ------- [4:0 3:0 32 0] [67] 0 0
s 0.375200000 _4_ RTR  --- 67 cbr 230 [0 0 0 0] ------- [4:0 3:0 30 3] [67] 0 0
s 0.380800000 _4_ AGT  --- 68 cbr 210 [0 0 0 0] ------- [4:0 3:0 32 0] [68] 0 0
r 0.380800000 _4_ RTR  --- 68 cbr 210 [0 0 0 0] ------- [4:0 3:0 32 0] [68] 0 0
s 0.380800000 _4_ RTR  --- 68 cbr 230 [0 0 0 0] ------- [4:0 3:0 30 3] [68] 0 0
D 0.380825000 _4_ IFQ  --- 68 cbr 230 [0 3 4 0] ------- [4:0 3:0 30 3] [68] 0 0
s 0.386400000 _4_ AGT  --- 69 cbr 210 [0 0 0 0] ------- [4:0 3:0 32 0] [69] 0 0
r 0.386400000 _4_ RTR  --- 69 cbr 210 [0 0 0 0] ------- [4:0 3:0 32 0] [69] 0 0
s 0.386400000 _4_ RTR  --- 69 cbr 230 [0 0 0 0] ------- [4:0 3:0 30 3] [69] 0 0
D 0.386425000 _4_ IFQ  --- 69 cbr 230 [0 3 4 0] ------- [4:0 3:0 30 3] [69] 0 0
s 0.392000000 _4_ AGT  --- 70 cbr 210 [0 0 0 0] ------- [4:0 3:0 32 0] [70] 0 0
r 0.392000000 _4_ RTR  --- 70 cbr 210 [0 0 0 0] ------- [4:0 3:0 32 0] [70] 0 0
s 0.392000000 _4_ RTR  --- 70 cbr 230 [0 0 0 0] ------- [4:0 3:0 30 3] [70] 0 0
D 0.392025000 _4_ IFQ  --- 70 cbr 230 [0 3 4 0] ------- [4:0 3:0 30 3] [70] 0 0
s 0.397600000 _4_ AGT  --- 71 cbr 210 [0 0 0 0] ------- [4:0 3:0 32 0] [71] 0 0
r 0.397600000 _4_ RTR  --- 71 cbr 210 [0 0 0 0] ------- [4:0 3:0 32 0] [71] 0 0
s 0.397600000 _4_ RTR  --- 71 cbr 230 [0 0 0 0] ------- [4:0 3:0 30 3] [71] 0 0
D 0.397625000 _4_ IFQ  --- 71 cbr 230 [0 3 4 0] ------- [4:0 3:0 30 3] [71] 0 0
r 0.403153400 _3_ AGT  --- 19 cbr 230 [5 3 4 0] ------- [4:0 3:0 30 3] [19] 1 0
s 0.403200000 _4_ AGT  --- 72 cbr 210 [0 0 0 0] ------- [4:0 3:0 32 0] [72] 0 0
r 0.403200000 _4_ RTR  --- 72 cbr 210 [0 0 0 0] ------- [4:0 3:0 32 0] [72] 0 0
s 0.403200000 _4_ RTR  --- 72 cbr 230 [0 0 0 0] ------- [4:0 3:0 30 3] [72] 0 0
s 0.408800000 _4_ AGT  --- 73 cbr 210 [0 0 0 0] ------- [4:0 3:0 32 0] [73] 0 0
r 0.408800000 _4_ RTR  --- 73 cbr 210 [0 0 0 0] ------- [4:0 3:0 32 0] [73] 0 0
s 0.408800000 _4_ RTR  --- 73 cbr 230 [0 0 0 0] ------- [4:0 3:0 30 3] [73] 0 0
D 0.408825000 _4_ IFQ  --- 73 cbr 230 [0 3 4 0] ------- [4:0 3:0 30 3] [73] 0 0
s 0.414400000 _4_ AGT  --- 74 cbr 210 [0 0 0 0] ------- [4:0 3:0 32 0] [74] 0 0
r 0.414400000 _4_ RTR  --- 74 cbr 210 [0 0 0 0] ------- [4:0 3:0 32 0] [74] 0 0
s 0.414400000 _4_ RTR  --- 74 cbr 230 [0 0 0 0] ------- [4:0 3:0 30 3] [74] 0 0
D 0.414425000 _4_ IFQ  --- 74 cbr 230 [0 3 4 0] ------- [4:0 3:0 30 3] [74] 0 0
s 0.420000000 _4_ AGT  --- 75 cbr 210 [0 0 0 0] ------- [4:0 3:0 32 0] [75] 0 0
r 0.420000000 _4_ RTR  --- 75 cbr 210 [0 0 0 0] ------- [4:0 3:0 32 0] [75] 0 0
s 0.420000000 _4_ RTR  --- 75 cbr 230 [0 0 0 0] ------- [4:0 3:0 30 3] [75] 0 0
D 0.420025000 _4_ IFQ  --- 75 cbr 230 [0 3 4 0] ------- [4:0 3:0 30 3] [75] 0 0
s 0.425600000 _4_ AGT  --- 76 cbr 210 [0 0 0 0] ------- [4:0 3:0 32 0] [76] 0 0
r 0.425600000 _4_ RTR  --- 76 cbr 210 [0 0 0 0] ------- [4:0 3:0 32 0] [76] 0 0
s 0.425600000 _4_ RTR  --- 76 cbr 230 [0 0 0 0] ------- [4:0 3:0 30 3] [76] 0 0
D 0.425625000 _4_ IFQ  --- 76 cbr 230 [0 3 4 0] ------- [4:0 3:0 30 3] [76] 0 0
s 0.431200000 _4_ AGT  --- 77 cbr 210 [0 0 0 0] ------- [4:0 3:0 32 0] [77] 0 0
r 0.431200000 _4_ RTR  --- 77 cbr 210 [0 0 0 0] ------- [4:0 3:0 32 0] [77] 0 0
s 0.431200000 _4_ RTR  --- 77 cbr 230 [0 0 0 0] ------- [4:0 3:0 30 3] [77] 0 0
D 0.431225000 _4_ IFQ  --- 77 cbr 230 [0 3 4 0] ------- [4:0 3:0 30 3] [77] 0 0
r 0.433153400 _3_ AGT  --- 4 cbr 230 [5 3 4 0] ------- [4:0 3:0 30 3] [4] 1 0
s 0.436800000 _4_ AGT  --- 78 cbr 210 [0 0 0 0] ------- [4:0 3:0 32 0] [78] 0 0
r 0.436800000 _4_ RTR  --- 78 cbr 210 [0 0 0 0] ------- [4:0 3:0 32 0] [78] 0 0
s 0.436800000 _4_ RTR  --- 78 cbr 230 [0 0 0 0] ------- [4:0 3:0 30 3] [78] 0 0
s 0.442400000 _4_ AGT  --- 79 cbr 210 [0 0 0 0] ------- [4:0 3:0 32 0] [79] 0 0
r 0.442400000 _4_ RTR  --- 79 cbr 210 [0 0 0 0] ------- [4:0 3:0 32 0] [79] 0 0
s 0.442400000 _4_ RTR  --- 79 cbr 230 [0 0 0 0] ------- [4:0 3:0 30 3] [79] 0 0
D 0.442425000 _4_ IFQ  --- 79 cbr 230 [0 3 4 0] ------- [4:0 3:0 30 3] [79] 0 0
s 0.448000000 _4_ AGT  --- 80 cbr 210 [0 0 0 0] ------- [4:0 3:0 32 0] [80] 0 0
r 0.448000000 _4_ RTR  --- 80 cbr 210 [0 0 0 0] ------- [4:0 3:0 32 0] [80] 0 0
s 0.448000000 _4_ RTR  --- 80 cbr 230 [0 0 0 0] ------- [4:0 3:0 30 3] [80] 0 0
D 0.448025000 _4_ IFQ  --- 80 cbr 230 [0 3 4 0] ------- [4:0 3:0 30 3] [80] 0 0
s 0.453600000 _4_ AGT  --- 81 cbr 210 [0 0 0 0] ------- [4:0 3:0 32 0] [81] 0 0
r 0.453600000 _4_ RTR  --- 81 cbr 210 [0 0 0 0] ------- [4:0 3:0 32 0] [81] 0 0
s 0.453600000 _4_ RTR  --- 81 cbr 230 [0 0 0 0] ------- [4:0 3:0 30 3] [81] 0 0
D 0.453625000 _4_ IFQ  --- 81 cbr 230 [0 3 4 0] ------- [4:0 3:0 30 3] [81] 0 0
s 0.459200000 _4_ AGT  --- 82 cbr 210 [0 0 0 0] ------- [4:0 3:0 32 0] [82] 0 0
r 0.459200000 _4_ RTR  --- 82 cbr 210 [0 0 0 0] ------- [4:0 3:0 32 0] [82] 0 0
s 0.459200000 _4_ RTR  --- 82 cbr 230 [0 0 0 0] ------- [4:0 3:0 30 3] [82] 0 0
D 0.459225000 _4_ IFQ  --- 82 cbr 230 [0 3 4 0] ------- [4:0 3:0 30 3] [82] 0 0
r 0.463153400 _3_ AGT  --- 20 cbr 230 [5 3 4 0] ------- [4:0 3:0 30 3] [20] 1 0
s 0.464800000 _4_ AGT  --- 83 cbr 210 [0 0 0 0] ------- [4:0 3:0 32 0] [83] 0 0
r 0.464800000 _4_ RTR  --- 83 cbr 210 [0 0 0 0] ------- [4:0 3:0 32 0] [83] 0 0
s 0.464800000 _4_ RTR  --- 83 cbr 230 [0 0 0 0] ------- [4:0 3:0 30 3] [83] 0 0
s 0.470400000 _4_ AGT  --- 84 cbr 210 [0 0 0 0] ------- [4:0 3:0 32 0] [84] 0 0
r 0.470400000 _4_ RTR  --- 84 cbr 210 [0 0 0 0] ------- [4:0 3:0 32 0] [84] 0 0
s 0.470400000 _4_ RTR  --- 84 cbr 230 [0 0 0 0] ------- [4:0 3:0 30 3] [84] 0 0
D 0.470425000 _4_ IFQ  --- 84 cbr 230 [0 3 4 0] ------- [4:0 3:0 30 3] [84] 0 0
s 0.476000000 _4_ AGT  --- 85 cbr 210 [0 0 0 0] ------- [4:0 3:0 32 0] [85] 0 0
r 0.476000000 _4_ RTR  --- 85 cbr 210 [0 0 0 0] ------- [4:0 3:0 32 0] [85] 0 0
s 0.476000000 _4_ RTR  --- 85 cbr 230 [0 0 0 0] ------- [4:0 3:0 30 3] [85] 0 0
D 0.476025000 _4_ IFQ  --- 85 cbr 230 [0 3 4 0] ------- [4:0 3:0 30 3] [85] 0 0
s 0.481600000 _4_ AGT  --- 86 cbr 210 [0 0 0 0] ------- [4:0 3:0 32 0] [86] 0 0
r 0.481600000 _4_ RTR  --- 86 cbr 210 [0 0 0 0] ------- [4:0 3:0 32 0] [86] 0 0
s 0.481600000 _4_ RTR  --- 86 cbr 230 [0 0 0 0] ------- [4:0 3:0 30 3] [86] 0 0
D 0.481625000 _4_ IFQ  --- 86 cbr 230 [0 3 4 0] ------- [4:0 3:0 30 3] [86] 0 0
s 0.487200000 _4_ AGT  --- 87 cbr 210 [0 0 0 0] ------- [4:0 3:0 32 0] [87] 0 0
r 0.487200000 _4_ RTR  --- 87 cbr 210 [0 0 0 0] ------- [4:0 3:0 32 0] [87] 0 0
s 0.487200000 _4_ RTR  --- 87 cbr 230 [0 0 0 0] ------- [4:0 3:0 30 3] [87] 0 0
D 0.487225000 _4_ IFQ  --- 87 cbr 230 [0 3 4 0] ------- [4:0 3:0 30 3] [87] 0 0
s 0.492800000 _4_ AGT  --- 88 cbr 210 [0 0 0 0] ------- [4:0 3:0 32 0] [88] 0 0
r 0.492800000 _4_ RTR  --- 88 cbr 210 [0 0 0 0] ------- [4:0 3:0 32 0] [88] 0 0
s 0.492800000 _4_ RTR  --- 88 cbr 230 [0 0 0 0] ------- [4:0 3:0 30 3] [88] 0 0
D 0.492825000 _4_ IFQ  --- 88 cbr 230 [0 3 4 0] ------- [4:0 3:0 30 3] [88] 0 0
r 0.493153400 _3_ AGT  --- 5 cbr 230 [5 3 4 0] ------- [4:0 3:0 30 3] [5] 1 0
s 0.498400000 _4_ AGT  --- 89 cbr 210 [0 0 0 0] ------- [4:0 3:0 32 0] [89] 0 0
r 0.498400000 _4_ RTR  --- 89 cbr 210 [0 0 0 0] ------- [4:0 3:0 32 0] [89] 0 0
s 0.498400000 _4_ RTR  --- 89 cbr 230 [0 0 0 0] ------- [4:0 3:0 30 3] [89] 0 0
s 0.504000000 _4_ AGT  --- 90 cbr 210 [0 0 0 0] ------- [4:0 3:0 32 0] [90] 0 0
r 0.504000000 _4_ RTR  --- 90 cbr 210 [0 0 0 0] ------- [4:0 3:0 32 0] [90] 0 0
s 0.504000000 _4_ RTR  --- 90 cbr 230 [0 0 0 0] ------- [4:0 3:0 30 3] [90] 0 0
D 0.504025000 _4_ IFQ  --- 90 cbr 230 [0 3 4 0] ------- [4:0 3:0 30 3] [90] 0 0
s 0.509600000 _4_ AGT  --- 91 cbr 210 [0 0 0 0] ------- [4:0 3:0 32 0] [91] 0 0
r 0.509600000 _4_ RTR  --- 91 cbr 210 [0 0 0 0] ------- [4:0 3:0 32 0] [91] 0 0
s 0.509600000 _4_ RTR  --- 91 cbr 230 [0 0 0 0] ------- [4:0 3:0 30 3] [91] 0 0
D 0.509625000 _4_ IFQ  --- 91 cbr 230 [0 3 4 0] ------- [4:0 3:0 30 3] [91] 0 0
s 0.515200000 _4_ AGT  --- 92 cbr 210 [0 0 0 0] ------- [4:0 3:0 32 0] [92] 0 0
r 0.515200000 _4_ RTR  --- 92 cbr 210 [0 0 0 0] ------- [4:0 3:0 32 0] [92] 0 0
s 0.515200000 _4_ RTR  --- 92 cbr 230 [0 0 0 0] ------- [4:0 3:0 30 3] [92] 0 0
D 0.515225000 _4_ IFQ  --- 92 cbr 230 [0 3 4 0] ------- [4:0 3:0 30 3] [92] 0 0
s 0.520800000 _4_ AGT  --- 93 cbr 210 [0 0 0 0] ------- [4:0 3:0 32 0] [93] 0 0
r 0.520800000 _4_ RTR  --- 93 cbr 210 [0 0 0 0] ------- [4:0 3:0 32 0] [93] 0 0
s 0.520800000 _4_ RTR  --- 93 cbr 230 [0 0 0 0] ------- [4:0 3:0 30 3] [93] 0 0
D 0.520825000 _4_ IFQ  --- 93 cbr 230 [0 3 4 0] ------- [4:0 3:0 30 3] [93] 0 0
r 0.523153400 _3_ AGT  --- 21 cbr 230 [5 3 4 0] ------- [4:0 3:0 30 3] [21] 1 0
s 0.526400000 _4_ AGT  --- 94 cbr 210 [0 0 0 0] ------- [4:0 3:0 32 0] [94] 0 0
r 0.526400000 _4_ RTR  --- 94 cbr 210 [0 0 0 0] ------- [4:0 3:0 32 0] [94] 0 0
s 0.526400000 _4_ RTR  --- 94 cbr 230 [0 0 0 0] ------- [4:0 3:0 30 3] [94] 0 0
s 0.532000000 _4_ AGT  --- 95 cbr 210 [0 0 0 0] ------- [4:0 3:0 32 0] [95] 0 0
r 0.532000000 _4_ RTR  --- 95 cbr 210 [0 0 0 0] ------- [4:0 3:0 32 0] [95] 0 0
s 0.532000000 _4_ RTR  --- 95 cbr 230 [0 0 0 0] ------- [4:0 3:0 30 3] [95] 0 0
D 0.532025000 _4_ IFQ  --- 95 cbr 230 [0 3 4 0] ------- [4:0 3:0 30 3] [95] 0 0
s 0.537600000 _4_ AGT  --- 96 cbr 210 [0 0 0 0] ------- [4:0 3:0 32 0] [96] 0 0
r 0.537600000 _4_ RTR  --- 96 cbr 210 [0 0 0 0] ------- [4:0 3:0 32 0] [96] 0 0
s 0.537600000 _4_ RTR  --- 96 cbr 230 [0 0 0 0] ------- [4:0 3:0 30 3] [96] 0 0
D 0.537625000 _4_ IFQ  --- 96 cbr 230 [0 3 4 0] ------- [4:0 3:0 30 3] [96] 0 0
s 0.543200000 _4_ AGT  --- 97 cbr 210 [0 0 0 0] ------- [4:0 3:0 32 0] [97] 0 0
r 0.543200000 _4_ RTR  --- 97 cbr 210 [0 0 0 0] ------- [4:0 3:0 32 0] [97] 0 0
s 0.543200000 _4_ RTR  --- 97 cbr 230 [0 0 0 0] ------- [4:0 3:0 30 3] [97] 0 0
D 0.543225000 _4_ IFQ  --- 97 cbr 230 [0 3 4 0] ------- [4:0 3:0 30 3] [97] 0 0
s 0.548800000 _4_ AGT  --- 98 cbr 210 [0 0 0 0] ------- [4:0 3:0 32 0] [98] 0 0
r 0.548800000 _4_ RTR  --- 98 cbr 210 [0 0 0 0] ------- [4:0 3:0 32 0] [98] 0 0
s 0.548800000 _4_ RTR  --- 98 cbr 230 [0 0 0 0] ------- [4:0 3:0 30 3] [98] 0 0
D 0.548825000 _4_ IFQ  --- 98 cbr 230 [0 3 4 0] ------- [4:0 3:0 30 3] [98] 0 0
r 0.553153400 _3_ AGT  --- 22 cbr 230 [5 3 4 0] ------- [4:0 3:0 30 3] [22] 1 0
s 0.554400000 _4_ AGT  --- 99 cbr 210 [0 0 0 0] ------- [4:0 3:0 32 0] [99] 0 0
r 0.554400000 _4_ RTR  --- 99 cbr 210 [0 0 0 0] ------- [4:0 3:0 32 0] [99] 0 0
s 0.554400000 _4_ RTR  --- 99 cbr 230 [0 0 0 0] ------- [4:0 3:0 30 3] [99] 0 0
s 0.560000000 _4_ AGT  --- 100 cbr 210 [0 0 0 0] ------- [4:0 3:0 32 0] [100] 0 0
r 0.560000000 _4_ RTR  --- 100 cbr 210 [0 0 0 0] ------- [4:0 3:0 32 0] [100] 0 0
s 0.560000000 _4_ RTR  --- 100 cbr 230 [0 0 0 0] ------- [4:0 3:0 30 3] [100] 0 0
D 0.560025000 _4_ IFQ  --- 100 cbr 230 [0 3 4 0] ------- [4:0 3:0 30 3] [100] 0 0
s 0.565600000 _4_ AGT  --- 101 cbr 210 [0 0 0 0] ------- [4:0 3:0 32 0] [101] 0 0
r 0.565600000 _4_ RTR  --- 101 cbr 210 [0 0 0 0] ------- [4:0 3:0 32 0] [101] 0 0
s 0.565600000 _4_ RTR  --- 101 cbr 230 [0 0 0 0] ------- [4:0 3:0 30 3] [101] 0 0
D 0.565625000 _4_ IFQ  --- 101 cbr 230 [0 3 4 0] ------- [4:0 3:0 30 3] [101] 0 0
s 0.571200000 _4_ AGT  --- 102 cbr 210 [0 0 0 0] ------- [4:0 3:0 32 0] [102] 0 0
r 0.571200000 _4_ RTR  --- 102 cbr 210 [0 0 0 0] ------- [4:0 3:0 32 0] [102] 0 0
s 0.571200000 _4_ RTR  --- 102 cbr 230 [0 0 0 0] ------- [4:0 3:0 30 3] [102] 0 0
D 0.571225000 _4_ IFQ  --- 102 cbr 230 [0 3 4 0] ------- [4:0 3:0 30 3] [102] 0 0
s 0.576800000 _4_ AGT  --- 103 cbr 210 [0 0 0 0] ------- [4:0 3:0 32 0] [103] 0 0
r 0.576800000 _4_ RTR  --- 103 cbr 210 [0 0 0 0] ------- [4:0 3:0 32 0] [103] 0 0
s 0.576800000 _4_ RTR  --- 103 cbr 230 [0 0 0 0] ------- [4:0 3:0 30 3] [103] 0 0
D 0.576825000 _4_ IFQ  --- 103 cbr 230 [0 3 4 0] ------- [4:0 3:0 30 3] [103] 0 0
s 0.582400000 _4_ AGT  --- 104 cbr 210 [0 0 0 0] ------- [4:0 3:0 32 0] [104] 0 0
r 0.582400000 _4_ RTR  --- 104 cbr 210 [0 0 0 0] ------- [4:0 3:0 32 0] [104] 0 0
s 0.582400000 _4_ RTR  --- 104 cbr 230 [0 0 0 0] ------- [4:0 3:0 30 3] [104] 0 0