n -t * -s 0  -x 200 -y 800 -Z 0 -z 10  -v circle -c black
n -t * -s 1  -x 200 -y 570 -Z 0 -z 10  -v circle -c black
n -t * -s 2  -x 200 -y 340 -Z 0 -z 10  -v circle -c black
V -t * -v 1.0a5 -a 0
W -t * -x 1000 -y 1000
A -t * -n 1 -p 0 -o 0x7fffffff -c 30 -a 1
A -t * -h 1 -m 1073741823 -s 0
+ -t 0.000000000 -s 0 -d -1 -p AODV -e 44 -c 2 -a 0 -i 0 -k RTR 
- -t 0.000000000 -s 0 -d -1 -p AODV -e 44 -c 2 -a 0 -i 0 -k RTR
h -t 0.000000000 -s 0 -d -1 -p AODV -e 44 -c 2 -a 0 -i 0 -k RTR
+ -t 0.000000000 -s 1 -d -1 -p AODV -e 44 -c 2 -a 0 -i 0 -k RTR 
- -t 0.000000000 -s 1 -d -1 -p AODV -e 44 -c 2 -a 0 -i 0 -k RTR
h -t 0.000000000 -s 1 -d -1 -p AODV -e 44 -c 2 -a 0 -i 0 -k RTR
+ -t 0.000000000 -s 2 -d -1 -p AODV -e 44 -c 2 -a 0 -i 0 -k RTR 
- -t 0.000000000 -s 2 -d -1 -p AODV -e 44 -c 2 -a 0 -i 0 -k RTR
h -t 0.000000000 -s 2 -d -1 -p AODV -e 44 -c 2 -a 0 -i 0 -k RTR
+ -t 0.100000000 -s 0 -d -1 -p AODV -e 48 -c 2 -a 0 -i 0 -k RTR 
- -t 0.100000000 -s 0 -d -1 -p AODV -e 48 -c 2 -a 0 -i 0 -k RTR
h -t 0.100000000 -s 0 -d -1 -p AODV -e 48 -c 2 -a 0 -i 0 -k RTR
r -t 0.132425767 -s 1 -d -1 -p AODV -e 48 -c 2 -a 0 -i 0 -k RTR
+ -t 0.133306993 -s 1 -d -1 -p AODV -e 48 -c 2 -a 0 -i 0 -k RTR 
- -t 0.133306993 -s 1 -d -1 -p AODV -e 48 -c 2 -a 0 -i 0 -k RTR
h -t 0.133306993 -s 1 -d -1 -p AODV -e 48 -c 2 -a 0 -i 0 -k RTR
r -t 0.138425767 -s 0 -d -1 -p AODV -e 48 -c 2 -a 0 -i 0 -k RTR
r -t 0.138425767 -s 2 -d -1 -p AODV -e 48 -c 2 -a 0 -i 0 -k RTR
+ -t 0.138425767 -s 2 -d 1 -p AODV -e 44 -c 2 -a 0 -i 0 -k RTR 
- -t 0.138425767 -s 2 -d 1 -p AODV -e 44 -c 2 -a 0 -i 0 -k RTR
h -t 0.138425767 -s 2 -d 1 -p AODV -e 44 -c 2 -a 0 -i 0 -k RTR
+ -t 0.216409767 -s 1 -d 0 -p AODV -e 44 -c 2 -a 0 -i 0 -k RTR 
- -t 0.216409767 -s 1 -d 0 -p AODV -e 44 -c 2 -a 0 -i 0 -k RTR
h -t 0.216409767 -s 1 -d 0 -p AODV -e 44 -c 2 -a 0 -i 0 -k RTR
+ -t 0.264409767 -s 0 -d 1 -p cbr -e 230 -c 2 -a 0 -i 0 -k RTR 
- -t 0.264409767 -s 0 -d 1 -p cbr -e 230 -c 2 -a 0 -i 0 -k RTR
h -t 0.264409767 -s 0 -d 1 -p cbr -e 230 -c 2 -a 0 -i 0 -k RTR
+ -t 0.268000000 -s 0 -d 1 -p cbr -e 230 -c 2 -a 0 -i 3 -k RTR 
- -t 0.268000000 -s 0 -d 1 -p cbr -e 230 -c 2 -a 0 -i 3 -k RTR
h -t 0.268000000 -s 0 -d 1 -p cbr -e 230 -c 2 -a 0 -i 3 -k RTR
+ -t 0.271153767 -s 1 -d 2 -p cbr -e 230 -c 2 -a 0 -i 0 -k RTR 
- -t 0.271153767 -s 1 -d 2 -p cbr -e 230 -c 2 -a 0 -i 0 -k RTR
h -t 0.271153767 -s 1 -d 2 -p cbr -e 230 -c 2 -a 0 -i 0 -k RTR
+ -t 0.274409767 -s 0 -d 1 -p cbr -e 230 -c 2 -a 0 -i 1 -k RTR 
- -t 0.274409767 -s 0 -d 1 -p cbr -e 230 -c 2 -a 0 -i 1 -k RTR
h -t 0.274409767 -s 0 -d 1 -p cbr -e 230 -c 2 -a 0 -i 1 -k RTR
+ -t 0.284409767 -s 0 -d 1 -p cbr -e 230 -c 2 -a 0 -i 2 -k RTR 
- -t 0.284409767 -s 0 -d 1 -p cbr -e 230 -c 2 -a 0 -i 2 -k RTR
h -t 0.284409767 -s 0 -d 1 -p cbr -e 230 -c 2 -a 0 -i 2 -k RTR
+ -t 0.313153767 -s 1 -d 2 -p cbr -e 230 -c 2 -a 0 -i 3 -k RTR 
- -t 0.313153767 -s 1 -d 2 -p cbr -e 230 -c 2 -a 0 -i 3 -k RTR
h -t 0.313153767 -s 1 -d 2 -p cbr -e 230 -c 2 -a 0 -i 3 -k RTR
+ -t 0.324000000 -s 0 -d 1 -p cbr -e 230 -c 2 -a 0 -i 4 -k RTR 
- -t 0.324000000 -s 0 -d 1 -p cbr -e 230 -c 2 -a 0 -i 4 -k RTR
h -t 0.324000000 -s 0 -d 1 -p cbr -e 230 -c 2 -a 0 -i 4 -k RTR
+ -t 0.355153767 -s 1 -d 2 -p cbr -e 230 -c 2 -a 0 -i 1 -k RTR 
- -t 0.355153767 -s 1 -d 2 -p cbr -e 230 -c 2 -a 0 -i 1 -k RTR
h -t 0.355153767 -s 1 -d 2 -p cbr -e 230 -c 2 -a 0 -i 1 -k RTR
+ -t 0.380000000 -s 0 -d 1 -p cbr -e 230 -c 2 -a 0 -i 5 -k RTR 
- -t 0.380000000 -s 0 -d 1 -p cbr -e 230 -c 2 -a 0 -i 5 -k RTR
h -t 0.380000000 -s 0 -d 1 -p cbr -e 230 -c 2 -a 0 -i 5 -k RTR
+ -t 0.397153767 -s 1 -d 2 -p cbr -e 230 -c 2 -a 0 -i 2 -k RTR 
- -t 0.397153767 -s 1 -d 2 -p cbr -e 230 -c 2 -a 0 -i 2 -k RTR
h -t 0.397153767 -s 1 -d 2 -p cbr -e 230 -c 2 -a 0 -i 2 -k RTR
+ -t 0.436000000 -s 0 -d 1 -p cbr -e 230 -c 2 -a 0 -i 6 -k RTR 
- -t 0.436000000 -s 0 -d 1 -p cbr -e 230 -c 2 -a 0 -i 6 -k RTR
h -t 0.436000000 -s 0 -d 1 -p cbr -e 230 -c 2 -a 0 -i 6 -k RTR
+ -t 0.439153767 -s 1 -d 2 -p cbr -e 230 -c 2 -a 0 -i 4 -k RTR 
- -t 0.439153767 -s 1 -d 2 -p cbr -e 230 -c 2 -a 0 -i 4 -k RTR
h -t 0.439153767 -s 1 -d 2 -p cbr -e 230 -c 2 -a 0 -i 4 -k RTR
+ -t 0.481153767 -s 1 -d 2 -p cbr -e 230 -c 2 -a 0 -i 5 -k RTR 
- -t 0.481153767 -s 1 -d 2 -p cbr -e 230 -c 2 -a 0 -i 5 -k RTR
h -t 0.481153767 -s 1 -d 2 -p cbr -e 230 -c 2 -a 0 -i 5 -k RTR
+ -t 0.492000000 -s 0 -d 1 -p cbr -e 230 -c 2 -a 0 -i 7 -k RTR 
- -t 0.492000000 -s 0 -d 1 -p cbr -e 230 -c 2 -a 0 -i 7 -k RTR
h -t 0.492000000 -s 0 -d 1 -p cbr -e 230 -c 2 -a 0 -i 7 -k RTR
+ -t 0.523153767 -s 1 -d 2 -p cbr -e 230 -c 2 -a 0 -i 6 -k RTR 
- -t 0.523153767 -s 1 -d 2 -p cbr -e 230 -c 2 -a 0 -i 6 -k RTR
h -t 0.523153767 -s 1 -d 2 -p cbr -e 230 -c 2 -a 0 -i 6 -k RTR
+ -t 0.548000000 -s 0 -d 1 -p cbr -e 230 -c 2 -a 0 -i 8 -k RTR 
- -t 0.548000000 -s 0 -d 1 -p cbr -e 230 -c 2 -a 0 -i 8 -k RTR
h -t 0.548000000 -s 0 -d 1 -p cbr -e 230 -c 2 -a 0 -i 8 -k RTR
+ -t 0.565153767 -s 1 -d 2 -p cbr -e 230 -c 2 -a 0 -i 7 -k RTR 
- -t 0.565153767 -s 1 -d 2 -p cbr -e 230 -c 2 -a 0 -i 7 -k RTR
h -t 0.565153767 -s 1 -d 2 -p cbr -e 230 -c 2 -a 0 -i 7 -k RTR
+ -t 0.604000000 -s 0 -d 1 -p cbr -e 230 -c 2 -a 0 -i 9 -k RTR 
- -t 0.604000000 -s 0 -d 1 -p cbr -e 230 -c 2 -a 0 -i 9 -k RTR
h -t 0.604000000 -s 0 -d 1 -p cbr -e 230 -c 2 -a 0 -i 9 -k RTR
+ -t 0.607153767 -s 1 -d 2 -p cbr -e 230 -c 2 -a 0 -i 8 -k RTR 
- -t 0.607153767 -s 1 -d 2 -p cbr -e 230 -c 2 -a 0 -i 8 -k RTR
h -t 0.607153767 -s 1 -d 2 -p cbr -e 230 -c 2 -a 0 -i 8 -k RTR
+ -t 0.649153767 -s 1 -d 2 -p cbr -e 230 -c 2 -a 0 -i 9 -k RTR 
- -t 0.649153767 -s 1 -d 2 -p cbr -e 230 -c 2 -a 0 -i 9 -k RTR
h -t 0.649153767 -s 1 -d 2 -p cbr -e 230 -c 2 -a 0 -i 9 -k RTR
+ -t 0.660000000 -s 0 -d 1 -p cbr -e 230 -c 2 -a 0 -i 10 -k RTR 
- -t 0.660000000 -s 0 -d 1 -p cbr -e 230 -c 2 -a 0 -i 10 -k RTR
h -t 0.660000000 -s 0 -d 1 -p cbr -e 230 -c 2 -a 0 -i 10 -k RTR
+ -t 0.691153767 -s 1 -d 2 -p cbr -e 230 -c 2 -a 0 -i 10 -k RTR 
- -t 0.691153767 -s 1 -d 2 -p cbr -e 230 -c 2 -a 0 -i 10 -k RTR
h -t 0.691153767 -s 1 -d 2 -p cbr -e 230 -c 2 -a 0 -i 10 -k RTR
+ -t 0.716000000 -s 0 -d 1 -p cbr -e 230 -c 2 -a 0 -i 11 -k RTR 
- -t 0.716000000 -s 0 -d 1 -p cbr -e 230 -c 2 -a 0 -i 11 -k RTR
h -t 0.716000000 -s 0 -d 1 -p cbr -e 230 -c 2 -a 0 -i 11 -k RTR
+ -t 0.733153767 -s 1 -d 2 -p cbr -e 230 -c 2 -a 0 -i 11 -k RTR 
- -t 0.733153767 -s 1 -d 2 -p cbr -e 230 -c 2 -a 0 -i 11 -k RTR
h -t 0.733153767 -s 1 -d 2 -p cbr -e 230 -c 2 -a 0 -i 11 -k RTR
+ -t 0.750169789 -s 0 -d -1 -p AODV -e 44 -c 2 -a 0 -i 0 -k RTR 
- -t 0.750169789 -s 0 -d -1 -p AODV -e 44 -c 2 -a 0 -i 0 -k RTR
h -t 0.750169789 -s 0 -d -1 -p AODV -e 44 -c 2 -a 0 -i 0 -k RTR
+ -t 0.757102330 -s 2 -d -1 -p AODV -e 44 -c 2 -a 0 -i 0 -k RTR 
- -t 0.757102330 -s 2 -d -1 -p AODV -e 44 -c 2 -a 0 -i 0 -k RTR
h -t 0.757102330 -s 2 -d -1 -p AODV -e 44 -c 2 -a 0 -i 0 -k RTR
r -t 0.762409767 -s 1 -d -1 -p AODV -e 44 -c 2 -a 0 -i 0 -k RTR
+ -t 0.772000000 -s 0 -d 1 -p cbr -e 230 -c 2 -a 0 -i 12 -k RTR 
- -t 0.772000000 -s 0 -d 1 -p cbr -e 230 -c 2 -a 0 -i 12 -k RTR
h -t 0.772000000 -s 0 -d 1 -p cbr -e 230 -c 2 -a 0 -i 12 -k RTR
+ -t 0.775153767 -s 1 -d 2 -p cbr -e 230 -c 2 -a 0 -i 12 -k RTR 
- -t 0.775153767 -s 1 -d 2 -p cbr -e 230 -c 2 -a 0 -i 12 -k RTR
h -t 0.775153767 -s 1 -d 2 -p cbr -e 230 -c 2 -a 0 -i 12 -k RTR
+ -t 0.828000000 -s 0 -d 1 -p cbr -e 230 -c 2 -a 0 -i 13 -k RTR 
- -t 0.828000000 -s 0 -d 1 -p cbr -e 230 -c 2 -a 0 -i 13 -k RTR
h -t 0.828000000 -s 0 -d 1 -p cbr -e 230 -c 2 -a 0 -i 13 -k RTR
+ -t 0.859153767 -s 1 -d 2 -p cbr -e 230 -c 2 -a 0 -i 13 -k RTR 
- -t 0.859153767 -s 1 -d 2 -p cbr -e 230 -c 2 -a 0 -i 13 -k RTR
h -t 0.859153767 -s 1 -d 2 -p cbr -e 230 -c 2 -a 0 -i 13 -k RTR
+ -t 0.884000000 -s 0 -d 1 -p cbr -e 230 -c 2 -a 0 -i 14 -k RTR 
- -t 0.884000000 -s 0 -d 1 -p cbr -e 230 -c 2 -a 0 -i 14 -k RTR
h -t 0.884000000 -s 0 -d 1 -p cbr -e 230 -c 2 -a 0 -i 14 -k RTR
+ -t 0.901153767 -s 1 -d 2 -p cbr -e 230 -c 2 -a 0 -i 14 -k RTR 
- -t 0.901153767 -s 1 -d 2 -p cbr -e 230 -c 2 -a 0 -i 14 -k RTR
h -t 0.901153767 -s 1 -d 2 -p cbr -e 230 -c 2 -a 0 -i 14 -k RTR
+ -t 0.940000000 -s 0 -d 1 -p cbr -e 230 -c 2 -a 0 -i 15 -k RTR 
- -t 0.940000000 -s 0 -d 1 -p cbr -e 230 -c 2 -a 0 -i 15 -k RTR
h -t 0.940000000 -s 0 -d 1 -p cbr -e 230 -c 2 -a 0 -i 15 -k RTR
+ -t 0.943153767 -s 1 -d 2 -p cbr -e 230 -c 2 -a 0 -i 15 -k RTR 
- -t 0.943153767 -s 1 -d 2 -p cbr -e 230 -c 2 -a 0 -i 15 -k RTR
h -t 0.943153767 -s 1 -d 2 -p cbr -e 230 -c 2 -a 0 -i 15 -k RTR
+ -t 0.996000000 -s 0 -d 1 -p cbr -e 230 -c 2 -a 0 -i 16 -k RTR 
- -t 0.996000000 -s 0 -d 1 -p cbr -e 230 -c 2 -a 0 -i 16 -k RTR
h -t 0.996000000 -s 0 -d 1 -p cbr -e 230 -c 2 -a 0 -i 16 -k RTR
+ -t 1.027153767 -s 1 -d 2 -p cbr -e 230 -c 2 -a 0 -i 16 -k RTR 
- -t 1.027153767 -s 1 -d 2 -p cbr -e 230 -c 2 -a 0 -i 16 -k RTR
h -t 1.027153767 -s 1 -d 2 -p cbr -e 230 -c 2 -a 0 -i 16 -k RTR
+ -t 1.027940358 -s 1 -d -1 -p AODV -e 44 -c 2 -a 0 -i 0 -k RTR 
- -t 1.027940358 -s 1 -d -1 -p AODV -e 44 -c 2 -a 0 -i 0 -k RTR
h -t 1.027940358 -s 1 -d -1 -p AODV -e 44 -c 2 -a 0 -i 0 -k RTR
+ -t 1.052000000 -s 0 -d 1 -p cbr -e 230 -c 2 -a 0 -i 17 -k RTR 
- -t 1.052000000 -s 0 -d 1 -p cbr -e 230 -c 2 -a 0 -i 17 -k RTR
h -t 1.052000000 -s 0 -d 1 -p cbr -e 230 -c 2 -a 0 -i 17 -k RTR
r -t 1.056409767 -s 0 -d -1 -p AODV -e 44 -c 2 -a 0 -i 0 -k RTR
r -t 1.056409767 -s 2 -d -1 -p AODV -e 44 -c 2 -a 0 -i 0 -k RTR
+ -t 1.069153767 -s 1 -d 2 -p cbr -e 230 -c 2 -a 0 -i 17 -k RTR 
- -t 1.069153767 -s 1 -d 2 -p cbr -e 230 -c 2 -a 0 -i 17 -k RTR
h -t 1.069153767 -s 1 -d 2 -p cbr -e 230 -c 2 -a 0 -i 17 -k RTR
+ -t 1.108000000 -s 0 -d 1 -p cbr -e 230 -c 2 -a 0 -i 18 -k RTR 
- -t 1.108000000 -s 0 -d 1 -p cbr -e 230 -c 2 -a 0 -i 18 -k RTR
h -t 1.108000000 -s 0 -d 1 -p cbr -e 230 -c 2 -a 0 -i 18 -k RTR
+ -t 1.111153767 -s 1 -d 2 -p cbr -e 230 -c 2 -a 0 -i 18 -k RTR 
- -t 1.111153767 -s 1 -d 2 -p cbr -e 230 -c 2 -a 0 -i 18 -k RTR
h -t 1.111153767 -s 1 -d 2 -p cbr -e 230 -c 2 -a 0 -i 18 -k RTR
+ -t 1.164000000 -s 0 -d 1 -p cbr -e 230 -c 2 -a 0 -i 19 -k RTR 
- -t 1.164000000 -s 0 -d 1 -p cbr -e 230 -c 2 -a 0 -i 19 -k RTR
h -t 1.164000000 -s 0 -d 1 -p cbr -e 230 -c 2 -a 0 -i 19 -k RTR
+ -t 1.195153767 -s 1 -d 2 -p cbr -e 230 -c 2 -a 0 -i 19 -k RTR 
- -t 1.195153767 -s 1 -d 2 -p cbr -e 230 -c 2 -a 0 -i 19 -k RTR
h -t 1.195153767 -s 1 -d 2 -p cbr -e 230 -c 2 -a 0 -i 19 -k RTR
+ -t 1.220000000 -s 0 -d 1 -p cbr -e 230 -c 2 -a 0 -i 20 -k RTR 
- -t 1.220000000 -s 0 -d 1 -p cbr -e 230 -c 2 -a 0 -i 20 -k RTR
h -t 1.220000000 -s 0 -d 1 -p cbr -e 230 -c 2 -a 0 -i 20 -k RTR
+ -t 1.237153767 -s 1 -d 2 -p cbr -e 230 -c 2 -a 0 -i 20 -k RTR 
- -t 1.237153767 -s 1 -d 2 -p cbr -e 230 -c 2 -a 0 -i 20 -k RTR
h -t 1.237153767 -s 1 -d 2 -p cbr -e 230 -c 2 -a 0 -i 20 -k RTR
+ -t 1.276000000 -s 0 -d 1 -p cbr -e 230 -c 2 -a 0 -i 21 -k RTR 
- -t 1.276000000 -s 0 -d 1 -p cbr -e 230 -c 2 -a 0 -i 21 -k RTR
h -t 1.276000000 -s 0 -d 1 -p cbr -e 230 -c 2 -a 0 -i 21 -k RTR
+ -t 1.279153767 -s 1 -d 2 -p cbr -e 230 -c 2 -a 0 -i 21 -k RTR 
- -t 1.279153767 -s 1 -d 2 -p cbr -e 230 -c 2 -a 0 -i 21 -k RTR
h -t 1.279153767 -s 1 -d 2 -p cbr -e 230 -c 2 -a 0 -i 21 -k RTR
+ -t 1.332000000 -s 0 -d 1 -p cbr -e 230 -c 2 -a 0 -i 22 -k RTR 
- -t 1.332000000 -s 0 -d 1 -p cbr -e 230 -c 2 -a 0 -i 22 -k RTR
h -t 1.332000000 -s 0 -d 1 -p cbr -e 230 -c 2 -a 0 -i 22 -k RTR
+ -t 1.363153767 -s 1 -d 2 -p cbr -e 230 -c 2 -a 0 -i 22 -k RTR 
- -t 1.363153767 -s 1 -d 2 -p cbr -e 230 -c 2 -a 0 -i 22 -k RTR
h -t 1.363153767 -s 1 -d 2 -p cbr -e 230 -c 2 -a 0 -i 22 -k RTR
+ -t 1.388000000 -s 0 -d 1 -p cbr -e 230 -c 2 -a 0 -i 23 -k RTR 
- -t 1.388000000 -s 0 -d 1 -p cbr -e 230 -c 2 -a 0 -i 23 -k RTR
h -t 1.388000000 -s 0 -d 1 -p cbr -e 230 -c 2 -a 0 -i 23 -k RTR
+ -t 1.405153767 -s 1 -d 2 -p cbr -e 230 -c 2 -a 0 -i 23 -k RTR 
- -t 1.405153767 -s 1 -d 2 -p cbr -e 230 -c 2 -a 0 -i 23 -k RTR
h -t 1.405153767 -s 1 -d 2 -p cbr -e 230 -c 2 -a 0 -i 23 -k RTR
+ -t 1.444000000 -s 0 -d 1 -p cbr -e 230 -c 2 -a 0 -i 24 -k RTR 
- -t 1.444000000 -s 0 -d 1 -p cbr -e 230 -c 2 -a 0 -i 24 -k RTR
h -t 1.444000000 -s 0 -d 1 -p cbr -e 230 -c 2 -a 0 -i 24 -k RTR
+ -t 1.447153767 -s 1 -d 2 -p cbr -e 230 -c 2 -a 0 -i 24 -k RTR 
- -t 1.447153767 -s 1 -d 2 -p cbr -e 230 -c 2 -a 0 -i 24 -k RTR
h -t 1.447153767 -s 1 -d 2 -p cbr -e 230 -c 2 -a 0 -i 24 -k RTR
+ -t 1.500000000 -s 0 -d 1 -p cbr -e 230 -c 2 -a 0 -i 25 -k RTR 
- -t 1.500000000 -s 0 -d 1 -p cbr -e 230 -c 2 -a 0 -i 25 -k RTR
h -t 1.500000000 -s 0 -d 1 -p cbr -e 230 -c 2 -a 0 -i 25 -k RTR
+ -t 1.531153767 -s 1 -d 2 -p cbr -e 230 -c 2 -a 0 -i 25 -k RTR 
- -t 1.531153767 -s 1 -d 2 -p cbr -e 230 -c 2 -a 0 -i 25 -k RTR
h -t 1.531153767 -s 1 -d 2 -p cbr -e 230 -c 2 -a 0 -i 25 -k RTR
+ -t 1.556000000 -s 0 -d 1 -p cbr -e 230 -c 2 -a 0 -i 26 -k RTR 
- -t 1.556000000 -s 0 -d 1 -p cbr -e 230 -c 2 -a 0 -i 26 -k RTR
h -t 1.556000000 -s 0 -d 1 -p cbr -e 230 -c 2 -a 0 -i 26 -k RTR
+ -t 1.573153767 -s 1 -d 2 -p cbr -e 230 -c 2 -a 0 -i 26 -k RTR 
- -t 1.573153767 -s 1 -d 2 -p cbr -e 230 -c 2 -a 0 -i 26 -k RTR
h -t 1.573153767 -s 1 -d 2 -p cbr -e 230 -c 2 -a 0 -i 26 -k RTR
+ -t 1.612000000 -s 0 -d 1 -p cbr -e 230 -c 2 -a 0 -i 27 -k RTR 
- -t 1.612000000 -s 0 -d 1 -p cbr -e 230 -c 2 -a 0 -i 27 -k RTR
h -t 1.612000000 -s 0 -d 1 -p cbr -e 230 -c 2 -a 0 -i 27 -k RTR
+ -t 1.615153767 -s 1 -d 2 -p cbr -e 230 -c 2 -a 0 -i 27 -k RTR 
- -t 1.615153767 -s 1 -d 2 -p cbr -e 230 -c 2 -a 0 -i 27 -k RTR
h -t 1.615153767 -s 1 -d 2 -p cbr -e 230 -c 2 -a 0 -i 27 -k RTR
+ -t 1.668000000 -s 0 -d 1 -p cbr -e 230 -c 2 -a 0 -i 28 -k RTR 
- -t 1.668000000 -s 0 -d 1 -p cbr -e 230 -c 2 -a 0 -i 28 -k RTR
h -t 1.668000000 -s 0 -d 1 -p cbr -e 230 -c 2 -a 0 -i 28 -k RTR
+ -t 1.699153767 -s 1 -d 2 -p cbr -e 230 -c 2 -a 0 -i 28 -k RTR 
- -t 1.699153767 -s 1 -d 2 -p cbr -e 230 -c 2 -a 0 -i 28 -k RTR
h -t 1.699153767 -s 1 -d 2 -p cbr -e 230 -c 2 -a 0 -i 28 -k RTR
+ -t 1.720756480 -s 0 -d -1 -p AODV -e 44 -c 2 -a 0 -i 0 -k RTR 
- -t 1.720756480 -s 0 -d -1 -p AODV -e 44 -c 2 -a 0 -i 0 -k RTR
h -t 1.720756480 -s 0 -d -1 -p AODV -e 44 -c 2 -a 0 -i 0 -k RTR
+ -t 1.724000000 -s 0 -d 1 -p cbr -e 230 -c 2 -a 0 -i 29 -k RTR 
- -t 1.724000000 -s 0 -d 1 -p cbr -e 230 -c 2 -a 0 -i 29 -k RTR
h -t 1.724000000 -s 0 -d 1 -p cbr -e 230 -c 2 -a 0 -i 29 -k RTR
r -t 1.728409767 -s 1 -d -1 -p AODV -e 44 -c 2 -a 0 -i 0 -k RTR
+ -t 1.741153767 -s 1 -d 2 -p cbr -e 230 -c 2 -a 0 -i 29 -k RTR 
- -t 1.741153767 -s 1 -d 2 -p cbr -e 230 -c 2 -a 0 -i 29 -k RTR
h -t 1.741153767 -s 1 -d 2 -p cbr -e 230 -c 2 -a 0 -i 29 -k RTR
+ -t 1.780000000 -s 0 -d 1 -p cbr -e 230 -c 2 -a 0 -i 30 -k RTR 
- -t 1.780000000 -s 0 -d 1 -p cbr -e 230 -c 2 -a 0 -i 30 -k RTR
h -t 1.780000000 -s 0 -d 1 -p cbr -e 230 -c 2 -a 0 -i 30 -k RTR
+ -t 1.783153767 -s 1 -d 2 -p cbr -e 230 -c 2 -a 0 -i 30 -k RTR 
- -t 1.783153767 -s 1 -d 2 -p cbr -e 230 -c 2 -a 0 -i 30 -k RTR
h -t 1.783153767 -s 1 -d 2 -p cbr -e 230 -c 2 -a 0 -i 30 -k RTR
+ -t 1.836000000 -s 0 -d 1 -p cbr -e 230 -c 2 -a 0 -i 31 -k RTR 
- -t 1.836000000 -s 0 -d 1 -p cbr -e 230 -c 2 -a 0 -i 31 -k RTR
h -t 1.836000000 -s 0 -d 1 -p cbr -e 230 -c 2 -a 0 -i 31 -k RTR
+ -t 1.867153767 -s 1 -d 2 -p cbr -e 230 -c 2 -a 0 -i 31 -k RTR 
- -t 1.867153767 -s 1 -d 2 -p cbr -e 230 -c 2 -a 0 -i 31 -k RTR
h -t 1.867153767 -s 1 -d 2 -p cbr -e 230 -c 2 -a 0 -i 31 -k RTR
+ -t 1.892000000 -s 0 -d 1 -p cbr -e 230 -c 2 -a 0 -i 32 -k RTR 
- -t 1.892000000 -s 0 -d 1 -p cbr -e 230 -c 2 -a 0 -i 32 -k RTR
h -t 1.892000000 -s 0 -d 1 -p cbr -e 230 -c 2 -a 0 -i 32 -k RTR
+ -t 1.906680057 -s 2 -d -1 -p AODV -e 44 -c 2 -a 0 -i 0 -k RTR 
- -t 1.906680057 -s 2 -d -1 -p AODV -e 44 -c 2 -a 0 -i 0 -k RTR
h -t 1.906680057 -s 2 -d -1 -p AODV -e 44 -c 2 -a 0 -i 0 -k RTR
+ -t 1.909153767 -s 1 -d 2 -p cbr -e 230 -c 2 -a 0 -i 32 -k RTR 
- -t 1.909153767 -s 1 -d 2 -p cbr -e 230 -c 2 -a 0 -i 32 -k RTR
h -t 1.909153767 -s 1 -d 2 -p cbr -e 230 -c 2 -a 0 -i 32 -k RTR
+ -t 1.934421244 -s 1 -d -1 -p AODV -e 44 -c 2 -a 0 -i 0 -k RTR 
- -t 1.934421244 -s 1 -d -1 -p AODV -e 44 -c 2 -a 0 -i 0 -k RTR
h -t 1.934421244 -s 1 -d -1 -p AODV -e 44 -c 2 -a 0 -i 0 -k RTR
r -t 1.938409767 -s 0 -d -1 -p AODV -e 44 -c 2 -a 0 -i 0 -k RTR
+ -t 1.948000000 -s 0 -d 1 -p cbr -e 230 -c 2 -a 0 -i 33 -k RTR 
- -t 1.948000000 -s 0 -d 1 -p cbr -e 230 -c 2 -a 0 -i 33 -k RTR
h -t 1.948000000 -s 0 -d 1 -p cbr -e 230 -c 2 -a 0 -i 33 -k RTR
+ -t 1.951153767 -s 1 -d 2 -p cbr -e 230 -c 2 -a 0 -i 33 -k RTR 
- -t 1.951153767 -s 1 -d 2 -p cbr -e 230 -c 2 -a 0 -i 33 -k RTR
h -t 1.951153767 -s 1 -d 2 -p cbr -e 230 -c 2 -a 0 -i 33 -k RTR
+ -t 2.004000000 -s 0 -d 1 -p cbr -e 230 -c 2 -a 0 -i 34 -k RTR 
- -t 2.004000000 -s 0 -d 1 -p cbr -e 230 -c 2 -a 0 -i 34 -k RTR
h -t 2.004000000 -s 0 -d 1 -p cbr -e 230 -c 2 -a 0 -i 34 -k RTR
+ -t 2.035153767 -s 1 -d 2 -p cbr -e 230 -c 2 -a 0 -i 34 -k RTR 
- -t 2.035153767 -s 1 -d 2 -p cbr -e 230 -c 2 -a 0 -i 34 -k RTR
h -t 2.035153767 -s 1 -d 2 -p cbr -e 230 -c 2 -a 0 -i 34 -k RTR
+ -t 2.060000000 -s 0 -d 1 -p cbr -e 230 -c 2 -a 0 -i 35 -k RTR 
- -t 2.060000000 -s 0 -d 1 -p cbr -e 230 -c 2 -a 0 -i 35 -k RTR
h -t 2.060000000 -s 0 -d 1 -p cbr -e 230 -c 2 -a 0 -i 35 -k RTR
+ -t 2.077153767 -s 1 -d 2 -p cbr -e 230 -c 2 -a 0 -i 35 -k RTR 
- -t 2.077153767 -s 1 -d 2 -p cbr -e 230 -c 2 -a 0 -i 35 -k RTR
h -t 2.077153767 -s 1 -d 2 -p cbr -e 230 -c 2 -a 0 -i 35 -k RTR
+ -t 2.116000000 -s 0 -d 1 -p cbr -e 230 -c 2 -a 0 -i 36 -k RTR 
- -t 2.116000000 -s 0 -d 1 -p cbr -e 230 -c 2 -a 0 -i 36 -k RTR
h -t 2.116000000 -s 0 -d 1 -p cbr -e 230 -c 2 -a 0 -i 36 -k RTR
+ -t 2.119153767 -s 1 -d 2 -p cbr -e 230 -c 2 -a 0 -i 36 -k RTR 
- -t 2.119153767 -s 1 -d 2 -p cbr -e 230 -c 2 -a 0 -i 36 -k RTR
h -t 2.119153767 -s 1 -d 2 -p cbr -e 230 -c 2 -a 0 -i 36 -k RTR
+ -t 2.172000000 -s 0 -d 1 -p cbr -e 230 -c 2 -a 0 -i 37 -k RTR 
- -t 2.172000000 -s 0 -d 1 -p cbr -e 230 -c 2 -a 0 -i 37 -k RTR
h -t 2.172000000 -s 0 -d 1 -p cbr -e 230 -c 2 -a 0 -i 37 -k RTR
+ -t 2.203153767 -s 1 -d 2 -p cbr -e 230 -c 2 -a 0 -i 37 -k RTR 
- -t 2.203153767 -s 1 -d 2 -p cbr -e 230 -c 2 -a 0 -i 37 -k RTR
h -t 2.203153767 -s 1 -d 2 -p cbr -e 230 -c 2 -a 0 -i 37 -k RTR
+ -t 2.228000000 -s 0 -d 1 -p cbr -e 230 -c 2 -a 0 -i 38 -k RTR 
- -t 2.228000000 -s 0 -d 1 -p cbr -e 230 -c 2 -a 0 -i 38 -k RTR
h -t 2.228000000 -s 0 -d 1 -p cbr -e 230 -c 2 -a 0 -i 38 -k RTR
+ -t 2.245153767 -s 1 -d 2 -p cbr -e 230 -c 2 -a 0 -i 38 -k RTR 
- -t 2.245153767 -s 1 -d 2 -p cbr -e 230 -c 2 -a 0 -i 38 -k RTR
h -t 2.245153767 -s 1 -d 2 -p cbr -e 230 -c 2 -a 0 -i 38 -k RTR
+ -t 2.284000000 -s 0 -d 1 -p cbr -e 230 -c 2 -a 0 -i 39 -k RTR 
- -t 2.284000000 -s 0 -d 1 -p cbr -e 230 -c 2 -a 0 -i 39 -k RTR
h -t 2.284000000 -s 0 -d 1 -p cbr -e 230 -c 2 -a 0 -i 39 -k RTR
+ -t 2.287153767 -s 1 -d 2 -p cbr -e 230 -c 2 -a 0 -i 39 -k RTR 
- -t 2.287153767 -s 1 -d 2 -p cbr -e 230 -c 2 -a 0 -i 39 -k RTR
h -t 2.287153767 -s 1 -d 2 -p cbr -e 230 -c 2 -a 0 -i 39 -k RTR
+ -t 2.340000000 -s 0 -d 1 -p cbr -e 230 -c 2 -a 0 -i 40 -k RTR 
- -t 2.340000000 -s 0 -d 1 -p cbr -e 230 -c 2 -a 0 -i 40 -k RTR
h -t 2.340000000 -s 0 -d 1 -p cbr -e 230 -c 2 -a 0 -i 40 -k RTR
+ -t 2.371153767 -s 1 -d 2 -p cbr -e 230 -c 2 -a 0 -i 40 -k RTR 
- -t 2.371153767 -s 1 -d 2 -p cbr -e 230 -c 2 -a 0 -i 40 -k RTR
h -t 2.371153767 -s 1 -d 2 -p cbr -e 230 -c 2 -a 0 -i 40 -k RTR
+ -t 2.396000000 -s 0 -d 1 -p cbr -e 230 -c 2 -a 0 -i 41 -k RTR 
- -t 2.396000000 -s 0 -d 1 -p cbr -e 230 -c 2 -a 0 -i 41 -k RTR
h -t 2.396000000 -s 0 -d 1 -p cbr -e 230 -c 2 -a 0 -i 41 -k RTR
+ -t 2.413153767 -s 1 -d 2 -p cbr -e 230 -c 2 -a 0 -i 41 -k RTR 
- -t 2.413153767 -s 1 -d 2 -p cbr -e 230 -c 2 -a 0 -i 41 -k RTR
h -t 2.413153767 -s 1 -d 2 -p cbr -e 230 -c 2 -a 0 -i 41 -k RTR
+ -t 2.452000000 -s 0 -d 1 -p cbr -e 230 -c 2 -a 0 -i 42 -k RTR 
- -t 2.452000000 -s 0 -d 1 -p cbr -e 230 -c 2 -a 0 -i 42 -k RTR
h -t 2.452000000 -s 0 -d 1 -p cbr -e 230 -c 2 -a 0 -i 42 -k RTR
+ -t 2.455153767 -s 1 -d 2 -p cbr -e 230 -c 2 -a 0 -i 42 -k RTR 
- -t 2.455153767 -s 1 -d 2 -p cbr -e 230 -c 2 -a 0 -i 42 -k RTR
h -t 2.455153767 -s 1 -d 2 -p cbr -e 230 -c 2 -a 0 -i 42 -k RTR
+ -t 2.508000000 -s 0 -d 1 -p cbr -e 230 -c 2 -a 0 -i 43 -k RTR 
- -t 2.508000000 -s 0 -d 1 -p cbr -e 230 -c 2 -a 0 -i 43 -k RTR
h -t 2.508000000 -s 0 -d 1 -p cbr -e 230 -c 2 -a 0 -i 43 -k RTR
+ -t 2.539153767 -s 1 -d 2 -p cbr -e 230 -c 2 -a 0 -i 43 -k RTR 
- -t 2.539153767 -s 1 -d 2 -p cbr -e 230 -c 2 -a 0 -i 43 -k RTR
h -t 2.539153767 -s 1 -d 2 -p cbr -e 230 -c 2 -a 0 -i 43 -k RTR
+ -t 2.564000000 -s 0 -d 1 -p cbr -e 230 -c 2 -a 0 -i 44 -k RTR 
- -t 2.564000000 -s 0 -d 1 -p cbr -e 230 -c 2 -a 0 -i 44 -k RTR
h -t 2.564000000 -s 0 -d 1 -p cbr -e 230 -c 2 -a 0 -i 44 -k RTR
+ -t 2.581153767 -s 1 -d 2 -p cbr -e 230 -c 2 -a 0 -i 44 -k RTR 
- -t 2.581153767 -s 1 -d 2 -p cbr -e 230 -c 2 -a 0 -i 44 -k RTR
h -t 2.581153767 -s 1 -d 2 -p cbr -e 230 -c 2 -a 0 -i 44 -k RTR
+ -t 2.620000000 -s 0 -d 1 -p cbr -e 230 -c 2 -a 0 -i 45 -k RTR 
- -t 2.620000000 -s 0 -d 1 -p cbr -e 230 -c 2 -a 0 -i 45 -k RTR
h -t 2.620000000 -s 0 -d 1 -p cbr -e 230 -c 2 -a 0 -i 45 -k RTR
+ -t 2.623153767 -s 1 -d 2 -p cbr -e 230 -c 2 -a 0 -i 45 -k RTR 
- -t 2.623153767 -s 1 -d 2 -p cbr -e 230 -c 2 -a 0 -i 45 -k RTR
h -t 2.623153767 -s 1 -d 2 -p cbr -e 230 -c 2 -a 0 -i 45 -k RTR
+ -t 2.676000000 -s 0 -d 1 -p cbr -e 230 -c 2 -a 0 -i 46 -k RTR 
- -t 2.676000000 -s 0 -d 1 -p cbr -e 230 -c 2 -a 0 -i 46 -k RTR
h -t 2.676000000 -s 0 -d 1 -p cbr -e 230 -c 2 -a 0 -i 46 -k RTR
+ -t 2.707153767 -s 1 -d 2 -p cbr -e 230 -c 2 -a 0 -i 46 -k RTR 
- -t 2.707153767 -s 1 -d 2 -p cbr -e 230 -c 2 -a 0 -i 46 -k RTR
h -t 2.707153767 -s 1 -d 2 -p cbr -e 230 -c 2 -a 0 -i 46 -k RTR
+ -t 2.732000000 -s 0 -d 1 -p cbr -e 230 -c 2 -a 0 -i 47 -k RTR 
- -t 2.732000000 -s 0 -d 1 -p cbr -e 230 -c 2 -a 0 -i 47 -k RTR
h -t 2.732000000 -s 0 -d 1 -p cbr -e 230 -c 2 -a 0 -i 47 -k RTR
+ -t 2.749153767 -s 1 -d 2 -p cbr -e 230 -c 2 -a 0 -i 47 -k RTR 
- -t 2.749153767 -s 1 -d 2 -p cbr -e 230 -c 2 -a 0 -i 47 -k RTR
h -t 2.749153767 -s 1 -d 2 -p cbr -e 230 -c 2 -a 0 -i 47 -k RTR
+ -t 2.773980933 -s 2 -d -1 -p AODV -e 44 -c 2 -a 0 -i 0 -k RTR 
- -t 2.773980933 -s 2 -d -1 -p AODV -e 44 -c 2 -a 0 -i 0 -k RTR
h -t 2.773980933 -s 2 -d -1 -p AODV -e 44 -c 2 -a 0 -i 0 -k RTR
r -t 2.778409767 -s 1 -d -1 -p AODV -e 44 -c 2 -a 0 -i 0 -k RTR
+ -t 2.788000000 -s 0 -d 1 -p cbr -e 230 -c 2 -a 0 -i 48 -k RTR 
- -t 2.788000000 -s 0 -d 1 -p cbr -e 230 -c 2 -a 0 -i 48 -k RTR
h -t 2.788000000 -s 0 -d 1 -p cbr -e 230 -c 2 -a 0 -i 48 -k RTR
+ -t 2.791153767 -s 1 -d 2 -p cbr -e 230 -c 2 -a 0 -i 48 -k RTR 
- -t 2.791153767 -s 1 -d 2 -p cbr -e 230 -c 2 -a 0 -i 48 -k RTR
h -t 2.791153767 -s 1 -d 2 -p cbr -e 230 -c 2 -a 0 -i 48 -k RTR
+ -t 2.844000000 -s 0 -d 1 -p cbr -e 230 -c 2 -a 0 -i 49 -k RTR 
- -t 2.844000000 -s 0 -d 1 -p cbr -e 230 -c 2 -a 0 -i 49 -k RTR
h -t 2.844000000 -s 0 -d 1 -p cbr -e 230 -c 2 -a 0 -i 49 -k RTR
+ -t 2.875153767 -s 1 -d 2 -p cbr -e 230 -c 2 -a 0 -i 49 -k RTR 
- -t 2.875153767 -s 1 -d 2 -p cbr -e 230 -c 2 -a 0 -i 49 -k RTR
h -t 2.875153767 -s 1 -d 2 -p cbr -e 230 -c 2 -a 0 -i 49 -k RTR
+ -t 2.878994505 -s 0 -d -1 -p AODV -e 44 -c 2 -a 0 -i 0 -k RTR 
- -t 2.878994505 -s 0 -d -1 -p AODV -e 44 -c 2 -a 0 -i 0 -k RTR
h -t 2.878994505 -s 0 -d -1 -p AODV -e 44 -c 2 -a 0 -i 0 -k RTR
+ -t 2.900000000 -s 0 -d 1 -p cbr -e 230 -c 2 -a 0 -i 50 -k RTR 
- -t 2.900000000 -s 0 -d 1 -p cbr -e 230 -c 2 -a 0 -i 50 -k RTR
h -t 2.900000000 -s 0 -d 1 -p cbr -e 230 -c 2 -a 0 -i 50 -k RTR
r -t 2.904409767 -s 1 -d -1 -p AODV -e 44 -c 2 -a 0 -i 0 -k RTR
+ -t 2.917153767 -s 1 -d 2 -p cbr -e 230 -c 2 -a 0 -i 50 -k RTR 
- -t 2.917153767 -s 1 -d 2 -p cbr -e 230 -c 2 -a 0 -i 50 -k RTR
h -t 2.917153767 -s 1 -d 2 -p cbr -e 230 -c 2 -a 0 -i 50 -k RTR
+ -t 2.956000000 -s 0 -d 1 -p cbr -e 230 -c 2 -a 0 -i 51 -k RTR 
- -t 2.956000000 -s 0 -d 1 -p cbr -e 230 -c 2 -a 0 -i 51 -k RTR
h -t 2.956000000 -s 0 -d 1 -p cbr -e 230 -c 2 -a 0 -i 51 -k RTR
+ -t 2.959153767 -s 1 -d 2 -p cbr -e 230 -c 2 -a 0 -i 51 -k RTR 
- -t 2.959153767 -s 1 -d 2 -p cbr -e 230 -c 2 -a 0 -i 51 -k RTR
h -t 2.959153767 -s 1 -d 2 -p cbr -e 230 -c 2 -a 0 -i 51 -k RTR
+ -t 3.003853815 -s 1 -d -1 -p AODV -e 44 -c 2 -a 0 -i 0 -k RTR 
- -t 3.003853815 -s 1 -d -1 -p AODV -e 44 -c 2 -a 0 -i 0 -k RTR
h -t 3.003853815 -s 1 -d -1 -p AODV -e 44 -c 2 -a 0 -i 0 -k RTR
+ -t 3.012000000 -s 0 -d 1 -p cbr -e 230 -c 2 -a 0 -i 52 -k RTR 
- -t 3.012000000 -s 0 -d 1 -p cbr -e 230 -c 2 -a 0 -i 52 -k RTR
h -t 3.012000000 -s 0 -d 1 -p cbr -e 230 -c 2 -a 0 -i 52 -k RTR
r -t 3.030409767 -s 0 -d -1 -p AODV -e 44 -c 2 -a 0 -i 0 -k RTR
r -t 3.030409767 -s 2 -d -1 -p AODV -e 44 -c 2 -a 0 -i 0 -k RTR
+ -t 3.043153767 -s 1 -d 2 -p cbr -e 230 -c 2 -a 0 -i 52 -k RTR 
- -t 3.043153767 -s 1 -d 2 -p cbr -e 230 -c 2 -a 0 -i 52 -k RTR
h -t 3.043153767 -s 1 -d 2 -p cbr -e 230 -c 2 -a 0 -i 52 -k RTR
+ -t 3.068000000 -s 0 -d 1 -p cbr -e 230 -c 2 -a 0 -i 53 -k RTR 
- -t 3.068000000 -s 0 -d 1 -p cbr -e 230 -c 2 -a 0 -i 53 -k RTR
h -t 3.068000000 -s 0 -d 1 -p cbr -e 230 -c 2 -a 0 -i 53 -k RTR
+ -t 3.085153767 -s 1 -d 2 -p cbr -e 230 -c 2 -a 0 -i 53 -k RTR 
- -t 3.085153767 -s 1 -d 2 -p cbr -e 230 -c 2 -a 0 -i 53 -k RTR
h -t 3.085153767 -s 1 -d 2 -p cbr -e 230 -c 2 -a 0 -i 53 -k RTR
+ -t 3.124000000 -s 0 -d 1 -p cbr -e 230 -c 2 -a 0 -i 54 -k RTR 
- -t 3.124000000 -s 0 -d 1 -p cbr -e 230 -c 2 -a 0 -i 54 -k RTR
h -t 3.124000000 -s 0 -d 1 -p cbr -e 230 -c 2 -a 0 -i 54 -k RTR
+ -t 3.127153767 -s 1 -d 2 -p cbr -e 230 -c 2 -a 0 -i 54 -k RTR 
- -t 3.127153767 -s 1 -d 2 -p cbr -e 230 -c 2 -a 0 -i 54 -k RTR
h -t 3.127153767 -s 1 -d 2 -p cbr -e 230 -c 2 -a 0 -i 54 -k RTR
+ -t 3.180000000 -s 0 -d 1 -p cbr -e 230 -c 2 -a 0 -i 55 -k RTR 
- -t 3.180000000 -s 0 -d 1 -p cbr -e 230 -c 2 -a 0 -i 55 -k RTR
h -t 3.180000000 -s 0 -d 1 -p cbr -e 230 -c 2 -a 0 -i 55 -k RTR
+ -t 3.211153767 -s 1 -d 2 -p cbr -e 230 -c 2 -a 0 -i 55 -k RTR 
- -t 3.211153767 -s 1 -d 2 -p cbr -e 230 -c 2 -a 0 -i 55 -k RTR
h -t 3.211153767 -s 1 -d 2 -p cbr -e 230 -c 2 -a 0 -i 55 -k RTR
+ -t 3.236000000 -s 0 -d 1 -p cbr -e 230 -c 2 -a 0 -i 56 -k RTR 
- -t 3.236000000 -s 0 -d 1 -p cbr -e 230 -c 2 -a 0 -i 56 -k RTR
h -t 3.236000000 -s 0 -d 1 -p cbr -e 230 -c 2 -a 0 -i 56 -k RTR
+ -t 3.253153767 -s 1 -d 2 -p cbr -e 230 -c 2 -a 0 -i 56 -k RTR 
- -t 3.253153767 -s 1 -d 2 -p cbr -e 230 -c 2 -a 0 -i 56 -k RTR
h -t 3.253153767 -s 1 -d 2 -p cbr -e 230 -c 2 -a 0 -i 56 -k RTR
+ -t 3.292000000 -s 0 -d 1 -p cbr -e 230 -c 2 -a 0 -i 57 -k RTR 
- -t 3.292000000 -s 0 -d 1 -p cbr -e 230 -c 2 -a 0 -i 57 -k RTR
h -t 3.292000000 -s 0 -d 1 -p cbr -e 230 -c 2 -a 0 -i 57 -k RTR
+ -t 3.295153767 -s 1 -d 2 -p cbr -e 230 -c 2 -a 0 -i 57 -k RTR 
- -t 3.295153767 -s 1 -d 2 -p cbr -e 230 -c 2 -a 0 -i 57 -k RTR
h -t 3.295153767 -s 1 -d 2 -p cbr -e 230 -c 2 -a 0 -i 57 -k RTR
+ -t 3.348000000 -s 0 -d 1 -p cbr -e 230 -c 2 -a 0 -i 58 -k RTR 
- -t 3.348000000 -s 0 -d 1 -p cbr -e 230 -c 2 -a 0 -i 58 -k RTR
h -t 3.348000000 -s 0 -d 1 -p cbr -e 230 -c 2 -a 0 -i 58 -k RTR
+ -t 3.379153767 -s 1 -d 2 -p cbr -e 230 -c 2 -a 0 -i 58 -k RTR 
- -t 3.379153767 -s 1 -d 2 -p cbr -e 230 -c 2 -a 0 -i 58 -k RTR
h -t 3.379153767 -s 1 -d 2 -p cbr -e 230 -c 2 -a 0 -i 58 -k RTR
+ -t 3.404000000 -s 0 -d 1 -p cbr -e 230 -c 2 -a 0 -i 59 -k RTR 
- -t 3.404000000 -s 0 -d 1 -p cbr -e 230 -c 2 -a 0 -i 59 -k RTR
h -t 3.404000000 -s 0 -d 1 -p cbr -e 230 -c 2 -a 0 -i 59 -k RTR
+ -t 3.421153767 -s 1 -d 2 -p cbr -e 230 -c 2 -a 0 -i 59 -k RTR 
- -t 3.421153767 -s 1 -d 2 -p cbr -e 230 -c 2 -a 0 -i 59 -k RTR
h -t 3.421153767 -s 1 -d 2 -p cbr -e 230 -c 2 -a 0 -i 59 -k RTR
+ -t 3.460000000 -s 0 -d 1 -p cbr -e 230 -c 2 -a 0 -i 60 -k RTR 
- -t 3.460000000 -s 0 -d 1 -p cbr -e 230 -c 2 -a 0 -i 60 -k RTR
h -t 3.460000000 -s 0 -d 1 -p cbr -e 230 -c 2 -a 0 -i 60 -k RTR
+ -t 3.463153767 -s 1 -d 2 -p cbr -e 230 -c 2 -a 0 -i 60 -k RTR 
- -t 3.463153767 -s 1 -d 2 -p cbr -e 230 -c 2 -a 0 -i 60 -k RTR
h -t 3.463153767 -s 1 -d 2 -p cbr -e 230 -c 2 -a 0 -i 60 -k RTR
+ -t 3.516000000 -s 0 -d 1 -p cbr -e 230 -c 2 -a 0 -i 61 -k RTR 
- -t 3.516000000 -s 0 -d 1 -p cbr -e 230 -c 2 -a 0 -i 61 -k RTR
h -t 3.516000000 -s 0 -d 1 -p cbr -e 230 -c 2 -a 0 -i 61 -k RTR
+ -t 3.547153767 -s 1 -d 2 -p cbr -e 230 -c 2 -a 0 -i 61 -k RTR 
- -t 3.547153767 -s 1 -d 2 -p cbr -e 230 -c 2 -a 0 -i 61 -k RTR
h -t 3.547153767 -s 1 -d 2 -p cbr -e 230 -c 2 -a 0 -i 61 -k RTR
+ -t 3.572000000 -s 0 -d 1 -p cbr -e 230 -c 2 -a 0 -i 62 -k RTR 
- -t 3.572000000 -s 0 -d 1 -p cbr -e 230 -c 2 -a 0 -i 62 -k RTR
h -t 3.572000000 -s 0 -d 1 -p cbr -e 230 -c 2 -a 0 -i 62 -k RTR
+ -t 3.589153767 -s 1 -d 2 -p cbr -e 230 -c 2 -a 0 -i 62 -k RTR 
- -t 3.589153767 -s 1 -d 2 -p cbr -e 230 -c 2 -a 0 -i 62 -k RTR
h -t 3.589153767 -s 1 -d 2 -p cbr -e 230 -c 2 -a 0 -i 62 -k RTR
+ -t 3.628000000 -s 0 -d 1 -p cbr -e 230 -c 2 -a 0 -i 63 -k RTR 
- -t 3.628000000 -s 0 -d 1 -p cbr -e 230 -c 2 -a 0 -i 63 -k RTR
h -t 3.628000000 -s 0 -d 1 -p cbr -e 230 -c 2 -a 0 -i 63 -k RTR
+ -t 3.631153767 -s 1 -d 2 -p cbr -e 230 -c 2 -a 0 -i 63 -k RTR 
- -t 3.631153767 -s 1 -d 2 -p cbr -e 230 -c 2 -a 0 -i 63 -k RTR
h -t 3.631153767 -s 1 -d 2 -p cbr -e 230 -c 2 -a 0 -i 63 -k RTR
+ -t 3.678520462 -s 2 -d -1 -p AODV -e 44 -c 2 -a 0 -i 0 -k RTR 
- -t 3.678520462 -s 2 -d -1 -p AODV -e 44 -c 2 -a 0 -i 0 -k RTR
h -t 3.678520462 -s 2 -d -1 -p AODV -e 44 -c 2 -a 0 -i 0 -k RTR
+ -t 3.684000000 -s 0 -d 1 -p cbr -e 230 -c 2 -a 0 -i 64 -k RTR 
- -t 3.684000000 -s 0 -d 1 -p cbr -e 230 -c 2 -a 0 -i 64 -k RTR
h -t 3.684000000 -s 0 -d 1 -p cbr -e 230 -c 2 -a 0 -i 64 -k RTR
r -t 3.702409767 -s 1 -d -1 -p AODV -e 44 -c 2 -a 0 -i 0 -k RTR
+ -t 3.715153767 -s 1 -d 2 -p cbr -e 230 -c 2 -a 0 -i 64 -k RTR 
- -t 3.715153767 -s 1 -d 2 -p cbr -e 230 -c 2 -a 0 -i 64 -k RTR
h -t 3.715153767 -s 1 -d 2 -p cbr -e 230 -c 2 -a 0 -i 64 -k RTR
+ -t 3.740000000 -s 0 -d 1 -p cbr -e 230 -c 2 -a 0 -i 65 -k RTR 
- -t 3.740000000 -s 0 -d 1 -p cbr -e 230 -c 2 -a 0 -i 65 -k RTR
h -t 3.740000000 -s 0 -d 1 -p cbr -e 230 -c 2 -a 0 -i 65 -k RTR
+ -t 3.757153767 -s 1 -d 2 -p cbr -e 230 -c 2 -a 0 -i 65 -k RTR 
- -t 3.757153767 -s 1 -d 2 -p cbr -e 230 -c 2 -a 0 -i 65 -k RTR
h -t 3.757153767 -s 1 -d 2 -p cbr -e 230 -c 2 -a 0 -i 65 -k RTR
+ -t 3.796000000 -s 0 -d 1 -p cbr -e 230 -c 2 -a 0 -i 66 -k RTR 
- -t 3.796000000 -s 0 -d 1 -p cbr -e 230 -c 2 -a 0 -i 66 -k RTR