r 0.000000000 _0_ RTR  --- 0 cbr 210 [0 0 0 0] ------- [0:0 2:0 32 0] [0] 0 0
r 0.000000000 _3_ RTR  --- 1 cbr 210 [0 0 0 0] ------- [3:0 4:0 32 0] [0] 0 0
s 0.000000000 _0_ RTR  --- 0 AODV 44 [0 0 0 0] ------- [0:255 -1:255 1 0] [0x1 1 [0 2] 4.000000] (HELLO)
s 0.000000000 _1_ RTR  --- 0 AODV 44 [0 0 0 0] ------- [1:255 -1:255 1 0] [0x1 1 [1 2] 4.000000] (HELLO)
s 0.000000000 _2_ RTR  --- 0 AODV 44 [0 0 0 0] ------- [2:255 -1:255 1 0] [0x1 1 [2 2] 4.000000] (HELLO)
s 0.000000000 _3_ RTR  --- 0 AODV 44 [0 0 0 0] ------- [3:255 -1:255 1 0] [0x1 1 [3 2] 4.000000] (HELLO)
s 0.000000000 _4_ RTR  --- 0 AODV 44 [0 0 0 0] ------- [4:255 -1:255 1 0] [0x1 1 [4 2] 4.000000] (HELLO)
s 0.000000000 _0_ RTR  --- 0 AODV 48 [0 0 0 0] ------- [0:255 -1:255 30 0] [0x2 1 1 [2 0] [0 4]] (REQUEST)
s 0.000000000 _3_ RTR  --- 0 AODV 48 [0 0 0 0] ------- [3:255 -1:255 30 0] [0x2 1 1 [4 0] [3 4]] (REQUEST)
r 0.012425400 _4_ RTR  --- 0 AODV 48 [0 ffffffff 3 0] ------- [3:255 -1:255 30 0] [0x2 1 1 [4 0] [3 4]] (REQUEST)
s 0.012425400 _4_ RTR  --- 0 AODV 44 [0 0 0 0] ------- [4:255 3:255 30 3] [0x4 1 [4 4] 10.000000] (REPLY)
r 0.012425767 _1_ RTR  --- 0 AODV 48 [0 ffffffff 0 0] ------- [0:255 -1:255 30 0] [0x2 1 1 [2 0] [0 4]] (REQUEST)
s 0.020417321 _1_ RTR  --- 0 AODV 48 [0 ffffffff 0 0] ------- [1:255 -1:255 29 0] [0x2 2 1 [2 0] [0 4]] (REQUEST)
r 0.048425767 _0_ RTR  --- 0 AODV 48 [0 ffffffff 1 0] ------- [1:255 -1:255 29 0] [0x2 2 1 [2 0] [0 4]] (REQUEST)
r 0.048425767 _2_ RTR  --- 0 AODV 48 [0 ffffffff 1 0] ------- [1:255 -1:255 29 0] [0x2 2 1 [2 0] [0 4]] (REQUEST)
s 0.048425767 _2_ RTR  --- 0 AODV 44 [0 0 0 0] ------- [2:255 0:255 30 1] [0x4 1 [2 4] 10.000000] (REPLY)
r 0.056000000 _0_ RTR  --- 2 cbr 210 [0 0 0 0] ------- [0:0 2:0 32 0] [1] 0 0
r 0.056000000 _3_ RTR  --- 3 cbr 210 [0 0 0 0] ------- [3:0 4:0 32 0] [1] 0 0
r 0.090409400 _3_ RTR  --- 0 AODV 44 [5 3 4 0] ------- [4:255 3:255 30 3] [0x4 1 [4 4] 10.000000] (REPLY)
s 0.090409400 _3_ RTR  --- 1 cbr 230 [0 0 0 0] ------- [3:0 4:0 30 4] [0] 0 0
r 0.090409767 _1_ RTR  --- 0 AODV 44 [5 1 2 0] ------- [2:255 0:255 30 1] [0x4 1 [2 4] 10.000000] (REPLY)
f 0.090409767 _1_ RTR  --- 0 AODV 44 [5 1 2 0] ------- [2:255 0:255 29 0] [0x4 2 [2 4] 10.000000] (REPLY)
s 0.100409400 _3_ RTR  --- 3 cbr 230 [0 0 0 0] ------- [3:0 4:0 30 4] [1] 0 0
r 0.112000000 _0_ RTR  --- 4 cbr 210 [0 0 0 0] ------- [0:0 2:0 32 0] [2] 0 0
r 0.112000000 _3_ RTR  --- 5 cbr 210 [0 0 0 0] ------- [3:0 4:0 32 0] [2] 0 0
s 0.112000000 _3_ RTR  --- 5 cbr 230 [0 0 0 0] ------- [3:0 4:0 30 4] [2] 0 0
r 0.132409767 _0_ RTR  --- 0 AODV 44 [5 0 1 0] ------- [2:255 0:255 29 0] [0x4 2 [2 4] 10.000000] (REPLY)
s 0.132409767 _0_ RTR  --- 0 cbr 230 [0 0 0 0] ------- [0:0 2:0 30 1] [0] 0 0
s 0.142409767 _0_ RTR  --- 2 cbr 230 [0 0 0 0] ------- [0:0 2:0 30 1] [1] 0 0
r 0.145153767 _1_ RTR  --- 0 cbr 230 [5 1 0 0] ------- [0:0 2:0 30 1] [0] 1 0
f 0.145153767 _1_ RTR  --- 0 cbr 230 [5 1 0 0] ------- [0:0 2:0 29 2] [0] 1 0
s 0.152409767 _0_ RTR  --- 4 cbr 230 [0 0 0 0] ------- [0:0 2:0 30 1] [2] 0 0
r 0.168000000 _0_ RTR  --- 6 cbr 210 [0 0 0 0] ------- [0:0 2:0 32 0] [3] 0 0
r 0.168000000 _3_ RTR  --- 7 cbr 210 [0 0 0 0] ------- [3:0 4:0 32 0] [3] 0 0
s 0.168000000 _0_ RTR  --- 6 cbr 230 [0 0 0 0] ------- [0:0 2:0 30 1] [3] 0 0
s 0.168000000 _3_ RTR  --- 7 cbr 230 [0 0 0 0] ------- [3:0 4:0 30 4] [3] 0 0
r 0.187153767 _1_ RTR  --- 2 cbr 230 [5 1 0 0] ------- [0:0 2:0 30 1] [1] 1 0
f 0.187153767 _1_ RTR  --- 2 cbr 230 [5 1 0 0] ------- [0:0 2:0 29 2] [1] 1 0
r 0.224000000 _0_ RTR  --- 8 cbr 210 [0 0 0 0] ------- [0:0 2:0 32 0] [4] 0 0
r 0.224000000 _3_ RTR  --- 9 cbr 210 [0 0 0 0] ------- [3:0 4:0 32 0] [4] 0 0
s 0.224000000 _0_ RTR  --- 8 cbr 230 [0 0 0 0] ------- [0:0 2:0 30 1] [4] 0 0
s 0.224000000 _3_ RTR  --- 9 cbr 230 [0 0 0 0] ------- [3:0 4:0 30 4] [4] 0 0
r 0.229153767 _1_ RTR  --- 4 cbr 230 [5 1 0 0] ------- [0:0 2:0 30 1] [2] 1 0
f 0.229153767 _1_ RTR  --- 4 cbr 230 [5 1 0 0] ------- [0:0 2:0 29 2] [2] 1 0
r 0.271153767 _1_ RTR  --- 6 cbr 230 [5 1 0 0] ------- [0:0 2:0 30 1] [3] 1 0
f 0.271153767 _1_ RTR  --- 6 cbr 230 [5 1 0 0] ------- [0:0 2:0 29 2] [3] 1 0
r 0.280000000 _0_ RTR  --- 10 cbr 210 [0 0 0 0] ------- [0:0 2:0 32 0] [5] 0 0
r 0.280000000 _3_ RTR  --- 11 cbr 210 [0 0 0 0] ------- [3:0 4:0 32 0] [5] 0 0
s 0.280000000 _0_ RTR  --- 10 cbr 230 [0 0 0 0] ------- [0:0 2:0 30 1] [5] 0 0
s 0.280000000 _3_ RTR  --- 11 cbr 230 [0 0 0 0] ------- [3:0 4:0 30 4] [5] 0 0
r 0.313153767 _1_ RTR  --- 8 cbr 230 [5 1 0 0] ------- [0:0 2:0 30 1] [4] 1 0
f 0.313153767 _1_ RTR  --- 8 cbr 230 [5 1 0 0] ------- [0:0 2:0 29 2] [4] 1 0
r 0.336000000 _0_ RTR  --- 12 cbr 210 [0 0 0 0] ------- [0:0 2:0 32 0] [6] 0 0
r 0.336000000 _3_ RTR  --- 13 cbr 210 [0 0 0 0] ------- [3:0 4:0 32 0] [6] 0 0
s 0.336000000 _0_ RTR  --- 12 cbr 230 [0 0 0 0] ------- [0:0 2:0 30 1] [6] 0 0
s 0.336000000 _3_ RTR  --- 13 cbr 230 [0 0 0 0] ------- [3:0 4:0 30 4] [6] 0 0
r 0.355153767 _1_ RTR  --- 10 cbr 230 [5 1 0 0] ------- [0:0 2:0 30 1] [5] 1 0
f 0.355153767 _1_ RTR  --- 10 cbr 230 [5 1 0 0] ------- [0:0 2:0 29 2] [5] 1 0
r 0.392000000 _0_ RTR  --- 14 cbr 210 [0 0 0 0] ------- [0:0 2:0 32 0] [7] 0 0
r 0.392000000 _3_ RTR  --- 15 cbr 210 [0 0 0 0] ------- [3:0 4:0 32 0] [7] 0 0
s 0.392000000 _0_ RTR  --- 14 cbr 230 [0 0 0 0] ------- [0:0 2:0 30 1] [7] 0 0
s 0.392000000 _3_ RTR  --- 15 cbr 230 [0 0 0 0] ------- [3:0 4:0 30 4] [7] 0 0
r 0.397153767 _1_ RTR  --- 12 cbr 230 [5 1 0 0] ------- [0:0 2:0 30 1] [6] 1 0
f 0.397153767 _1_ RTR  --- 12 cbr 230 [5 1 0 0] ------- [0:0 2:0 29 2] [6] 1 0
r 0.439153767 _1_ RTR  --- 14 cbr 230 [5 1 0 0] ------- [0:0 2:0 30 1] [7] 1 0
f 0.439153767 _1_ RTR  --- 14 cbr 230 [5 1 0 0] ------- [0:0 2:0 29 2] [7] 1 0
r 0.448000000 _0_ RTR  --- 16 cbr 210 [0 0 0 0] ------- [0:0 2:0 32 0] [8] 0 0
r 0.448000000 _3_ RTR  --- 17 cbr 210 [0 0 0 0] ------- [3:0 4:0 32 0] [8] 0 0
s 0.448000000 _0_ RTR  --- 16 cbr 230 [0 0 0 0] ------- [0:0 2:0 30 1] [8] 0 0
s 0.448000000 _3_ RTR  --- 17 cbr 230 [0 0 0 0] ------- [3:0 4:0 30 4] [8] 0 0
r 0.481153767 _1_ RTR  --- 16 cbr 230 [5 1 0 0] ------- [0:0 2:0 30 1] [8] 1 0
f 0.481153767 _1_ RTR  --- 16 cbr 230 [5 1 0 0] ------- [0:0 2:0 29 2] [8] 1 0
r 0.504000000 _0_ RTR  --- 18 cbr 210 [0 0 0 0] ------- [0:0 2:0 32 0] [9] 0 0
r 0.504000000 _3_ RTR  --- 19 cbr 210 [0 0 0 0] ------- [3:0 4:0 32 0] [9] 0 0
s 0.504000000 _0_ RTR  --- 18 cbr 230 [0 0 0 0] ------- [0:0 2:0 30 1] [9] 0 0
s 0.504000000 _3_ RTR  --- 19 cbr 230 [0 0 0 0] ------- [3:0 4:0 30 4] [9] 0 0
r 0.523153767 _1_ RTR  --- 18 cbr 230 [5 1 0 0] ------- [0:0 2:0 30 1] [9] 1 0
f 0.523153767 _1_ RTR  --- 18 cbr 230 [5 1 0 0] ------- [0:0 2:0 29 2] [9] 1 0
r 0.560000000 _0_ RTR  --- 20 cbr 210 [0 0 0 0] ------- [0:0 2:0 32 0] [10] 0 0
r 0.560000000 _3_ RTR  --- 21 cbr 210 [0 0 0 0] ------- [3:0 4:0 32 0] [10] 0 0
s 0.560000000 _0_ RTR  --- 20 cbr 230 [0 0 0 0] ------- [0:0 2:0 30 1] [10] 0 0
s 0.560000000 _3_ RTR  --- 21 cbr 230 [0 0 0 0] ------- [3:0 4:0 30 4] [10] 0 0
r 0.565153767 _1_ RTR  --- 20 cbr 230 [5 1 0 0] ------- [0:0 2:0 30 1] [10] 1 0
f 0.565153767 _1_ RTR  --- 20 cbr 230 [5 1 0 0] ------- [0:0 2:0 29 2] [10] 1 0
r 0.616000000 _0_ RTR  --- 22 cbr 210 [0 0 0 0] ------- [0:0 2:0 32 0] [11] 0 0
r 0.616000000 _3_ RTR  --- 23 cbr 210 [0 0 0 0] ------- [3:0 4:0 32 0] [11] 0 0
s 0.616000000 _0_ RTR  --- 22 cbr 230 [0 0 0 0] ------- [0:0 2:0 30 1] [11] 0 0
s 0.616000000 _3_ RTR  --- 23 cbr 230 [0 0 0 0] ------- [3:0 4:0 30 4] [11] 0 0
r 0.649153767 _1_ RTR  --- 22 cbr 230 [5 1 0 0] ------- [0:0 2:0 30 1] [11] 1 0
f 0.649153767 _1_ RTR  --- 22 cbr 230 [5 1 0 0] ------- [0:0 2:0 29 2] [11] 1 0
r 0.672000000 _0_ RTR  --- 24 cbr 210 [0 0 0 0] ------- [0:0 2:0 32 0] [12] 0 0
r 0.672000000 _3_ RTR  --- 25 cbr 210 [0 0 0 0] ------- [3:0 4:0 32 0] [12] 0 0
s 0.672000000 _0_ RTR  --- 24 cbr 230 [0 0 0 0] ------- [0:0 2:0 30 1] [12] 0 0
s 0.672000000 _3_ RTR  --- 25 cbr 230 [0 0 0 0] ------- [3:0 4:0 30 4] [12] 0 0
r 0.691153767 _1_ RTR  --- 24 cbr 230 [5 1 0 0] ------- [0:0 2:0 30 1] [12] 1 0
f 0.691153767 _1_ RTR  --- 24 cbr 230 [5 1 0 0] ------- [0:0 2:0 29 2] [12] 1 0
r 0.728000000 _0_ RTR  --- 26 cbr 210 [0 0 0 0] ------- [0:0 2:0 32 0] [13] 0 0
r 0.728000000 _3_ RTR  --- 27 cbr 210 [0 0 0 0] ------- [3:0 4:0 32 0] [13] 0 0
s 0.728000000 _0_ RTR  --- 26 cbr 230 [0 0 0 0] ------- [0:0 2:0 30 1] [13] 0 0
s 0.728000000 _3_ RTR  --- 27 cbr 230 [0 0 0 0] ------- [3:0 4:0 30 4] [13] 0 0
r 0.733153767 _1_ RTR  --- 26 cbr 230 [5 1 0 0] ------- [0:0 2:0 30 1] [13] 1 0
f 0.733153767 _1_ RTR  --- 26 cbr 230 [5 1 0 0] ------- [0:0 2:0 29 2] [13] 1 0
s 0.750169789 _0_ RTR  --- 0 AODV 44 [0 0 0 0] ------- [0:255 -1:255 1 0] [0x1 1 [0 4] 4.000000] (HELLO)
s 0.757102330 _2_ RTR  --- 0 AODV 44 [0 0 0 0] ------- [2:255 -1:255 1 0] [0x1 1 [2 4] 4.000000] (HELLO)
r 0.762409767 _1_ RTR  --- 0 AODV 44 [0 ffffffff 0 0] ------- [0:255 -1:255 1 0] [0x1 1 [0 4] 4.000000] (HELLO)
r 0.784000000 _0_ RTR  --- 28 cbr 210 [0 0 0 0] ------- [0:0 2:0 32 0] [14] 0 0
r 0.784000000 _3_ RTR  --- 29 cbr 210 [0 0 0 0] ------- [3:0 4:0 32 0] [14] 0 0
s 0.784000000 _0_ RTR  --- 28 cbr 230 [0 0 0 0] ------- [0:0 2:0 30 1] [14] 0 0
s 0.784000000 _3_ RTR  --- 29 cbr 230 [0 0 0 0] ------- [3:0 4:0 30 4] [14] 0 0
s 0.794061336 _3_ RTR  --- 0 AODV 44 [0 0 0 0] ------- [3:255 -1:255 1 0] [0x1 1 [3 4] 4.000000] (HELLO)
r 0.804409400 _4_ RTR  --- 0 AODV 44 [0 ffffffff 3 0] ------- [3:255 -1:255 1 0] [0x1 1 [3 4] 4.000000] (HELLO)
r 0.804409792 _1_ RTR  --- 0 AODV 44 [0 ffffffff 3 0] ------- [3:255 -1:255 1 0] [0x1 1 [3 4] 4.000000] (HELLO)
r 0.817153767 _1_ RTR  --- 28 cbr 230 [5 1 0 0] ------- [0:0 2:0 30 1] [14] 1 0
f 0.817153767 _1_ RTR  --- 28 cbr 230 [5 1 0 0] ------- [0:0 2:0 29 2] [14] 1 0
r 0.840000000 _0_ RTR  --- 30 cbr 210 [0 0 0 0] ------- [0:0 2:0 32 0] [15] 0 0
r 0.840000000 _3_ RTR  --- 31 cbr 210 [0 0 0 0] ------- [3:0 4:0 32 0] [15] 0 0
s 0.840000000 _0_ RTR  --- 30 cbr 230 [0 0 0 0] ------- [0:0 2:0 30 1] [15] 0 0
s 0.840000000 _3_ RTR  --- 31 cbr 230 [0 0 0 0] ------- [3:0 4:0 30 4] [15] 0 0
r 0.859153767 _1_ RTR  --- 30 cbr 230 [5 1 0 0] ------- [0:0 2:0 30 1] [15] 1 0
f 0.859153767 _1_ RTR  --- 30 cbr 230 [5 1 0 0] ------- [0:0 2:0 29 2] [15] 1 0
r 0.896000000 _0_ RTR  --- 32 cbr 210 [0 0 0 0] ------- [0:0 2:0 32 0] [16] 0 0
r 0.896000000 _3_ RTR  --- 33 cbr 210 [0 0 0 0] ------- [3:0 4:0 32 0] [16] 0 0
s 0.896000000 _0_ RTR  --- 32 cbr 230 [0 0 0 0] ------- [0:0 2:0 30 1] [16] 0 0
s 0.896000000 _3_ RTR  --- 33 cbr 230 [0 0 0 0] ------- [3:0 4:0 30 4] [16] 0 0
r 0.901153767 _1_ RTR  --- 32 cbr 230 [5 1 0 0] ------- [0:0 2:0 30 1] [16] 1 0
f 0.901153767 _1_ RTR  --- 32 cbr 230 [5 1 0 0] ------- [0:0 2:0 29 2] [16] 1 0
r 0.952000000 _0_ RTR  --- 34 cbr 210 [0 0 0 0] ------- [0:0 2:0 32 0] [17] 0 0
r 0.952000000 _3_ RTR  --- 35 cbr 210 [0 0 0 0] ------- [3:0 4:0 32 0] [17] 0 0
s 0.952000000 _0_ RTR  --- 34 cbr 230 [0 0 0 0] ------- [0:0 2:0 30 1] [17] 0 0
s 0.952000000 _3_ RTR  --- 35 cbr 230 [0 0 0 0] ------- [3:0 4:0 30 4] [17] 0 0
s 0.970586691 _4_ RTR  --- 0 AODV 44 [0 0 0 0] ------- [4:255 -1:255 1 0] [0x1 1 [4 6] 4.000000] (HELLO)
r 0.972409400 _3_ RTR  --- 0 AODV 44 [0 ffffffff 4 0] ------- [4:255 -1:255 1 0] [0x1 1 [4 6] 4.000000] (HELLO)
r 0.985153767 _1_ RTR  --- 34 cbr 230 [5 1 0 0] ------- [0:0 2:0 30 1] [17] 1 0
f 0.985153767 _1_ RTR  --- 34 cbr 230 [5 1 0 0] ------- [0:0 2:0 29 2] [17] 1 0
r 1.008000000 _0_ RTR  --- 36 cbr 210 [0 0 0 0] ------- [0:0 2:0 32 0] [18] 0 0
r 1.008000000 _3_ RTR  --- 37 cbr 210 [0 0 0 0] ------- [3:0 4:0 32 0] [18] 0 0
s 1.008000000 _0_ RTR  --- 36 cbr 230 [0 0 0 0] ------- [0:0 2:0 30 1] [18] 0 0
s 1.008000000 _3_ RTR  --- 37 cbr 230 [0 0 0 0] ------- [3:0 4:0 30 4] [18] 0 0
r 1.027153767 _1_ RTR  --- 36 cbr 230 [5 1 0 0] ------- [0:0 2:0 30 1] [18] 1 0
f 1.027153767 _1_ RTR  --- 36 cbr 230 [5 1 0 0] ------- [0:0 2:0 29 2] [18] 1 0
s 1.027940358 _1_ RTR  --- 0 AODV 44 [0 0 0 0] ------- [1:255 -1:255 1 0] [0x1 1 [1 6] 4.000000] (HELLO)
r 1.056409767 _0_ RTR  --- 0 AODV 44 [0 ffffffff 1 0] ------- [1:255 -1:255 1 0] [0x1 1 [1 6] 4.000000] (HELLO)
r 1.056409767 _2_ RTR  --- 0 AODV 44 [0 ffffffff 1 0] ------- [1:255 -1:255 1 0] [0x1 1 [1 6] 4.000000] (HELLO)
r 1.056409792 _3_ RTR  --- 0 AODV 44 [0 ffffffff 1 0] ------- [1:255 -1:255 1 0] [0x1 1 [1 6] 4.000000] (HELLO)
r 1.064000000 _0_ RTR  --- 38 cbr 210 [0 0 0 0] ------- [0:0 2:0 32 0] [19] 0 0
r 1.064000000 _3_ RTR  --- 39 cbr 210 [0 0 0 0] ------- [3:0 4:0 32 0] [19] 0 0
s 1.064000000 _0_ RTR  --- 38 cbr 230 [0 0 0 0] ------- [0:0 2:0 30 1] [19] 0 0
s 1.064000000 _3_ RTR  --- 39 cbr 230 [0 0 0 0] ------- [3:0 4:0 30 4] [19] 0 0
r 1.069153767 _1_ RTR  --- 38 cbr 230 [5 1 0 0] ------- [0:0 2:0 30 1] [19] 1 0
f 1.069153767 _1_ RTR  --- 38 cbr 230 [5 1 0 0] ------- [0:0 2:0 29 2] [19] 1 0
r 1.120000000 _0_ RTR  --- 40 cbr 210 [0 0 0 0] ------- [0:0 2:0 32 0] [20] 0 0
r 1.120000000 _3_ RTR  --- 41 cbr 210 [0 0 0 0] ------- [3:0 4:0 32 0] [20] 0 0
s 1.120000000 _0_ RTR  --- 40 cbr 230 [0 0 0 0] ------- [0:0 2:0 30 1] [20] 0 0
s 1.120000000 _3_ RTR  --- 41 cbr 230 [0 0 0 0] ------- [3:0 4:0 30 4] [20] 0 0
r 1.153153767 _1_ RTR  --- 40 cbr 230 [5 1 0 0] ------- [0:0 2:0 30 1] [20] 1 0
f 1.153153767 _1_ RTR  --- 40 cbr 230 [5 1 0 0] ------- [0:0 2:0 29 2] [20] 1 0
r 1.176000000 _0_ RTR  --- 42 cbr 210 [0 0 0 0] ------- [0:0 2:0 32 0] [21] 0 0
r 1.176000000 _3_ RTR  --- 43 cbr 210 [0 0 0 0] ------- [3:0 4:0 32 0] [21] 0 0
s 1.176000000 _0_ RTR  --- 42 cbr 230 [0 0 0 0] ------- [0:0 2:0 30 1] [21] 0 0
s 1.176000000 _3_ RTR  --- 43 cbr 230 [0 0 0 0] ------- [3:0 4:0 30 4] [21] 0 0
r 1.195153767 _1_ RTR  --- 42 cbr 230 [5 1 0 0] ------- [0:0 2:0 30 1] [21] 1 0
f 1.195153767 _1_ RTR  --- 42 cbr 230 [5 1 0 0] ------- [0:0 2:0 29 2] [21] 1 0
r 1.232000000 _0_ RTR  --- 44 cbr 210 [0 0 0 0] ------- [0:0 2:0 32 0] [22] 0 0
r 1.232000000 _3_ RTR  --- 45 cbr 210 [0 0 0 0] ------- [3:0 4:0 32 0] [22] 0 0
s 1.232000000 _0_ RTR  --- 44 cbr 230 [0 0 0 0] ------- [0:0 2:0 30 1] [22] 0 0
s 1.232000000 _3_ RTR  --- 45 cbr 230 [0 0 0 0] ------- [3:0 4:0 30 4] [22] 0 0
r 1.237153767 _1_ RTR  --- 44 cbr 230 [5 1 0 0] ------- [0:0 2:0 30 1] [22] 1 0
f 1.237153767 _1_ RTR  --- 44 cbr 230 [5 1 0 0] ------- [0:0 2:0 29 2] [22] 1 0
r 1.288000000 _0_ RTR  --- 46 cbr 210 [0 0 0 0] ------- [0:0 2:0 32 0] [23] 0 0
r 1.288000000 _3_ RTR  --- 47 cbr 210 [0 0 0 0] ------- [3:0 4:0 32 0] [23] 0 0
s 1.288000000 _0_ RTR  --- 46 cbr 230 [0 0 0 0] ------- [0:0 2:0 30 1] [23] 0 0
s 1.288000000 _3_ RTR  --- 47 cbr 230 [0 0 0 0] ------- [3:0 4:0 30 4] [23] 0 0
r 1.321153767 _1_ RTR  --- 46 cbr 230 [5 1 0 0] ------- [0:0 2:0 30 1] [23] 1 0
f 1.321153767 _1_ RTR  --- 46 cbr 230 [5 1 0 0] ------- [0:0 2:0 29 2] [23] 1 0
r 1.344000000 _0_ RTR  --- 48 cbr 210 [0 0 0 0] ------- [0:0 2:0 32 0] [24] 0 0
r 1.344000000 _3_ RTR  --- 49 cbr 210 [0 0 0 0] ------- [3:0 4:0 32 0] [24] 0 0
s 1.344000000 _0_ RTR  --- 48 cbr 230 [0 0 0 0] ------- [0:0 2:0 30 1] [24] 0 0
s 1.344000000 _3_ RTR  --- 49 cbr 230 [0 0 0 0] ------- [3:0 4:0 30 4] [24] 0 0
r 1.363153767 _1_ RTR  --- 48 cbr 230 [5 1 0 0] ------- [0:0 2:0 30 1] [24] 1 0
f 1.363153767 _1_ RTR  --- 48 cbr 230 [5 1 0 0] ------- [0:0 2:0 29 2] [24] 1 0
r 1.400000000 _0_ RTR  --- 50 cbr 210 [0 0 0 0] ------- [0:0 2:0 32 0] [25] 0 0
r 1.400000000 _3_ RTR  --- 51 cbr 210 [0 0 0 0] ------- [3:0 4:0 32 0] [25] 0 0
s 1.400000000 _0_ RTR  --- 50 cbr 230 [0 0 0 0] ------- [0:0 2:0 30 1] [25] 0 0
s 1.400000000 _3_ RTR  --- 51 cbr 230 [0 0 0 0] ------- [3:0 4:0 30 4] [25] 0 0
r 1.405153767 _1_ RTR  --- 50 cbr 230 [5 1 0 0] ------- [0:0 2:0 30 1] [25] 1 0
f 1.405153767 _1_ RTR  --- 50 cbr 230 [5 1 0 0] ------- [0:0 2:0 29 2] [25] 1 0
r 1.456000000 _0_ RTR  --- 52 cbr 210 [0 0 0 0] ------- [0:0 2:0 32 0] [26] 0 0
r 1.456000000 _3_ RTR  --- 53 cbr 210 [0 0 0 0] ------- [3:0 4:0 32 0] [26] 0 0
s 1.456000000 _0_ RTR  --- 52 cbr 230 [0 0 0 0] ------- [0:0 2:0 30 1] [26] 0 0
s 1.456000000 _3_ RTR  --- 53 cbr 230 [0 0 0 0] ------- [3:0 4:0 30 4] [26] 0 0
r 1.489153767 _1_ RTR  --- 52 cbr 230 [5 1 0 0] ------- [0:0 2:0 30 1] [26] 1 0
f 1.489153767 _1_ RTR  --- 52 cbr 230 [5 1 0 0] ------- [0:0 2:0 29 2] [26] 1 0
r 1.512000000 _0_ RTR  --- 54 cbr 210 [0 0 0 0] ------- [0:0 2:0 32 0] [27] 0 0
r 1.512000000 _3_ RTR  --- 55 cbr 210 [0 0 0 0] ------- [3:0 4:0 32 0] [27] 0 0
s 1.512000000 _0_ RTR  --- 54 cbr 230 [0 0 0 0] ------- [0:0 2:0 30 1] [27] 0 0
s 1.512000000 _3_ RTR  --- 55 cbr 230 [0 0 0 0] ------- [3:0 4:0 30 4] [27] 0 0
r 1.531153767 _1_ RTR  --- 54 cbr 230 [5 1 0 0] ------- [0:0 2:0 30 1] [27] 1 0
f 1.531153767 _1_ RTR  --- 54 cbr 230 [5 1 0 0] ------- [0:0 2:0 29 2] [27] 1 0
r 1.568000000 _0_ RTR  --- 56 cbr 210 [0 0 0 0] ------- [0:0 2:0 32 0] [28] 0 0
r 1.568000000 _3_ RTR  --- 57 cbr 210 [0 0 0 0] ------- [3:0 4:0 32 0] [28] 0 0
s 1.568000000 _0_ RTR  --- 56 cbr 230 [0 0 0 0] ------- [0:0 2:0 30 1] [28] 0 0
s 1.568000000 _3_ RTR  --- 57 cbr 230 [0 0 0 0] ------- [3:0 4:0 30 4] [28] 0 0
r 1.573153767 _1_ RTR  --- 56 cbr 230 [5 1 0 0] ------- [0:0 2:0 30 1] [28] 1 0
f 1.573153767 _1_ RTR  --- 56 cbr 230 [5 1 0 0] ------- [0:0 2:0 29 2] [28] 1 0
r 1.624000000 _0_ RTR  --- 58 cbr 210 [0 0 0 0] ------- [0:0 2:0 32 0] [29] 0 0
r 1.624000000 _3_ RTR  --- 59 cbr 210 [0 0 0 0] ------- [3:0 4:0 32 0] [29] 0 0
s 1.624000000 _0_ RTR  --- 58 cbr 230 [0 0 0 0] ------- [0:0 2:0 30 1] [29] 0 0
s 1.624000000 _3_ RTR  --- 59 cbr 230 [0 0 0 0] ------- [3:0 4:0 30 4] [29] 0 0
s 1.656650674 _0_ RTR  --- 0 AODV 44 [0 0 0 0] ------- [0:255 -1:255 1 0] [0x1 1 [0 6] 4.000000] (HELLO)
r 1.657153767 _1_ RTR  --- 58 cbr 230 [5 1 0 0] ------- [0:0 2:0 30 1] [29] 1 0
f 1.657153767 _1_ RTR  --- 58 cbr 230 [5 1 0 0] ------- [0:0 2:0 29 2] [29] 1 0
s 1.661362212 _3_ RTR  --- 0 AODV 44 [0 0 0 0] ------- [3:255 -1:255 1 0] [0x1 1 [3 8] 4.000000] (HELLO)
r 1.680000000 _0_ RTR  --- 60 cbr 210 [0 0 0 0] ------- [0:0 2:0 32 0] [30] 0 0
r 1.680000000 _3_ RTR  --- 61 cbr 210 [0 0 0 0] ------- [3:0 4:0 32 0] [30] 0 0
s 1.680000000 _0_ RTR  --- 60 cbr 230 [0 0 0 0] ------- [0:0 2:0 30 1] [30] 0 0
s 1.680000000 _3_ RTR  --- 61 cbr 230 [0 0 0 0] ------- [3:0 4:0 30 4] [30] 0 0
r 1.686409400 _4_ RTR  --- 0 AODV 44 [0 ffffffff 3 0] ------- [3:255 -1:255 1 0] [0x1 1 [3 8] 4.000000] (HELLO)
r 1.686409767 _1_ RTR  --- 0 AODV 44 [0 ffffffff 0 0] ------- [0:255 -1:255 1 0] [0x1 1 [0 6] 4.000000] (HELLO)
r 1.699153767 _1_ RTR  --- 60 cbr 230 [5 1 0 0] ------- [0:0 2:0 30 1] [30] 1 0
f 1.699153767 _1_ RTR  --- 60 cbr 230 [5 1 0 0] ------- [0:0 2:0 29 2] [30] 1 0
r 1.736000000 _0_ RTR  --- 62 cbr 210 [0 0 0 0] ------- [0:0 2:0 32 0] [31] 0 0
r 1.736000000 _3_ RTR  --- 63 cbr 210 [0 0 0 0] ------- [3:0 4:0 32 0] [31] 0 0
s 1.736000000 _0_ RTR  --- 62 cbr 230 [0 0 0 0] ------- [0:0 2:0 30 1] [31] 0 0
s 1.736000000 _3_ RTR  --- 63 cbr 230 [0 0 0 0] ------- [3:0 4:0 30 4] [31] 0 0
r 1.741153767 _1_ RTR  --- 62 cbr 230 [5 1 0 0] ------- [0:0 2:0 30 1] [31] 1 0
f 1.741153767 _1_ RTR  --- 62 cbr 230 [5 1 0 0] ------- [0:0 2:0 29 2] [31] 1 0
r 1.792000000 _0_ RTR  --- 64 cbr 210 [0 0 0 0] ------- [0:0 2:0 32 0] [32] 0 0
r 1.792000000 _3_ RTR  --- 65 cbr 210 [0 0 0 0] ------- [3:0 4:0 32 0] [32] 0 0
s 1.792000000 _0_ RTR  --- 64 cbr 230 [0 0 0 0] ------- [0:0 2:0 30 1] [32] 0 0
s 1.792000000 _3_ RTR  --- 65 cbr 230 [0 0 0 0] ------- [3:0 4:0 30 4] [32] 0 0
r 1.825153767 _1_ RTR  --- 64 cbr 230 [5 1 0 0] ------- [0:0 2:0 30 1] [32] 1 0
f 1.825153767 _1_ RTR  --- 64 cbr 230 [5 1 0 0] ------- [0:0 2:0 29 2] [32] 1 0
r 1.848000000 _0_ RTR  --- 66 cbr 210 [0 0 0 0] ------- [0:0 2:0 32 0] [33] 0 0
r 1.848000000 _3_ RTR  --- 67 cbr 210 [0 0 0 0] ------- [3:0 4:0 32 0] [33] 0 0
s 1.848000000 _0_ RTR  --- 66 cbr 230 [0 0 0 0] ------- [0:0 2:0 30 1] [33] 0 0
s 1.848000000 _3_ RTR  --- 67 cbr 230 [0 0 0 0] ------- [3:0 4:0 30 4] [33] 0 0
r 1.867153767 _1_ RTR  --- 66 cbr 230 [5 1 0 0] ------- [0:0 2:0 30 1] [33] 1 0
f 1.867153767 _1_ RTR  --- 66 cbr 230 [5 1 0 0] ------- [0:0 2:0 29 2] [33] 1 0
r 1.904000000 _0_ RTR  --- 68 cbr 210 [0 0 0 0] ------- [0:0 2:0 32 0] [34] 0 0
r 1.904000000 _3_ RTR  --- 69 cbr 210 [0 0 0 0] ------- [3:0 4:0 32 0] [34] 0 0
s 1.904000000 _0_ RTR  --- 68 cbr 230 [0 0 0 0] ------- [0:0 2:0 30 1] [34] 0 0
s 1.904000000 _3_ RTR  --- 69 cbr 230 [0 0 0 0] ------- [3:0 4:0 30 4] [34] 0 0
r 1.909153767 _1_ RTR  --- 68 cbr 230 [5 1 0 0] ------- [0:0 2:0 30 1] [34] 1 0
f 1.909153767 _1_ RTR  --- 68 cbr 230 [5 1 0 0] ------- [0:0 2:0 29 2] [34] 1 0
s 1.915340356 _2_ RTR  --- 0 AODV 44 [0 0 0 0] ------- [2:255 -1:255 1 0] [0x1 1 [2 6] 4.000000] (HELLO)
s 1.932479887 _1_ RTR  --- 0 AODV 44 [0 0 0 0] ------- [1:255 -1:255 1 0] [0x1 1 [1 6] 4.000000] (HELLO)
r 1.938409767 _0_ RTR  --- 0 AODV 44 [0 ffffffff 1 0] ------- [1:255 -1:255 1 0] [0x1 1 [1 6] 4.000000] (HELLO)
r 1.938409792 _3_ RTR  --- 0 AODV 44 [0 ffffffff 1 0] ------- [1:255 -1:255 1 0] [0x1 1 [1 6] 4.000000] (HELLO)
r 1.960000000 _0_ RTR  --- 70 cbr 210 [0 0 0 0] ------- [0:0 2:0 32 0] [35] 0 0
r 1.960000000 _3_ RTR  --- 71 cbr 210 [0 0 0 0] ------- [3:0 4:0 32 0] [35] 0 0
s 1.960000000 _0_ RTR  --- 70 cbr 230 [0 0 0 0] ------- [0:0 2:0 30 1] [35] 0 0
s 1.960000000 _3_ RTR  --- 71 cbr 230 [0 0 0 0] ------- [3:0 4:0 30 4] [35] 0 0
r 1.993153767 _1_ RTR  --- 70 cbr 230 [5 1 0 0] ------- [0:0 2:0 30 1] [35] 1 0
f 1.993153767 _1_ RTR  --- 70 cbr 230 [5 1 0 0] ------- [0:0 2:0 29 2] [35] 1 0
r 2.016000000 _0_ RTR  --- 72 cbr 210 [0 0 0 0] ------- [0:0 2:0 32 0] [36] 0 0
r 2.016000000 _3_ RTR  --- 73 cbr 210 [0 0 0 0] ------- [3:0 4:0 32 0] [36] 0 0
s 2.016000000 _0_ RTR  --- 72 cbr 230 [0 0 0 0] ------- [0:0 2:0 30 1] [36] 0 0
s 2.016000000 _3_ RTR  --- 73 cbr 230 [0 0 0 0] ------- [3:0 4:0 30 4] [36] 0 0
r 2.035153767 _1_ RTR  --- 72 cbr 230 [5 1 0 0] ------- [0:0 2:0 30 1] [36] 1 0
f 2.035153767 _1_ RTR  --- 72 cbr 230 [5 1 0 0] ------- [0:0 2:0 29 2] [36] 1 0
s 2.040019263 _4_ RTR  --- 0 AODV 44 [0 0 0 0] ------- [4:255 -1:255 1 0] [0x1 1 [4 6] 4.000000] (HELLO)
r 2.064409400 _3_ RTR  --- 0 AODV 44 [0 ffffffff 4 0] ------- [4:255 -1:255 1 0] [0x1 1 [4 6] 4.000000] (HELLO)
r 2.072000000 _0_ RTR  --- 74 cbr 210 [0 0 0 0] ------- [0:0 2:0 32 0] [37] 0 0
r 2.072000000 _3_ RTR  --- 75 cbr 210 [0 0 0 0] ------- [3:0 4:0 32 0] [37] 0 0
s 2.072000000 _0_ RTR  --- 74 cbr 230 [0 0 0 0] ------- [0:0 2:0 30 1] [37] 0 0
s 2.072000000 _3_ RTR  --- 75 cbr 230 [0 0 0 0] ------- [3:0 4:0 30 4] [37] 0 0
r 2.077153767 _1_ RTR  --- 74 cbr 230 [5 1 0 0] ------- [0:0 2:0 30 1] [37] 1 0
f 2.077153767 _1_ RTR  --- 74 cbr 230 [5 1 0 0] ------- [0:0 2:0 29 2] [37] 1 0
r 2.128000000 _0_ RTR  --- 76 cbr 210 [0 0 0 0] ------- [0:0 2:0 32 0] [38] 0 0
r 2.128000000 _3_ RTR  --- 77 cbr 210 [0 0 0 0] ------- [3:0 4:0 32 0] [38] 0 0
s 2.128000000 _0_ RTR  --- 76 cbr 230 [0 0 0 0] ------- [0:0 2:0 30 1] [38] 0 0
s 2.128000000 _3_ RTR  --- 77 cbr 230 [0 0 0 0] ------- [3:0 4:0 30 4] [38] 0 0
r 2.161153767 _1_ RTR  --- 76 cbr 230 [5 1 0 0] ------- [0:0 2:0 30 1] [38] 1 0
f 2.161153767 _1_ RTR  --- 76 cbr 230 [5 1 0 0] ------- [0:0 2:0 29 2] [38] 1 0
r 2.184000000 _0_ RTR  --- 78 cbr 210 [0 0 0 0] ------- [0:0 2:0 32 0] [39] 0 0
r 2.184000000 _3_ RTR  --- 79 cbr 210 [0 0 0 0] ------- [3:0 4:0 32 0] [39] 0 0
s 2.184000000 _0_ RTR  --- 78 cbr 230 [0 0 0 0] ------- [0:0 2:0 30 1] [39] 0 0
s 2.184000000 _3_ RTR  --- 79 cbr 230 [0 0 0 0] ------- [3:0 4:0 30 4] [39] 0 0
r 2.203153767 _1_ RTR  --- 78 cbr 230 [5 1 0 0] ------- [0:0 2:0 30 1] [39] 1 0
f 2.203153767 _1_ RTR  --- 78 cbr 230 [5 1 0 0] ------- [0:0 2:0 29 2] [39] 1 0
r 2.240000000 _0_ RTR  --- 80 cbr 210 [0 0 0 0] ------- [0:0 2:0 32 0] [40] 0 0
r 2.240000000 _3_ RTR  --- 81 cbr 210 [0 0 0 0] ------- [3:0 4:0 32 0] [40] 0 0
s 2.240000000 _0_ RTR  --- 80 cbr 230 [0 0 0 0] ------- [0:0 2:0 30 1] [40] 0 0
s 2.240000000 _3_ RTR  --- 81 cbr 230 [0 0 0 0] ------- [3:0 4:0 30 4] [40] 0 0
r 2.245153767 _1_ RTR  --- 80 cbr 230 [5 1 0 0] ------- [0:0 2:0 30 1] [40] 1 0
f 2.245153767 _1_ RTR  --- 80 cbr 230 [5 1 0 0] ------- [0:0 2:0 29 2] [40] 1 0
r 2.296000000 _0_ RTR  --- 82 cbr 210 [0 0 0 0] ------- [0:0 2:0 32 0] [41] 0 0
r 2.296000000 _3_ RTR  --- 83 cbr 210 [0 0 0 0] ------- [3:0 4:0 32 0] [41] 0 0
s 2.296000000 _0_ RTR  --- 82 cbr 230 [0 0 0 0] ------- [0:0 2:0 30 1] [41] 0 0
s 2.296000000 _3_ RTR  --- 83 cbr 230 [0 0 0 0] ------- [3:0 4:0 30 4] [41] 0 0
r 2.329153767 _1_ RTR  --- 82 cbr 230 [5 1 0 0] ------- [0:0 2:0 30 1] [41] 1 0
f 2.329153767 _1_ RTR  --- 82 cbr 230 [5 1 0 0] ------- [0:0 2:0 29 2] [41] 1 0
r 2.352000000 _0_ RTR  --- 84 cbr 210 [0 0 0 0] ------- [0:0 2:0 32 0] [42] 0 0
r 2.352000000 _3_ RTR  --- 85 cbr 210 [0 0 0 0] ------- [3:0 4:0 32 0] [42] 0 0
s 2.352000000 _0_ RTR  --- 84 cbr 230 [0 0 0 0] ------- [0:0 2:0 30 1] [42] 0 0
s 2.352000000 _3_ RTR  --- 85 cbr 230 [0 0 0 0] ------- [3:0 4:0 30 4] [42] 0 0
r 2.371153767 _1_ RTR  --- 84 cbr 230 [5 1 0 0] ------- [0:0 2:0 30 1] [42] 1 0
f 2.371153767 _1_ RTR  --- 84 cbr 230 [5 1 0 0] ------- [0:0 2:0 29 2] [42] 1 0
r 2.408000000 _0_ RTR  --- 86 cbr 210 [0 0 0 0] ------- [0:0 2:0 32 0] [43] 0 0
r 2.408000000 _3_ RTR  --- 87 cbr 210 [0 0 0 0] ------- [3:0 4:0 32 0] [43] 0 0
s 2.408000000 _0_ RTR  --- 86 cbr 230 [0 0 0 0] ------- [0:0 2:0 30 1] [43] 0 0
s 2.408000000 _3_ RTR  --- 87 cbr 230 [0 0 0 0] ------- [3:0 4:0 30 4] [43] 0 0
r 2.413153767 _1_ RTR  --- 86 cbr 230 [5 1 0 0] ------- [0:0 2:0 30 1] [43] 1 0
f 2.413153767 _1_ RTR  --- 86 cbr 230 [5 1 0 0] ------- [0:0 2:0 29 2] [43] 1 0
r 2.464000000 _0_ RTR  --- 88 cbr 210 [0 0 0 0] ------- [0:0 2:0 32 0] [44] 0 0
r 2.464000000 _3_ RTR  --- 89 cbr 210 [0 0 0 0] ------- [3:0 4:0 32 0] [44] 0 0
s 2.464000000 _0_ RTR  --- 88 cbr 230 [0 0 0 0] ------- [0:0 2:0 30 1] [44] 0 0
s 2.464000000 _3_ RTR  --- 89 cbr 230 [0 0 0 0] ------- [3:0 4:0 30 4] [44] 0 0
s 2.493434915 _3_ RTR  --- 0 AODV 44 [0 0 0 0] ------- [3:255 -1:255 1 0] [0x1 1 [3 8] 4.000000] (HELLO)
r 2.497153767 _1_ RTR  --- 88 cbr 230 [5 1 0 0] ------- [0:0 2:0 30 1] [44] 1 0
f 2.497153767 _1_ RTR  --- 88 cbr 230 [5 1 0 0] ------- [0:0 2:0 29 2] [44] 1 0
r 2.520000000 _0_ RTR  --- 90 cbr 210 [0 0 0 0] ------- [0:0 2:0 32 0] [45] 0 0
r 2.520000000 _3_ RTR  --- 91 cbr 210 [0 0 0 0] ------- [3:0 4:0 32 0] [45] 0 0
s 2.520000000 _0_ RTR  --- 90 cbr 230 [0 0 0 0] ------- [0:0 2:0 30 1] [45] 0 0
s 2.520000000 _3_ RTR  --- 91 cbr 230 [0 0 0 0] ------- [3:0 4:0 30 4] [45] 0 0
r 2.526409400 _4_ RTR  --- 0 AODV 44 [0 ffffffff 3 0] ------- [3:255 -1:255 1 0] [0x1 1 [3 8] 4.000000] (HELLO)
r 2.526409792 _1_ RTR  --- 0 AODV 44 [0 ffffffff 3 0] ------- [3:255 -1:255 1 0] [0x1 1 [3 8] 4.000000] (HELLO)
r 2.539153767 _1_ RTR  --- 90 cbr 230 [5 1 0 0] ------- [0:0 2:0 30 1] [45] 1 0
f 2.539153767 _1_ RTR  --- 90 cbr 230 [5 1 0 0] ------- [0:0 2:0 29 2] [45] 1 0
r 2.576000000 _0_ RTR  --- 92 cbr 210 [0 0 0 0] ------- [0:0 2:0 32 0] [46] 0 0
r 2.576000000 _3_ RTR  --- 93 cbr 210 [0 0 0 0] ------- [3:0 4:0 32 0] [46] 0 0
s 2.576000000 _0_ RTR  --- 92 cbr 230 [0 0 0 0] ------- [0:0 2:0 30 1] [46] 0 0
s 2.576000000 _3_ RTR  --- 93 cbr 230 [0 0 0 0] ------- [3:0 4:0 30 4] [46] 0 0
r 2.581153767 _1_ RTR  --- 92 cbr 230 [5 1 0 0] ------- [0:0 2:0 30 1] [46] 1 0
f 2.581153767 _1_ RTR  --- 92 cbr 230 [5 1 0 0] ------- [0:0 2:0 29 2] [46] 1 0
r 2.632000000 _0_ RTR  --- 94 cbr 210 [0 0 0 0] ------- [0:0 2:0 32 0] [47] 0 0
r 2.632000000 _3_ RTR  --- 95 cbr 210 [0 0 0 0] ------- [3:0 4:0 32 0] [47] 0 0
s 2.632000000 _0_ RTR  --- 94 cbr 230 [0 0 0 0] ------- [0:0 2:0 30 1] [47] 0 0
s 2.632000000 _3_ RTR  --- 95 cbr 230 [0 0 0 0] ------- [3:0 4:0 30 4] [47] 0 0
r 2.665153767 _1_ RTR  --- 94 cbr 230 [5 1 0 0] ------- [0:0 2:0 30 1] [47] 1 0
f 2.665153767 _1_ RTR  --- 94 cbr 230 [5 1 0 0] ------- [0:0 2:0 29 2] [47] 1 0
s 2.686737635 _2_ RTR  --- 0 AODV 44 [0 0 0 0] ------- [2:255 -1:255 1 0] [0x1 1 [2 6] 4.000000] (HELLO)
r 2.688000000 _0_ RTR  --- 96 cbr 210 [0 0 0 0] ------- [0:0 2:0 32 0] [48] 0 0
r 2.688000000 _3_ RTR  --- 97 cbr 210 [0 0 0 0] ------- [3:0 4:0 32 0] [48] 0 0
s 2.688000000 _0_ RTR  --- 96 cbr 230 [0 0 0 0] ------- [0:0 2:0 30 1] [48] 0 0
s 2.688000000 _3_ RTR  --- 97 cbr 230 [0 0 0 0] ------- [3:0 4:0 30 4] [48] 0 0
r 2.694409767 _1_ RTR  --- 0 AODV 44 [0 ffffffff 2 0] ------- [2:255 -1:255 1 0] [0x1 1 [2 6] 4.000000] (HELLO)
r 2.707153767 _1_ RTR  --- 96 cbr 230 [5 1 0 0] ------- [0:0 2:0 30 1] [48] 1 0
f 2.707153767 _1_ RTR  --- 96 cbr 230 [5 1 0 0] ------- [0:0 2:0 29 2] [48] 1 0
r 2.744000000 _0_ RTR  --- 98 cbr 210 [0 0 0 0] ------- [0:0 2:0 32 0] [49] 0 0
r 2.744000000 _3_ RTR  --- 99 cbr 210 [0 0 0 0] ------- [3:0 4:0 32 0] [49] 0 0
s 2.744000000 _0_ RTR  --- 98 cbr 230 [0 0 0 0] ------- [0:0 2:0 30 1] [49] 0 0
s 2.744000000 _3_ RTR  --- 99 cbr 230 [0 0 0 0] ------- [3:0 4:0 30 4] [49] 0 0
r 2.749153767 _1_ RTR  --- 98 cbr 230 [5 1 0 0] ------- [0:0 2:0 30 1] [49] 1 0
f 2.749153767 _1_ RTR  --- 98 cbr 230 [5 1 0 0] ------- [0:0 2:0 29 2] [49] 1 0
r 2.800000000 _0_ RTR  --- 100 cbr 210 [0 0 0 0] ------- [0:0 2:0 32 0] [50] 0 0
r 2.800000000 _3_ RTR  --- 101 cbr 210 [0 0 0 0] ------- [3:0 4:0 32 0] [50] 0 0
s 2.800000000 _0_ RTR  --- 100 cbr 230 [0 0 0 0] ------- [0:0 2:0 30 1] [50] 0 0
s 2.800000000 _3_ RTR  --- 101 cbr 230 [0 0 0 0] ------- [3:0 4:0 30 4] [50] 0 0
s 2.824812443 _0_ RTR  --- 0 AODV 44 [0 0 0 0] ------- [0:255 -1:255 1 0] [0x1 1 [0 6] 4.000000] (HELLO)
r 2.833153767 _1_ RTR  --- 100 cbr 230 [5 1 0 0] ------- [0:0 2:0 30 1] [50] 1 0
f 2.833153767 _1_ RTR  --- 100 cbr 230 [5 1 0 0] ------- [0:0 2:0 29 2] [50] 1 0
s 2.846923387 _4_ RTR  --- 0 AODV 44 [0 0 0 0] ------- [4:255 -1:255 1 0] [0x1 1 [4 6] 4.000000] (HELLO)
r 2.856000000 _0_ RTR  --- 102 cbr 210 [0 0 0 0] ------- [0:0 2:0 32 0] [51] 0 0
r 2.856000000 _3_ RTR  --- 103 cbr 210 [0 0 0 0] ------- [3:0 4:0 32 0] [51] 0 0
s 2.856000000 _0_ RTR  --- 102 cbr 230 [0 0 0 0] ------- [0:0 2:0 30 1] [51] 0 0
s 2.856000000 _3_ RTR  --- 103 cbr 230 [0 0 0 0] ------- [3:0 4:0 30 4] [51] 0 0
r 2.862409400 _3_ RTR  --- 0 AODV 44 [0 ffffffff 4 0] ------- [4:255 -1:255 1 0] [0x1 1 [4 6] 4.000000] (HELLO)