s 0.000000000 _0_ RTR  --- 0 AODV 44 [0 0 0 0] ------- [0:255 -1:255 1 0] [0x1 1 [0 2] 4.000000] (HELLO)
s 0.000000000 _1_ RTR  --- 0 AODV 44 [0 0 0 0] ------- [1:255 -1:255 1 0] [0x1 1 [1 2] 4.000000] (HELLO)
s 0.000000000 _2_ RTR  --- 0 AODV 44 [0 0 0 0] ------- [2:255 -1:255 1 0] [0x1 1 [2 2] 4.000000] (HELLO)
s 0.000000000 _3_ RTR  --- 0 AODV 44 [0 0 0 0] ------- [3:255 -1:255 1 0] [0x1 1 [3 2] 4.000000] (HELLO)
s 0.000000000 _4_ RTR  --- 0 AODV 44 [0 0 0 0] ------- [4:255 -1:255 1 0] [0x1 1 [4 2] 4.000000] (HELLO)
s 0.000000000 _5_ RTR  --- 0 AODV 44 [0 0 0 0] ------- [5:255 -1:255 1 0] [0x1 1 [5 2] 4.000000] (HELLO)
r 0.100000000 _1_ RTR  --- 0 cbr 210 [0 0 0 0] ------- [1:0 0:0 32 0] [0] 0 0
s 0.100000000 _1_ RTR  --- 0 AODV 48 [0 0 0 0] ------- [1:255 -1:255 30 0] [0x2 1 1 [0 0] [1 4]] (REQUEST)
r 0.132425767 _0_ RTR  --- 0 AODV 48 [0 ffffffff 1 0] ------- [1:255 -1:255 30 0] [0x2 1 1 [0 0] [1 4]] (REQUEST)
r 0.132425767 _2_ RTR  --- 0 AODV 48 [0 ffffffff 1 0] ------- [1:255 -1:255 30 0] [0x2 1 1 [0 0] [1 4]] (REQUEST)
s 0.132425767 _0_ RTR  --- 0 AODV 44 [0 0 0 0] ------- [0:255 1:255 30 1] [0x4 1 [0 4] 10.000000] (REPLY)
r 0.132425792 _3_ RTR  --- 0 AODV 48 [0 ffffffff 1 0] ------- [1:255 -1:255 30 0] [0x2 1 1 [0 0] [1 4]] (REQUEST)
s 0.135555384 _2_ RTR  --- 0 AODV 48 [0 ffffffff 1 0] ------- [2:255 -1:255 29 0] [0x2 2 1 [0 0] [1 4]] (REQUEST)
r 0.138425767 _5_ RTR  --- 0 AODV 48 [0 ffffffff 2 0] ------- [2:255 -1:255 29 0] [0x2 2 1 [0 0] [1 4]] (REQUEST)
s 0.140590553 _3_ RTR  --- 0 AODV 48 [0 ffffffff 1 0] ------- [3:255 -1:255 29 0] [0x2 2 1 [0 0] [1 4]] (REQUEST)
s 0.140771784 _5_ RTR  --- 0 AODV 48 [0 ffffffff 2 0] ------- [5:255 -1:255 28 0] [0x2 3 1 [0 0] [1 4]] (REQUEST)
r 0.156000000 _1_ RTR  --- 1 cbr 210 [0 0 0 0] ------- [1:0 0:0 32 0] [1] 0 0
r 0.174425400 _4_ RTR  --- 0 AODV 48 [0 ffffffff 3 0] ------- [3:255 -1:255 29 0] [0x2 2 1 [0 0] [1 4]] (REQUEST)
r 0.180409767 _1_ RTR  --- 0 AODV 44 [5 1 0 0] ------- [0:255 1:255 30 1] [0x4 1 [0 4] 10.000000] (REPLY)
s 0.180409767 _1_ RTR  --- 0 cbr 230 [0 0 0 0] ------- [1:0 0:0 30 0] [0] 0 0
s 0.180814051 _4_ RTR  --- 0 AODV 48 [0 ffffffff 3 0] ------- [4:255 -1:255 28 0] [0x2 3 1 [0 0] [1 4]] (REQUEST)
s 0.190409767 _1_ RTR  --- 1 cbr 230 [0 0 0 0] ------- [1:0 0:0 30 0] [1] 0 0
r 0.212000000 _1_ RTR  --- 2 cbr 210 [0 0 0 0] ------- [1:0 0:0 32 0] [2] 0 0
s 0.212000000 _1_ RTR  --- 2 cbr 230 [0 0 0 0] ------- [1:0 0:0 30 0] [2] 0 0
r 0.216425400 _3_ RTR  --- 0 AODV 48 [0 ffffffff 4 0] ------- [4:255 -1:255 28 0] [0x2 3 1 [0 0] [1 4]] (REQUEST)
r 0.268000000 _1_ RTR  --- 3 cbr 210 [0 0 0 0] ------- [1:0 0:0 32 0] [3] 0 0
s 0.268000000 _1_ RTR  --- 3 cbr 230 [0 0 0 0] ------- [1:0 0:0 30 0] [3] 0 0
r 0.324000000 _1_ RTR  --- 4 cbr 210 [0 0 0 0] ------- [1:0 0:0 32 0] [4] 0 0
s 0.324000000 _1_ RTR  --- 4 cbr 230 [0 0 0 0] ------- [1:0 0:0 30 0] [4] 0 0
r 0.380000000 _1_ RTR  --- 5 cbr 210 [0 0 0 0] ------- [1:0 0:0 32 0] [5] 0 0
s 0.380000000 _1_ RTR  --- 5 cbr 230 [0 0 0 0] ------- [1:0 0:0 30 0] [5] 0 0
r 0.436000000 _1_ RTR  --- 6 cbr 210 [0 0 0 0] ------- [1:0 0:0 32 0] [6] 0 0
s 0.436000000 _1_ RTR  --- 6 cbr 230 [0 0 0 0] ------- [1:0 0:0 30 0] [6] 0 0
r 0.492000000 _1_ RTR  --- 7 cbr 210 [0 0 0 0] ------- [1:0 0:0 32 0] [7] 0 0
s 0.492000000 _1_ RTR  --- 7 cbr 230 [0 0 0 0] ------- [1:0 0:0 30 0] [7] 0 0
r 0.548000000 _1_ RTR  --- 8 cbr 210 [0 0 0 0] ------- [1:0 0:0 32 0] [8] 0 0
s 0.548000000 _1_ RTR  --- 8 cbr 230 [0 0 0 0] ------- [1:0 0:0 30 0] [8] 0 0
r 0.604000000 _1_ RTR  --- 9 cbr 210 [0 0 0 0] ------- [1:0 0:0 32 0] [9] 0 0
s 0.604000000 _1_ RTR  --- 9 cbr 230 [0 0 0 0] ------- [1:0 0:0 30 0] [9] 0 0
r 0.660000000 _1_ RTR  --- 10 cbr 210 [0 0 0 0] ------- [1:0 0:0 32 0] [10] 0 0
s 0.660000000 _1_ RTR  --- 10 cbr 230 [0 0 0 0] ------- [1:0 0:0 30 0] [10] 0 0
r 0.716000000 _1_ RTR  --- 11 cbr 210 [0 0 0 0] ------- [1:0 0:0 32 0] [11] 0 0
s 0.716000000 _1_ RTR  --- 11 cbr 230 [0 0 0 0] ------- [1:0 0:0 30 0] [11] 0 0
s 0.750169789 _0_ RTR  --- 0 AODV 44 [0 0 0 0] ------- [0:255 -1:255 1 0] [0x1 1 [0 4] 4.000000] (HELLO)
s 0.757102330 _2_ RTR  --- 0 AODV 44 [0 0 0 0] ------- [2:255 -1:255 1 0] [0x1 1 [2 2] 4.000000] (HELLO)
r 0.762409767 _1_ RTR  --- 0 AODV 44 [0 ffffffff 0 0] ------- [0:255 -1:255 1 0] [0x1 1 [0 4] 4.000000] (HELLO)
r 0.762409767 _5_ RTR  --- 0 AODV 44 [0 ffffffff 2 0] ------- [2:255 -1:255 1 0] [0x1 1 [2 2] 4.000000] (HELLO)
r 0.772000000 _1_ RTR  --- 12 cbr 210 [0 0 0 0] ------- [1:0 0:0 32 0] [12] 0 0
s 0.772000000 _1_ RTR  --- 12 cbr 230 [0 0 0 0] ------- [1:0 0:0 30 0] [12] 0 0
s 0.794061336 _3_ RTR  --- 0 AODV 44 [0 0 0 0] ------- [3:255 -1:255 1 0] [0x1 1 [3 2] 4.000000] (HELLO)
r 0.804409400 _4_ RTR  --- 0 AODV 44 [0 ffffffff 3 0] ------- [3:255 -1:255 1 0] [0x1 1 [3 2] 4.000000] (HELLO)
r 0.804409792 _1_ RTR  --- 0 AODV 44 [0 ffffffff 3 0] ------- [3:255 -1:255 1 0] [0x1 1 [3 2] 4.000000] (HELLO)
r 0.828000000 _1_ RTR  --- 13 cbr 210 [0 0 0 0] ------- [1:0 0:0 32 0] [13] 0 0
s 0.828000000 _1_ RTR  --- 13 cbr 230 [0 0 0 0] ------- [1:0 0:0 30 0] [13] 0 0
r 0.884000000 _1_ RTR  --- 14 cbr 210 [0 0 0 0] ------- [1:0 0:0 32 0] [14] 0 0
s 0.884000000 _1_ RTR  --- 14 cbr 230 [0 0 0 0] ------- [1:0 0:0 30 0] [14] 0 0
r 0.940000000 _1_ RTR  --- 15 cbr 210 [0 0 0 0] ------- [1:0 0:0 32 0] [15] 0 0
s 0.940000000 _1_ RTR  --- 15 cbr 230 [0 0 0 0] ------- [1:0 0:0 30 0] [15] 0 0
s 0.970586691 _4_ RTR  --- 0 AODV 44 [0 0 0 0] ------- [4:255 -1:255 1 0] [0x1 1 [4 4] 4.000000] (HELLO)
r 0.972409400 _3_ RTR  --- 0 AODV 44 [0 ffffffff 4 0] ------- [4:255 -1:255 1 0] [0x1 1 [4 4] 4.000000] (HELLO)
r 0.996000000 _1_ RTR  --- 16 cbr 210 [0 0 0 0] ------- [1:0 0:0 32 0] [16] 0 0
s 0.996000000 _1_ RTR  --- 16 cbr 230 [0 0 0 0] ------- [1:0 0:0 30 0] [16] 0 0
s 1.027940358 _1_ RTR  --- 0 AODV 44 [0 0 0 0] ------- [1:255 -1:255 1 0] [0x1 1 [1 8] 4.000000] (HELLO)
r 1.052000000 _1_ RTR  --- 17 cbr 210 [0 0 0 0] ------- [1:0 0:0 32 0] [17] 0 0
s 1.052000000 _1_ RTR  --- 17 cbr 230 [0 0 0 0] ------- [1:0 0:0 30 0] [17] 0 0
r 1.056409767 _0_ RTR  --- 0 AODV 44 [0 ffffffff 1 0] ------- [1:255 -1:255 1 0] [0x1 1 [1 8] 4.000000] (HELLO)
r 1.056409767 _2_ RTR  --- 0 AODV 44 [0 ffffffff 1 0] ------- [1:255 -1:255 1 0] [0x1 1 [1 8] 4.000000] (HELLO)
r 1.056409792 _3_ RTR  --- 0 AODV 44 [0 ffffffff 1 0] ------- [1:255 -1:255 1 0] [0x1 1 [1 8] 4.000000] (HELLO)
r 1.108000000 _1_ RTR  --- 18 cbr 210 [0 0 0 0] ------- [1:0 0:0 32 0] [18] 0 0
s 1.108000000 _1_ RTR  --- 18 cbr 230 [0 0 0 0] ------- [1:0 0:0 30 0] [18] 0 0
s 1.149577727 _5_ RTR  --- 0 AODV 44 [0 0 0 0] ------- [5:255 -1:255 1 0] [0x1 1 [5 4] 4.000000] (HELLO)
r 1.164000000 _1_ RTR  --- 19 cbr 210 [0 0 0 0] ------- [1:0 0:0 32 0] [19] 0 0
s 1.164000000 _1_ RTR  --- 19 cbr 230 [0 0 0 0] ------- [1:0 0:0 30 0] [19] 0 0
r 1.182409767 _2_ RTR  --- 0 AODV 44 [0 ffffffff 5 0] ------- [5:255 -1:255 1 0] [0x1 1 [5 4] 4.000000] (HELLO)
r 1.220000000 _1_ RTR  --- 20 cbr 210 [0 0 0 0] ------- [1:0 0:0 32 0] [20] 0 0
s 1.220000000 _1_ RTR  --- 20 cbr 230 [0 0 0 0] ------- [1:0 0:0 30 0] [20] 0 0
r 1.276000000 _1_ RTR  --- 21 cbr 210 [0 0 0 0] ------- [1:0 0:0 32 0] [21] 0 0
s 1.276000000 _1_ RTR  --- 21 cbr 230 [0 0 0 0] ------- [1:0 0:0 30 0] [21] 0 0
r 1.332000000 _1_ RTR  --- 22 cbr 210 [0 0 0 0] ------- [1:0 0:0 32 0] [22] 0 0
s 1.332000000 _1_ RTR  --- 22 cbr 230 [0 0 0 0] ------- [1:0 0:0 30 0] [22] 0 0
r 1.388000000 _1_ RTR  --- 23 cbr 210 [0 0 0 0] ------- [1:0 0:0 32 0] [23] 0 0
s 1.388000000 _1_ RTR  --- 23 cbr 230 [0 0 0 0] ------- [1:0 0:0 30 0] [23] 0 0
r 1.444000000 _1_ RTR  --- 24 cbr 210 [0 0 0 0] ------- [1:0 0:0 32 0] [24] 0 0
s 1.444000000 _1_ RTR  --- 24 cbr 230 [0 0 0 0] ------- [1:0 0:0 30 0] [24] 0 0
r 1.500000000 _1_ RTR  --- 25 cbr 210 [0 0 0 0] ------- [1:0 0:0 32 0] [25] 0 0
s 1.500000000 _1_ RTR  --- 25 cbr 230 [0 0 0 0] ------- [1:0 0:0 30 0] [25] 0 0
r 1.556000000 _1_ RTR  --- 26 cbr 210 [0 0 0 0] ------- [1:0 0:0 32 0] [26] 0 0
s 1.556000000 _1_ RTR  --- 26 cbr 230 [0 0 0 0] ------- [1:0 0:0 30 0] [26] 0 0
r 1.612000000 _1_ RTR  --- 27 cbr 210 [0 0 0 0] ------- [1:0 0:0 32 0] [27] 0 0
s 1.612000000 _1_ RTR  --- 27 cbr 230 [0 0 0 0] ------- [1:0 0:0 30 0] [27] 0 0
s 1.626134039 _3_ RTR  --- 0 AODV 44 [0 0 0 0] ------- [3:255 -1:255 1 0] [0x1 1 [3 6] 4.000000] (HELLO)
r 1.644409400 _4_ RTR  --- 0 AODV 44 [0 ffffffff 3 0] ------- [3:255 -1:255 1 0] [0x1 1 [3 6] 4.000000] (HELLO)
r 1.644409792 _1_ RTR  --- 0 AODV 44 [0 ffffffff 3 0] ------- [3:255 -1:255 1 0] [0x1 1 [3 6] 4.000000] (HELLO)
s 1.654709318 _0_ RTR  --- 0 AODV 44 [0 0 0 0] ------- [0:255 -1:255 1 0] [0x1 1 [0 6] 4.000000] (HELLO)
r 1.668000000 _1_ RTR  --- 28 cbr 210 [0 0 0 0] ------- [1:0 0:0 32 0] [28] 0 0
s 1.668000000 _1_ RTR  --- 28 cbr 230 [0 0 0 0] ------- [1:0 0:0 30 0] [28] 0 0
r 1.686409767 _1_ RTR  --- 0 AODV 44 [0 ffffffff 0 0] ------- [0:255 -1:255 1 0] [0x1 1 [0 6] 4.000000] (HELLO)
r 1.724000000 _1_ RTR  --- 29 cbr 210 [0 0 0 0] ------- [1:0 0:0 32 0] [29] 0 0
s 1.724000000 _1_ RTR  --- 29 cbr 230 [0 0 0 0] ------- [1:0 0:0 30 0] [29] 0 0
s 1.741983970 _4_ RTR  --- 0 AODV 44 [0 0 0 0] ------- [4:255 -1:255 1 0] [0x1 1 [4 4] 4.000000] (HELLO)
r 1.770409400 _3_ RTR  --- 0 AODV 44 [0 ffffffff 4 0] ------- [4:255 -1:255 1 0] [0x1 1 [4 4] 4.000000] (HELLO)
r 1.780000000 _1_ RTR  --- 30 cbr 210 [0 0 0 0] ------- [1:0 0:0 32 0] [30] 0 0
s 1.780000000 _1_ RTR  --- 30 cbr 230 [0 0 0 0] ------- [1:0 0:0 30 0] [30] 0 0
r 1.836000000 _1_ RTR  --- 31 cbr 210 [0 0 0 0] ------- [1:0 0:0 32 0] [31] 0 0
s 1.836000000 _1_ RTR  --- 31 cbr 230 [0 0 0 0] ------- [1:0 0:0 30 0] [31] 0 0
r 1.892000000 _1_ RTR  --- 32 cbr 210 [0 0 0 0] ------- [1:0 0:0 32 0] [32] 0 0
s 1.892000000 _1_ RTR  --- 32 cbr 230 [0 0 0 0] ------- [1:0 0:0 30 0] [32] 0 0
s 1.925264099 _2_ RTR  --- 0 AODV 44 [0 0 0 0] ------- [2:255 -1:255 1 0] [0x1 1 [2 6] 4.000000] (HELLO)
r 1.938409767 _1_ RTR  --- 0 AODV 44 [0 ffffffff 2 0] ------- [2:255 -1:255 1 0] [0x1 1 [2 6] 4.000000] (HELLO)
r 1.938409767 _5_ RTR  --- 0 AODV 44 [0 ffffffff 2 0] ------- [2:255 -1:255 1 0] [0x1 1 [2 6] 4.000000] (HELLO)
r 1.948000000 _1_ RTR  --- 33 cbr 210 [0 0 0 0] ------- [1:0 0:0 32 0] [33] 0 0
s 1.948000000 _1_ RTR  --- 33 cbr 230 [0 0 0 0] ------- [1:0 0:0 30 0] [33] 0 0
s 1.956481851 _5_ RTR  --- 0 AODV 44 [0 0 0 0] ------- [5:255 -1:255 1 0] [0x1 1 [5 4] 4.000000] (HELLO)
r 1.980409767 _2_ RTR  --- 0 AODV 44 [0 ffffffff 5 0] ------- [5:255 -1:255 1 0] [0x1 1 [5 4] 4.000000] (HELLO)
r 2.004000000 _1_ RTR  --- 34 cbr 210 [0 0 0 0] ------- [1:0 0:0 32 0] [34] 0 0
s 2.004000000 _1_ RTR  --- 34 cbr 230 [0 0 0 0] ------- [1:0 0:0 30 0] [34] 0 0
r 2.060000000 _1_ RTR  --- 35 cbr 210 [0 0 0 0] ------- [1:0 0:0 32 0] [35] 0 0
s 2.060000000 _1_ RTR  --- 35 cbr 230 [0 0 0 0] ------- [1:0 0:0 30 0] [35] 0 0
s 2.097974188 _1_ RTR  --- 0 AODV 44 [0 0 0 0] ------- [1:255 -1:255 1 0] [0x1 1 [1 10] 4.000000] (HELLO)
r 2.106409767 _0_ RTR  --- 0 AODV 44 [0 ffffffff 1 0] ------- [1:255 -1:255 1 0] [0x1 1 [1 10] 4.000000] (HELLO)
r 2.106409767 _2_ RTR  --- 0 AODV 44 [0 ffffffff 1 0] ------- [1:255 -1:255 1 0] [0x1 1 [1 10] 4.000000] (HELLO)
r 2.106409792 _3_ RTR  --- 0 AODV 44 [0 ffffffff 1 0] ------- [1:255 -1:255 1 0] [0x1 1 [1 10] 4.000000] (HELLO)
r 2.116000000 _1_ RTR  --- 36 cbr 210 [0 0 0 0] ------- [1:0 0:0 32 0] [36] 0 0
s 2.116000000 _1_ RTR  --- 36 cbr 230 [0 0 0 0] ------- [1:0 0:0 30 0] [36] 0 0
r 2.172000000 _1_ RTR  --- 37 cbr 210 [0 0 0 0] ------- [1:0 0:0 32 0] [37] 0 0
s 2.172000000 _1_ RTR  --- 37 cbr 230 [0 0 0 0] ------- [1:0 0:0 30 0] [37] 0 0
r 2.228000000 _1_ RTR  --- 38 cbr 210 [0 0 0 0] ------- [1:0 0:0 32 0] [38] 0 0
s 2.228000000 _1_ RTR  --- 38 cbr 230 [0 0 0 0] ------- [1:0 0:0 30 0] [38] 0 0
r 2.284000000 _1_ RTR  --- 39 cbr 210 [0 0 0 0] ------- [1:0 0:0 32 0] [39] 0 0
s 2.284000000 _1_ RTR  --- 39 cbr 230 [0 0 0 0] ------- [1:0 0:0 30 0] [39] 0 0
r 2.340000000 _1_ RTR  --- 40 cbr 210 [0 0 0 0] ------- [1:0 0:0 32 0] [40] 0 0
s 2.340000000 _1_ RTR  --- 40 cbr 230 [0 0 0 0] ------- [1:0 0:0 30 0] [40] 0 0
r 2.396000000 _1_ RTR  --- 41 cbr 210 [0 0 0 0] ------- [1:0 0:0 32 0] [41] 0 0
s 2.396000000 _1_ RTR  --- 41 cbr 230 [0 0 0 0] ------- [1:0 0:0 30 0] [41] 0 0
r 2.452000000 _1_ RTR  --- 42 cbr 210 [0 0 0 0] ------- [1:0 0:0 32 0] [42] 0 0
s 2.452000000 _1_ RTR  --- 42 cbr 230 [0 0 0 0] ------- [1:0 0:0 30 0] [42] 0 0
r 2.508000000 _1_ RTR  --- 43 cbr 210 [0 0 0 0] ------- [1:0 0:0 32 0] [43] 0 0
s 2.508000000 _1_ RTR  --- 43 cbr 230 [0 0 0 0] ------- [1:0 0:0 30 0] [43] 0 0
r 2.564000000 _1_ RTR  --- 44 cbr 210 [0 0 0 0] ------- [1:0 0:0 32 0] [44] 0 0
s 2.564000000 _1_ RTR  --- 44 cbr 230 [0 0 0 0] ------- [1:0 0:0 30 0] [44] 0 0
s 2.579386597 _4_ RTR  --- 0 AODV 44 [0 0 0 0] ------- [4:255 -1:255 1 0] [0x1 1 [4 4] 4.000000] (HELLO)
r 2.610409400 _3_ RTR  --- 0 AODV 44 [0 ffffffff 4 0] ------- [4:255 -1:255 1 0] [0x1 1 [4 4] 4.000000] (HELLO)
s 2.616537686 _0_ RTR  --- 0 AODV 44 [0 0 0 0] ------- [0:255 -1:255 1 0] [0x1 1 [0 6] 4.000000] (HELLO)
r 2.620000000 _1_ RTR  --- 45 cbr 210 [0 0 0 0] ------- [1:0 0:0 32 0] [45] 0 0
s 2.620000000 _1_ RTR  --- 45 cbr 230 [0 0 0 0] ------- [1:0 0:0 30 0] [45] 0 0
r 2.652409767 _1_ RTR  --- 0 AODV 44 [0 ffffffff 0 0] ------- [0:255 -1:255 1 0] [0x1 1 [0 6] 4.000000] (HELLO)
r 2.676000000 _1_ RTR  --- 46 cbr 210 [0 0 0 0] ------- [1:0 0:0 32 0] [46] 0 0
s 2.676000000 _1_ RTR  --- 46 cbr 230 [0 0 0 0] ------- [1:0 0:0 30 0] [46] 0 0
s 2.722333526 _2_ RTR  --- 0 AODV 44 [0 0 0 0] ------- [2:255 -1:255 1 0] [0x1 1 [2 6] 4.000000] (HELLO)
r 2.732000000 _1_ RTR  --- 47 cbr 210 [0 0 0 0] ------- [1:0 0:0 32 0] [47] 0 0
s 2.732000000 _1_ RTR  --- 47 cbr 230 [0 0 0 0] ------- [1:0 0:0 30 0] [47] 0 0
r 2.736409767 _1_ RTR  --- 0 AODV 44 [0 ffffffff 2 0] ------- [2:255 -1:255 1 0] [0x1 1 [2 6] 4.000000] (HELLO)
r 2.736409767 _5_ RTR  --- 0 AODV 44 [0 ffffffff 2 0] ------- [2:255 -1:255 1 0] [0x1 1 [2 6] 4.000000] (HELLO)
r 2.788000000 _1_ RTR  --- 48 cbr 210 [0 0 0 0] ------- [1:0 0:0 32 0] [48] 0 0
s 2.788000000 _1_ RTR  --- 48 cbr 230 [0 0 0 0] ------- [1:0 0:0 30 0] [48] 0 0
s 2.805997888 _3_ RTR  --- 0 AODV 44 [0 0 0 0] ------- [3:255 -1:255 1 0] [0x1 1 [3 6] 4.000000] (HELLO)
r 2.820409400 _4_ RTR  --- 0 AODV 44 [0 ffffffff 3 0] ------- [3:255 -1:255 1 0] [0x1 1 [3 6] 4.000000] (HELLO)
r 2.820409792 _1_ RTR  --- 0 AODV 44 [0 ffffffff 3 0] ------- [3:255 -1:255 1 0] [0x1 1 [3 6] 4.000000] (HELLO)
r 2.844000000 _1_ RTR  --- 49 cbr 210 [0 0 0 0] ------- [1:0 0:0 32 0] [49] 0 0
s 2.844000000 _1_ RTR  --- 49 cbr 230 [0 0 0 0] ------- [1:0 0:0 30 0] [49] 0 0
r 2.900000000 _1_ RTR  --- 50 cbr 210 [0 0 0 0] ------- [1:0 0:0 32 0] [50] 0 0
s 2.900000000 _1_ RTR  --- 50 cbr 230 [0 0 0 0] ------- [1:0 0:0 30 0] [50] 0 0
r 2.956000000 _1_ RTR  --- 51 cbr 210 [0 0 0 0] ------- [1:0 0:0 32 0] [51] 0 0
s 2.956000000 _1_ RTR  --- 51 cbr 230 [0 0 0 0] ------- [1:0 0:0 30 0] [51] 0 0
r 3.012000000 _1_ RTR  --- 52 cbr 210 [0 0 0 0] ------- [1:0 0:0 32 0] [52] 0 0
s 3.012000000 _1_ RTR  --- 52 cbr 230 [0 0 0 0] ------- [1:0 0:0 30 0] [52] 0 0
s 3.022344700 _1_ RTR  --- 0 AODV 44 [0 0 0 0] ------- [1:255 -1:255 1 0] [0x1 1 [1 10] 4.000000] (HELLO)
r 3.068000000 _1_ RTR  --- 53 cbr 210 [0 0 0 0] ------- [1:0 0:0 32 0] [53] 0 0
s 3.068000000 _1_ RTR  --- 53 cbr 230 [0 0 0 0] ------- [1:0 0:0 30 0] [53] 0 0
r 3.072409767 _0_ RTR  --- 0 AODV 44 [0 ffffffff 1 0] ------- [1:255 -1:255 1 0] [0x1 1 [1 10] 4.000000] (HELLO)
r 3.072409767 _2_ RTR  --- 0 AODV 44 [0 ffffffff 1 0] ------- [1:255 -1:255 1 0] [0x1 1 [1 10] 4.000000] (HELLO)
r 3.072409792 _3_ RTR  --- 0 AODV 44 [0 ffffffff 1 0] ------- [1:255 -1:255 1 0] [0x1 1 [1 10] 4.000000] (HELLO)
s 3.109996128 _5_ RTR  --- 0 AODV 44 [0 0 0 0] ------- [5:255 -1:255 1 0] [0x1 1 [5 4] 4.000000] (HELLO)
r 3.114409767 _2_ RTR  --- 0 AODV 44 [0 ffffffff 5 0] ------- [5:255 -1:255 1 0] [0x1 1 [5 4] 4.000000] (HELLO)
r 3.124000000 _1_ RTR  --- 54 cbr 210 [0 0 0 0] ------- [1:0 0:0 32 0] [54] 0 0
s 3.124000000 _1_ RTR  --- 54 cbr 230 [0 0 0 0] ------- [1:0 0:0 30 0] [54] 0 0
r 3.180000000 _1_ RTR  --- 55 cbr 210 [0 0 0 0] ------- [1:0 0:0 32 0] [55] 0 0
s 3.180000000 _1_ RTR  --- 55 cbr 230 [0 0 0 0] ------- [1:0 0:0 30 0] [55] 0 0
r 3.236000000 _1_ RTR  --- 56 cbr 210 [0 0 0 0] ------- [1:0 0:0 32 0] [56] 0 0
s 3.236000000 _1_ RTR  --- 56 cbr 230 [0 0 0 0] ------- [1:0 0:0 30 0] [56] 0 0
r 3.292000000 _1_ RTR  --- 57 cbr 210 [0 0 0 0] ------- [1:0 0:0 32 0] [57] 0 0
s 3.292000000 _1_ RTR  --- 57 cbr 230 [0 0 0 0] ------- [1:0 0:0 30 0] [57] 0 0
r 3.348000000 _1_ RTR  --- 58 cbr 210 [0 0 0 0] ------- [1:0 0:0 32 0] [58] 0 0
s 3.348000000 _1_ RTR  --- 58 cbr 230 [0 0 0 0] ------- [1:0 0:0 30 0] [58] 0 0
r 3.404000000 _1_ RTR  --- 59 cbr 210 [0 0 0 0] ------- [1:0 0:0 32 0] [59] 0 0
s 3.404000000 _1_ RTR  --- 59 cbr 230 [0 0 0 0] ------- [1:0 0:0 30 0] [59] 0 0
s 3.458430571 _4_ RTR  --- 0 AODV 44 [0 0 0 0] ------- [4:255 -1:255 1 0] [0x1 1 [4 4] 4.000000] (HELLO)
r 3.460000000 _1_ RTR  --- 60 cbr 210 [0 0 0 0] ------- [1:0 0:0 32 0] [60] 0 0
s 3.460000000 _1_ RTR  --- 60 cbr 230 [0 0 0 0] ------- [1:0 0:0 30 0] [60] 0 0
r 3.492409400 _3_ RTR  --- 0 AODV 44 [0 ffffffff 4 0] ------- [4:255 -1:255 1 0] [0x1 1 [4 4] 4.000000] (HELLO)
r 3.516000000 _1_ RTR  --- 61 cbr 210 [0 0 0 0] ------- [1:0 0:0 32 0] [61] 0 0
s 3.516000000 _1_ RTR  --- 61 cbr 230 [0 0 0 0] ------- [1:0 0:0 30 0] [61] 0 0
s 3.570880524 _0_ RTR  --- 0 AODV 44 [0 0 0 0] ------- [0:255 -1:255 1 0] [0x1 1 [0 6] 4.000000] (HELLO)
r 3.572000000 _1_ RTR  --- 62 cbr 210 [0 0 0 0] ------- [1:0 0:0 32 0] [62] 0 0
s 3.572000000 _1_ RTR  --- 62 cbr 230 [0 0 0 0] ------- [1:0 0:0 30 0] [62] 0 0
r 3.576409767 _1_ RTR  --- 0 AODV 44 [0 ffffffff 0 0] ------- [0:255 -1:255 1 0] [0x1 1 [0 6] 4.000000] (HELLO)
r 3.628000000 _1_ RTR  --- 63 cbr 210 [0 0 0 0] ------- [1:0 0:0 32 0] [63] 0 0
s 3.628000000 _1_ RTR  --- 63 cbr 230 [0 0 0 0] ------- [1:0 0:0 30 0] [63] 0 0
r 3.684000000 _1_ RTR  --- 64 cbr 210 [0 0 0 0] ------- [1:0 0:0 32 0] [64] 0 0
s 3.684000000 _1_ RTR  --- 64 cbr 230 [0 0 0 0] ------- [1:0 0:0 30 0] [64] 0 0
s 3.731657923 _2_ RTR  --- 0 AODV 44 [0 0 0 0] ------- [2:255 -1:255 1 0] [0x1 1 [2 6] 4.000000] (HELLO)
r 3.740000000 _1_ RTR  --- 65 cbr 210 [0 0 0 0] ------- [1:0 0:0 32 0] [65] 0 0
s 3.740000000 _1_ RTR  --- 65 cbr 230 [0 0 0 0] ------- [1:0 0:0 30 0] [65] 0 0
r 3.744409767 _1_ RTR  --- 0 AODV 44 [0 ffffffff 2 0] ------- [2:255 -1:255 1 0] [0x1 1 [2 6] 4.000000] (HELLO)
r 3.744409767 _5_ RTR  --- 0 AODV 44 [0 ffffffff 2 0] ------- [2:255 -1:255 1 0] [0x1 1 [2 6] 4.000000] (HELLO)
s 3.789055856 _3_ RTR  --- 0 AODV 44 [0 0 0 0] ------- [3:255 -1:255 1 0] [0x1 1 [3 6] 4.000000] (HELLO)
r 3.792409400 _4_ RTR  --- 0 AODV 44 [0 ffffffff 3 0] ------- [3:255 -1:255 1 0] [0x1 1 [3 6] 4.000000] (HELLO)
r 3.792409792 _1_ RTR  --- 0 AODV 44 [0 ffffffff 3 0] ------- [3:255 -1:255 1 0] [0x1 1 [3 6] 4.000000] (HELLO)
r 3.796000000 _1_ RTR  --- 66 cbr 210 [0 0 0 0] ------- [1:0 0:0 32 0] [66] 0 0
s 3.796000000 _1_ RTR  --- 66 cbr 230 [0 0 0 0] ------- [1:0 0:0 30 0] [66] 0 0
r 3.852000000 _1_ RTR  --- 67 cbr 210 [0 0 0 0] ------- [1:0 0:0 32 0] [67] 0 0
s 3.852000000 _1_ RTR  --- 67 cbr 230 [0 0 0 0] ------- [1:0 0:0 30 0] [67] 0 0
r 3.908000000 _1_ RTR  --- 68 cbr 210 [0 0 0 0] ------- [1:0 0:0 32 0] [68] 0 0
s 3.908000000 _1_ RTR  --- 68 cbr 230 [0 0 0 0] ------- [1:0 0:0 30 0] [68] 0 0
r 3.964000000 _1_ RTR  --- 69 cbr 210 [0 0 0 0] ------- [1:0 0:0 32 0] [69] 0 0
s 3.964000000 _1_ RTR  --- 69 cbr 230 [0 0 0 0] ------- [1:0 0:0 30 0] [69] 0 0
r 4.020000000 _1_ RTR  --- 70 cbr 210 [0 0 0 0] ------- [1:0 0:0 32 0] [70] 0 0
s 4.020000000 _1_ RTR  --- 70 cbr 230 [0 0 0 0] ------- [1:0 0:0 30 0] [70] 0 0
r 4.076000000 _1_ RTR  --- 71 cbr 210 [0 0 0 0] ------- [1:0 0:0 32 0] [71] 0 0
s 4.076000000 _1_ RTR  --- 71 cbr 230 [0 0 0 0] ------- [1:0 0:0 30 0] [71] 0 0
s 4.118498117 _1_ RTR  --- 0 AODV 44 [0 0 0 0] ------- [1:255 -1:255 1 0] [0x1 1 [1 10] 4.000000] (HELLO)
r 4.122409767 _0_ RTR  --- 0 AODV 44 [0 ffffffff 1 0] ------- [1:255 -1:255 1 0] [0x1 1 [1 10] 4.000000] (HELLO)
r 4.122409767 _2_ RTR  --- 0 AODV 44 [0 ffffffff 1 0] ------- [1:255 -1:255 1 0] [0x1 1 [1 10] 4.000000] (HELLO)
r 4.122409792 _3_ RTR  --- 0 AODV 44 [0 ffffffff 1 0] ------- [1:255 -1:255 1 0] [0x1 1 [1 10] 4.000000] (HELLO)
r 4.132000000 _1_ RTR  --- 72 cbr 210 [0 0 0 0] ------- [1:0 0:0 32 0] [72] 0 0
s 4.132000000 _1_ RTR  --- 72 cbr 230 [0 0 0 0] ------- [1:0 0:0 30 0] [72] 0 0
r 4.188000000 _1_ RTR  --- 73 cbr 210 [0 0 0 0] ------- [1:0 0:0 32 0] [73] 0 0
s 4.188000000 _1_ RTR  --- 73 cbr 230 [0 0 0 0] ------- [1:0 0:0 30 0] [73] 0 0
r 4.244000000 _1_ RTR  --- 74 cbr 210 [0 0 0 0] ------- [1:0 0:0 32 0] [74] 0 0
s 4.244000000 _1_ RTR  --- 74 cbr 230 [0 0 0 0] ------- [1:0 0:0 30 0] [74] 0 0
s 4.291029768 _5_ RTR  --- 0 AODV 44 [0 0 0 0] ------- [5:255 -1:255 1 0] [0x1 1 [5 4] 4.000000] (HELLO)
r 4.296409767 _2_ RTR  --- 0 AODV 44 [0 ffffffff 5 0] ------- [5:255 -1:255 1 0] [0x1 1 [5 4] 4.000000] (HELLO)
r 4.300000000 _1_ RTR  --- 75 cbr 210 [0 0 0 0] ------- [1:0 0:0 32 0] [75] 0 0
s 4.300000000 _1_ RTR  --- 75 cbr 230 [0 0 0 0] ------- [1:0 0:0 30 0] [75] 0 0
r 4.356000000 _1_ RTR  --- 76 cbr 210 [0 0 0 0] ------- [1:0 0:0 32 0] [76] 0 0
s 4.356000000 _1_ RTR  --- 76 cbr 230 [0 0 0 0] ------- [1:0 0:0 30 0] [76] 0 0
r 4.412000000 _1_ RTR  --- 77 cbr 210 [0 0 0 0] ------- [1:0 0:0 32 0] [77] 0 0
s 4.412000000 _1_ RTR  --- 77 cbr 230 [0 0 0 0] ------- [1:0 0:0 30 0] [77] 0 0
s 4.429460253 _0_ RTR  --- 0 AODV 44 [0 0 0 0] ------- [0:255 -1:255 1 0] [0x1 1 [0 6] 4.000000] (HELLO)
r 4.458409767 _1_ RTR  --- 0 AODV 44 [0 ffffffff 0 0] ------- [0:255 -1:255 1 0] [0x1 1 [0 6] 4.000000] (HELLO)
r 4.468000000 _1_ RTR  --- 78 cbr 210 [0 0 0 0] ------- [1:0 0:0 32 0] [78] 0 0
s 4.468000000 _1_ RTR  --- 78 cbr 230 [0 0 0 0] ------- [1:0 0:0 30 0] [78] 0 0
r 4.524000000 _1_ RTR  --- 79 cbr 210 [0 0 0 0] ------- [1:0 0:0 32 0] [79] 0 0
s 4.524000000 _1_ RTR  --- 79 cbr 230 [0 0 0 0] ------- [1:0 0:0 30 0] [79] 0 0
r 4.580000000 _1_ RTR  --- 80 cbr 210 [0 0 0 0] ------- [1:0 0:0 32 0] [80] 0 0
s 4.580000000 _1_ RTR  --- 80 cbr 230 [0 0 0 0] ------- [1:0 0:0 30 0] [80] 0 0
s 4.602270737 _2_ RTR  --- 0 AODV 44 [0 0 0 0] ------- [2:255 -1:255 1 0] [0x1 1 [2 6] 4.000000] (HELLO)
r 4.626409767 _1_ RTR  --- 0 AODV 44 [0 ffffffff 2 0] ------- [2:255 -1:255 1 0] [0x1 1 [2 6] 4.000000] (HELLO)
r 4.626409767 _5_ RTR  --- 0 AODV 44 [0 ffffffff 2 0] ------- [2:255 -1:255 1 0] [0x1 1 [2 6] 4.000000] (HELLO)
s 4.628343173 _4_ RTR  --- 0 AODV 44 [0 0 0 0] ------- [4:255 -1:255 1 0] [0x1 1 [4 4] 4.000000] (HELLO)
r 4.632409400 _3_ RTR  --- 0 AODV 44 [0 ffffffff 4 0] ------- [4:255 -1:255 1 0] [0x1 1 [4 4] 4.000000] (HELLO)
r 4.636000000 _1_ RTR  --- 81 cbr 210 [0 0 0 0] ------- [1:0 0:0 32 0] [81] 0 0
s 4.636000000 _1_ RTR  --- 81 cbr 230 [0 0 0 0] ------- [1:0 0:0 30 0] [81] 0 0
r 4.692000000 _1_ RTR  --- 82 cbr 210 [0 0 0 0] ------- [1:0 0:0 32 0] [82] 0 0
s 4.692000000 _1_ RTR  --- 82 cbr 230 [0 0 0 0] ------- [1:0 0:0 30 0] [82] 0 0
r 4.748000000 _1_ RTR  --- 83 cbr 210 [0 0 0 0] ------- [1:0 0:0 32 0] [83] 0 0
s 4.748000000 _1_ RTR  --- 83 cbr 230 [0 0 0 0] ------- [1:0 0:0 30 0] [83] 0 0
r 4.804000000 _1_ RTR  --- 84 cbr 210 [0 0 0 0] ------- [1:0 0:0 32 0] [84] 0 0
s 4.804000000 _1_ RTR  --- 84 cbr 230 [0 0 0 0] ------- [1:0 0:0 30 0] [84] 0 0
r 4.860000000 _1_ RTR  --- 85 cbr 210 [0 0 0 0] ------- [1:0 0:0 32 0] [85] 0 0
s 4.860000000 _1_ RTR  --- 85 cbr 230 [0 0 0 0] ------- [1:0 0:0 30 0] [85] 0 0
r 4.916000000 _1_ RTR  --- 86 cbr 210 [0 0 0 0] ------- [1:0 0:0 32 0] [86] 0 0
s 4.916000000 _1_ RTR  --- 86 cbr 230 [0 0 0 0] ------- [1:0 0:0 30 0] [86] 0 0
s 4.964609132 _3_ RTR  --- 0 AODV 44 [0 0 0 0] ------- [3:255 -1:255 1 0] [0x1 1 [3 6] 4.000000] (HELLO)
r 4.968409400 _4_ RTR  --- 0 AODV 44 [0 ffffffff 3 0] ------- [3:255 -1:255 1 0] [0x1 1 [3 6] 4.000000] (HELLO)
r 4.968409792 _1_ RTR  --- 0 AODV 44 [0 ffffffff 3 0] ------- [3:255 -1:255 1 0] [0x1 1 [3 6] 4.000000] (HELLO)
r 4.972000000 _1_ RTR  --- 87 cbr 210 [0 0 0 0] ------- [1:0 0:0 32 0] [87] 0 0
s 4.972000000 _1_ RTR  --- 87 cbr 230 [0 0 0 0] ------- [1:0 0:0 30 0] [87] 0 0
r 5.028000000 _1_ RTR  --- 88 cbr 210 [0 0 0 0] ------- [1:0 0:0 32 0] [88] 0 0
s 5.028000000 _1_ RTR  --- 88 cbr 230 [0 0 0 0] ------- [1:0 0:0 30 0] [88] 0 0
r 5.084000000 _1_ RTR  --- 89 cbr 210 [0 0 0 0] ------- [1:0 0:0 32 0] [89] 0 0
s 5.084000000 _1_ RTR  --- 89 cbr 230 [0 0 0 0] ------- [1:0 0:0 30 0] [89] 0 0
r 5.140000000 _1_ RTR  --- 90 cbr 210 [0 0 0 0] ------- [1:0 0:0 32 0] [90] 0 0
s 5.140000000 _1_ RTR  --- 90 cbr 230 [0 0 0 0] ------- [1:0 0:0 30 0] [90] 0 0
r 5.196000000 _1_ RTR  --- 91 cbr 210 [0 0 0 0] ------- [1:0 0:0 32 0] [91] 0 0
s 5.196000000 _1_ RTR  --- 91 cbr 230 [0 0 0 0] ------- [1:0 0:0 30 0] [91] 0 0
s 5.207172588 _1_ RTR  --- 0 AODV 44 [0 0 0 0] ------- [1:255 -1:255 1 0] [0x1 1 [1 10] 4.000000] (HELLO)
r 5.252000000 _1_ RTR  --- 92 cbr 210 [0 0 0 0] ------- [1:0 0:0 32 0] [92] 0 0
s 5.252000000 _1_ RTR  --- 92 cbr 230 [0 0 0 0] ------- [1:0 0:0 30 0] [92] 0 0
r 5.256409767 _0_ RTR  --- 0 AODV 44 [0 ffffffff 1 0] ------- [1:255 -1:255 1 0] [0x1 1 [1 10] 4.000000] (HELLO)
r 5.256409767 _2_ RTR  --- 0 AODV 44 [0 ffffffff 1 0] ------- [1:255 -1:255 1 0] [0x1 1 [1 10] 4.000000] (HELLO)
r 5.256409792 _3_ RTR  --- 0 AODV 44 [0 ffffffff 1 0] ------- [1:255 -1:255 1 0] [0x1 1 [1 10] 4.000000] (HELLO)
r 5.308000000 _1_ RTR  --- 93 cbr 210 [0 0 0 0] ------- [1:0 0:0 32 0] [93] 0 0
s 5.308000000 _1_ RTR  --- 93 cbr 230 [0 0 0 0] ------- [1:0 0:0 30 0] [93] 0 0
r 5.364000000 _1_ RTR  --- 94 cbr 210 [0 0 0 0] ------- [1:0 0:0 32 0] [94] 0 0
s 5.364000000 _1_ RTR  --- 94 cbr 230 [0 0 0 0] ------- [1:0 0:0 30 0] [94] 0 0
r 5.420000000 _1_ RTR  --- 95 cbr 210 [0 0 0 0] ------- [1:0 0:0 32 0] [95] 0 0
s 5.420000000 _1_ RTR  --- 95 cbr 230 [0 0 0 0] ------- [1:0 0:0 30 0] [95] 0 0
s 5.422145715 _5_ RTR  --- 0 AODV 44 [0 0 0 0] ------- [5:255 -1:255 1 0] [0x1 1 [5 4] 4.000000] (HELLO)
r 5.424409767 _2_ RTR  --- 0 AODV 44 [0 ffffffff 5 0] ------- [5:255 -1:255 1 0] [0x1 1 [5 4] 4.000000] (HELLO)
s 5.432942409 _4_ RTR  --- 0 AODV 44 [0 0 0 0] ------- [4:255 -1:255 1 0] [0x1 1 [4 4] 4.000000] (HELLO)
r 5.466409400 _3_ RTR  --- 0 AODV 44 [0 ffffffff 4 0] ------- [4:255 -1:255 1 0] [0x1 1 [4 4] 4.000000] (HELLO)
r 5.476000000 _1_ RTR  --- 96 cbr 210 [0 0 0 0] ------- [1:0 0:0 32 0] [96] 0 0
s 5.476000000 _1_ RTR  --- 96 cbr 230 [0 0 0 0] ------- [1:0 0:0 30 0] [96] 0 0
r 5.532000000 _1_ RTR  --- 97 cbr 210 [0 0 0 0] ------- [1:0 0:0 32 0] [97] 0 0
s 5.532000000 _1_ RTR  --- 97 cbr 230 [0 0 0 0] ------- [1:0 0:0 30 0] [97] 0 0
s 5.555030276 _2_ RTR  --- 0 AODV 44 [0 0 0 0] ------- [2:255 -1:255 1 0] [0x1 1 [2 6] 4.000000] (HELLO)
r 5.556409767 _1_ RTR  --- 0 AODV 44 [0 ffffffff 2 0] ------- [2:255 -1:255 1 0] [0x1 1 [2 6] 4.000000] (HELLO)
r 5.556409767 _5_ RTR  --- 0 AODV 44 [0 ffffffff 2 0] ------- [2:255 -1:255 1 0] [0x1 1 [2 6] 4.000000] (HELLO)
r 5.588000000 _1_ RTR  --- 98 cbr 210 [0 0 0 0] ------- [1:0 0:0 32 0] [98] 0 0
s 5.588000000 _1_ RTR  --- 98 cbr 230 [0 0 0 0] ------- [1:0 0:0 30 0] [98] 0 0
s 5.631932988 _0_ RTR  --- 0 AODV 44 [0 0 0 0] ------- [0:255 -1:255 1 0] [0x1 1 [0 6] 4.000000] (HELLO)
r 5.634409767 _1_ RTR  --- 0 AODV 44 [0 ffffffff 0 0] ------- [0:255 -1:255 1 0] [0x1 1 [0 6] 4.000000] (HELLO)
r 5.644000000 _1_ RTR  --- 99 cbr 210 [0 0 0 0] ------- [1:0 0:0 32 0] [99] 0 0
s 5.644000000 _1_ RTR  --- 99 cbr 230 [0 0 0 0] ------- [1:0 0:0 30 0] [99] 0 0
r 5.700000000 _1_ RTR  --- 100 cbr 210 [0 0 0 0] ------- [1:0 0:0 32 0] [100] 0 0
s 5.700000000 _1_ RTR  --- 100 cbr 230 [0 0 0 0] ------- [1:0 0:0 30 0] [100] 0 0
r 5.756000000 _1_ RTR  --- 101 cbr 210 [0 0 0 0] ------- [1:0 0:0 32 0] [101] 0 0
s 5.756000000 _1_ RTR  --- 101 cbr 230 [0 0 0 0] ------- [1:0 0:0 30 0] [101] 0 0
r 5.812000000 _1_ RTR  --- 102 cbr 210 [0 0 0 0] ------- [1:0 0:0 32 0] [102] 0 0
s 5.812000000 _1_ RTR  --- 102 cbr 230 [0 0 0 0] ------- [1:0 0:0 30 0] [102] 0 0
r 5.868000000 _1_ RTR  --- 103 cbr 210 [0 0 0 0] ------- [1:0 0:0 32 0] [103] 0 0
s 5.868000000 _1_ RTR  --- 103 cbr 230 [0 0 0 0] ------- [1:0 0:0 30 0] [103] 0 0
s 5.916712896 _3_ RTR  --- 0 AODV 44 [0 0 0 0] ------- [3:255 -1:255 1 0] [0x1 1 [3 6] 4.000000] (HELLO)
r 5.924000000 _1_ RTR  --- 104 cbr 210 [0 0 0 0] ------- [1:0 0:0 32 0] [104] 0 0
s 5.924000000 _1_ RTR  --- 104 cbr 230 [0 0 0 0] ------- [1:0 0:0 30 0] [104] 0 0
r 5.928409400 _4_ RTR  --- 0 AODV 44 [0 ffffffff 3 0] ------- [3:255 -1:255 1 0] [0x1 1 [3 6] 4.000000] (HELLO)
r 5.928409792 _1_ RTR  --- 0 AODV 44 [0 ffffffff 3 0] ------- [3:255 -1:255 1 0] [0x1 1 [3 6] 4.000000] (HELLO)
r 5.980000000 _1_ RTR  --- 105 cbr 210 [0 0 0 0] ------- [1:0 0:0 32 0] [105] 0 0
s 5.980000000 _1_ RTR  --- 105 cbr 230 [0 0 0 0] ------- [1:0 0:0 30 0] [105] 0 0
r 6.036000000 _1_ RTR  --- 106 cbr 210 [0 0 0 0] ------- [1:0 0:0 32 0] [106] 0 0
s 6.036000000 _1_ RTR  --- 106 cbr 230 [0 0 0 0] ------- [1:0 0:0 30 0] [106] 0 0
s 6.050855209 _1_ RTR  --- 0 AODV 44 [0 0 0 0] ------- [1:255 -1:255 1 0] [0x1 1 [1 10] 4.000000] (HELLO)
r 6.092000000 _1_ RTR  --- 107 cbr 210 [0 0 0 0] ------- [1:0 0:0 32 0] [107] 0 0
s 6.092000000 _1_ RTR  --- 107 cbr 230 [0 0 0 0] ------- [1:0 0:0 30 0] [107] 0 0
r 6.096409767 _0_ RTR  --- 0 AODV 44 [0 ffffffff 1 0] ------- [1:255 -1:255 1 0] [0x1 1 [1 10] 4.000000] (HELLO)
r 6.096409767 _2_ RTR  --- 0 AODV 44 [0 ffffffff 1 0] ------- [1:255 -1:255 1 0] [0x1 1 [1 10] 4.000000] (HELLO)
r 6.096409792 _3_ RTR  --- 0 AODV 44 [0 ffffffff 1 0] ------- [1:255 -1:255 1 0] [0x1 1 [1 10] 4.000000] (HELLO)
r 6.148000000 _1_ RTR  --- 108 cbr 210 [0 0 0 0] ------- [1:0 0:0 32 0] [108] 0 0
s 6.148000000 _1_ RTR  --- 108 cbr 230 [0 0 0 0] ------- [1:0 0:0 30 0] [108] 0 0
r 6.204000000 _1_ RTR  --- 109 cbr 210 [0 0 0 0] ------- [1:0 0:0 32 0] [109] 0 0
s 6.204000000 _1_ RTR  --- 109 cbr 230 [0 0 0 0] ------- [1:0 0:0 30 0] [109] 0 0
r 6.260000000 _1_ RTR  --- 110 cbr 210 [0 0 0 0] ------- [1:0 0:0 32 0] [110] 0 0