s 0.000000000 _0_ AGT  --- 0 cbr 210 [0 0 0 0] ------- [0:0 2:0 32 0] [0] 0 0
s 0.000000000 _3_ AGT  --- 1 cbr 210 [0 0 0 0] ------- [3:0 4:0 32 0] [0] 0 0
s 0.005600000 _0_ AGT  --- 2 cbr 210 [0 0 0 0] ------- [0:0 2:0 32 0] [1] 0 0
s 0.005600000 _3_ AGT  --- 3 cbr 210 [0 0 0 0] ------- [3:0 4:0 32 0] [1] 0 0
s 0.011200000 _0_ AGT  --- 4 cbr 210 [0 0 0 0] ------- [0:0 2:0 32 0] [2] 0 0
s 0.011200000 _3_ AGT  --- 5 cbr 210 [0 0 0 0] ------- [3:0 4:0 32 0] [2] 0 0
s 0.016800000 _0_ AGT  --- 6 cbr 210 [0 0 0 0] ------- [0:0 2:0 32 0] [3] 0 0
s 0.016800000 _3_ AGT  --- 7 cbr 210 [0 0 0 0] ------- [3:0 4:0 32 0] [3] 0 0
s 0.022400000 _0_ AGT  --- 8 cbr 210 [0 0 0 0] ------- [0:0 2:0 32 0] [4] 0 0
s 0.022400000 _3_ AGT  --- 9 cbr 210 [0 0 0 0] ------- [3:0 4:0 32 0] [4] 0 0
s 0.028000000 _0_ AGT  --- 10 cbr 210 [0 0 0 0] ------- [0:0 2:0 32 0] [5] 0 0
s 0.028000000 _3_ AGT  --- 11 cbr 210 [0 0 0 0] ------- [3:0 4:0 32 0] [5] 0 0
s 0.033600000 _0_ AGT  --- 12 cbr 210 [0 0 0 0] ------- [0:0 2:0 32 0] [6] 0 0
s 0.033600000 _3_ AGT  --- 13 cbr 210 [0 0 0 0] ------- [3:0 4:0 32 0] [6] 0 0
s 0.039200000 _0_ AGT  --- 14 cbr 210 [0 0 0 0] ------- [0:0 2:0 32 0] [7] 0 0
s 0.039200000 _3_ AGT  --- 15 cbr 210 [0 0 0 0] ------- [3:0 4:0 32 0] [7] 0 0
s 0.044800000 _0_ AGT  --- 16 cbr 210 [0 0 0 0] ------- [0:0 2:0 32 0] [8] 0 0
s 0.044800000 _3_ AGT  --- 17 cbr 210 [0 0 0 0] ------- [3:0 4:0 32 0] [8] 0 0
s 0.050400000 _0_ AGT  --- 18 cbr 210 [0 0 0 0] ------- [0:0 2:0 32 0] [9] 0 0
s 0.050400000 _3_ AGT  --- 19 cbr 210 [0 0 0 0] ------- [3:0 4:0 32 0] [9] 0 0
s 0.056000000 _0_ AGT  --- 20 cbr 210 [0 0 0 0] ------- [0:0 2:0 32 0] [10] 0 0
s 0.056000000 _3_ AGT  --- 21 cbr 210 [0 0 0 0] ------- [3:0 4:0 32 0] [10] 0 0
s 0.061600000 _0_ AGT  --- 22 cbr 210 [0 0 0 0] ------- [0:0 2:0 32 0] [11] 0 0
s 0.061600000 _3_ AGT  --- 23 cbr 210 [0 0 0 0] ------- [3:0 4:0 32 0] [11] 0 0
r 0.067153400 _4_ AGT  --- 1 cbr 230 [5 4 3 0] ------- [3:0 4:0 30 4] [0] 1 0
s 0.067200000 _0_ AGT  --- 24 cbr 210 [0 0 0 0] ------- [0:0 2:0 32 0] [12] 0 0
s 0.067200000 _3_ AGT  --- 25 cbr 210 [0 0 0 0] ------- [3:0 4:0 32 0] [12] 0 0
s 0.072800000 _0_ AGT  --- 26 cbr 210 [0 0 0 0] ------- [0:0 2:0 32 0] [13] 0 0
s 0.072800000 _3_ AGT  --- 27 cbr 210 [0 0 0 0] ------- [3:0 4:0 32 0] [13] 0 0
s 0.078400000 _0_ AGT  --- 28 cbr 210 [0 0 0 0] ------- [0:0 2:0 32 0] [14] 0 0
s 0.078400000 _3_ AGT  --- 29 cbr 210 [0 0 0 0] ------- [3:0 4:0 32 0] [14] 0 0
s 0.084000000 _0_ AGT  --- 30 cbr 210 [0 0 0 0] ------- [0:0 2:0 32 0] [15] 0 0
s 0.084000000 _3_ AGT  --- 31 cbr 210 [0 0 0 0] ------- [3:0 4:0 32 0] [15] 0 0
s 0.089600000 _0_ AGT  --- 32 cbr 210 [0 0 0 0] ------- [0:0 2:0 32 0] [16] 0 0
s 0.089600000 _3_ AGT  --- 33 cbr 210 [0 0 0 0] ------- [3:0 4:0 32 0] [16] 0 0
r 0.091153400 _4_ AGT  --- 19 cbr 230 [5 4 3 0] ------- [3:0 4:0 30 4] [9] 1 0
s 0.095200000 _0_ AGT  --- 34 cbr 210 [0 0 0 0] ------- [0:0 2:0 32 0] [17] 0 0
s 0.095200000 _3_ AGT  --- 35 cbr 210 [0 0 0 0] ------- [3:0 4:0 32 0] [17] 0 0
s 0.100800000 _0_ AGT  --- 36 cbr 210 [0 0 0 0] ------- [0:0 2:0 32 0] [18] 0 0
s 0.100800000 _3_ AGT  --- 37 cbr 210 [0 0 0 0] ------- [3:0 4:0 32 0] [18] 0 0
s 0.106400000 _0_ AGT  --- 38 cbr 210 [0 0 0 0] ------- [0:0 2:0 32 0] [19] 0 0
s 0.106400000 _3_ AGT  --- 39 cbr 210 [0 0 0 0] ------- [3:0 4:0 32 0] [19] 0 0
s 0.112000000 _0_ AGT  --- 40 cbr 210 [0 0 0 0] ------- [0:0 2:0 32 0] [20] 0 0
s 0.112000000 _3_ AGT  --- 41 cbr 210 [0 0 0 0] ------- [3:0 4:0 32 0] [20] 0 0
r 0.115153400 _4_ AGT  --- 21 cbr 230 [5 4 3 0] ------- [3:0 4:0 30 4] [10] 1 0
r 0.115153767 _2_ AGT  --- 0 cbr 230 [5 2 1 0] ------- [0:0 2:0 29 2] [0] 2 0
s 0.117600000 _0_ AGT  --- 42 cbr 210 [0 0 0 0] ------- [0:0 2:0 32 0] [21] 0 0
s 0.117600000 _3_ AGT  --- 43 cbr 210 [0 0 0 0] ------- [3:0 4:0 32 0] [21] 0 0
s 0.123200000 _0_ AGT  --- 44 cbr 210 [0 0 0 0] ------- [0:0 2:0 32 0] [22] 0 0
s 0.123200000 _3_ AGT  --- 45 cbr 210 [0 0 0 0] ------- [3:0 4:0 32 0] [22] 0 0
s 0.128800000 _0_ AGT  --- 46 cbr 210 [0 0 0 0] ------- [0:0 2:0 32 0] [23] 0 0
s 0.128800000 _3_ AGT  --- 47 cbr 210 [0 0 0 0] ------- [3:0 4:0 32 0] [23] 0 0
s 0.134400000 _0_ AGT  --- 48 cbr 210 [0 0 0 0] ------- [0:0 2:0 32 0] [24] 0 0
s 0.134400000 _3_ AGT  --- 49 cbr 210 [0 0 0 0] ------- [3:0 4:0 32 0] [24] 0 0
r 0.139153400 _4_ AGT  --- 3 cbr 230 [5 4 3 0] ------- [3:0 4:0 30 4] [1] 1 0
r 0.139153767 _2_ AGT  --- 34 cbr 230 [5 2 1 0] ------- [0:0 2:0 29 2] [17] 2 0
s 0.140000000 _0_ AGT  --- 50 cbr 210 [0 0 0 0] ------- [0:0 2:0 32 0] [25] 0 0
s 0.140000000 _3_ AGT  --- 51 cbr 210 [0 0 0 0] ------- [3:0 4:0 32 0] [25] 0 0
s 0.145600000 _0_ AGT  --- 52 cbr 210 [0 0 0 0] ------- [0:0 2:0 32 0] [26] 0 0
s 0.145600000 _3_ AGT  --- 53 cbr 210 [0 0 0 0] ------- [3:0 4:0 32 0] [26] 0 0
s 0.151200000 _0_ AGT  --- 54 cbr 210 [0 0 0 0] ------- [0:0 2:0 32 0] [27] 0 0
s 0.151200000 _3_ AGT  --- 55 cbr 210 [0 0 0 0] ------- [3:0 4:0 32 0] [27] 0 0
s 0.156800000 _0_ AGT  --- 56 cbr 210 [0 0 0 0] ------- [0:0 2:0 32 0] [28] 0 0
s 0.156800000 _3_ AGT  --- 57 cbr 210 [0 0 0 0] ------- [3:0 4:0 32 0] [28] 0 0
s 0.162400000 _0_ AGT  --- 58 cbr 210 [0 0 0 0] ------- [0:0 2:0 32 0] [29] 0 0
s 0.162400000 _3_ AGT  --- 59 cbr 210 [0 0 0 0] ------- [3:0 4:0 32 0] [29] 0 0
r 0.163153400 _4_ AGT  --- 23 cbr 230 [5 4 3 0] ------- [3:0 4:0 30 4] [11] 1 0
r 0.163153767 _2_ AGT  --- 2 cbr 230 [5 2 1 0] ------- [0:0 2:0 29 2] [1] 2 0
s 0.168000000 _0_ AGT  --- 60 cbr 210 [0 0 0 0] ------- [0:0 2:0 32 0] [30] 0 0
s 0.168000000 _3_ AGT  --- 61 cbr 210 [0 0 0 0] ------- [3:0 4:0 32 0] [30] 0 0
s 0.173600000 _0_ AGT  --- 62 cbr 210 [0 0 0 0] ------- [0:0 2:0 32 0] [31] 0 0
s 0.173600000 _3_ AGT  --- 63 cbr 210 [0 0 0 0] ------- [3:0 4:0 32 0] [31] 0 0
s 0.179200000 _0_ AGT  --- 64 cbr 210 [0 0 0 0] ------- [0:0 2:0 32 0] [32] 0 0
s 0.179200000 _3_ AGT  --- 65 cbr 210 [0 0 0 0] ------- [3:0 4:0 32 0] [32] 0 0
s 0.184800000 _0_ AGT  --- 66 cbr 210 [0 0 0 0] ------- [0:0 2:0 32 0] [33] 0 0
s 0.184800000 _3_ AGT  --- 67 cbr 210 [0 0 0 0] ------- [3:0 4:0 32 0] [33] 0 0
r 0.187153400 _4_ AGT  --- 25 cbr 230 [5 4 3 0] ------- [3:0 4:0 30 4] [12] 1 0
r 0.187153767 _2_ AGT  --- 36 cbr 230 [5 2 1 0] ------- [0:0 2:0 29 2] [18] 2 0
s 0.190400000 _0_ AGT  --- 68 cbr 210 [0 0 0 0] ------- [0:0 2:0 32 0] [34] 0 0
s 0.190400000 _3_ AGT  --- 69 cbr 210 [0 0 0 0] ------- [3:0 4:0 32 0] [34] 0 0
s 0.196000000 _0_ AGT  --- 70 cbr 210 [0 0 0 0] ------- [0:0 2:0 32 0] [35] 0 0
s 0.196000000 _3_ AGT  --- 71 cbr 210 [0 0 0 0] ------- [3:0 4:0 32 0] [35] 0 0
s 0.201600000 _0_ AGT  --- 72 cbr 210 [0 0 0 0] ------- [0:0 2:0 32 0] [36] 0 0
s 0.201600000 _3_ AGT  --- 73 cbr 210 [0 0 0 0] ------- [3:0 4:0 32 0] [36] 0 0
s 0.207200000 _0_ AGT  --- 74 cbr 210 [0 0 0 0] ------- [0:0 2:0 32 0] [37] 0 0
s 0.207200000 _3_ AGT  --- 75 cbr 210 [0 0 0 0] ------- [3:0 4:0 32 0] [37] 0 0
r 0.211153400 _4_ AGT  --- 5 cbr 230 [5 4 3 0] ------- [3:0 4:0 30 4] [2] 1 0
r 0.211153767 _2_ AGT  --- 38 cbr 230 [5 2 1 0] ------- [0:0 2:0 29 2] [19] 2 0
s 0.212800000 _0_ AGT  --- 76 cbr 210 [0 0 0 0] ------- [0:0 2:0 32 0] [38] 0 0
s 0.212800000 _3_ AGT  --- 77 cbr 210 [0 0 0 0] ------- [3:0 4:0 32 0] [38] 0 0
s 0.218400000 _0_ AGT  --- 78 cbr 210 [0 0 0 0] ------- [0:0 2:0 32 0] [39] 0 0
s 0.218400000 _3_ AGT  --- 79 cbr 210 [0 0 0 0] ------- [3:0 4:0 32 0] [39] 0 0
s 0.224000000 _0_ AGT  --- 80 cbr 210 [0 0 0 0] ------- [0:0 2:0 32 0] [40] 0 0
s 0.224000000 _3_ AGT  --- 81 cbr 210 [0 0 0 0] ------- [3:0 4:0 32 0] [40] 0 0
s 0.229600000 _0_ AGT  --- 82 cbr 210 [0 0 0 0] ------- [0:0 2:0 32 0] [41] 0 0
s 0.229600000 _3_ AGT  --- 83 cbr 210 [0 0 0 0] ------- [3:0 4:0 32 0] [41] 0 0
r 0.235153400 _4_ AGT  --- 27 cbr 230 [5 4 3 0] ------- [3:0 4:0 30 4] [13] 1 0
r 0.235153767 _2_ AGT  --- 4 cbr 230 [5 2 1 0] ------- [0:0 2:0 29 2] [2] 2 0
s 0.235200000 _0_ AGT  --- 84 cbr 210 [0 0 0 0] ------- [0:0 2:0 32 0] [42] 0 0
s 0.235200000 _3_ AGT  --- 85 cbr 210 [0 0 0 0] ------- [3:0 4:0 32 0] [42] 0 0
s 0.240800000 _0_ AGT  --- 86 cbr 210 [0 0 0 0] ------- [0:0 2:0 32 0] [43] 0 0
s 0.240800000 _3_ AGT  --- 87 cbr 210 [0 0 0 0] ------- [3:0 4:0 32 0] [43] 0 0
s 0.246400000 _0_ AGT  --- 88 cbr 210 [0 0 0 0] ------- [0:0 2:0 32 0] [44] 0 0
s 0.246400000 _3_ AGT  --- 89 cbr 210 [0 0 0 0] ------- [3:0 4:0 32 0] [44] 0 0
s 0.252000000 _0_ AGT  --- 90 cbr 210 [0 0 0 0] ------- [0:0 2:0 32 0] [45] 0 0
s 0.252000000 _3_ AGT  --- 91 cbr 210 [0 0 0 0] ------- [3:0 4:0 32 0] [45] 0 0
s 0.257600000 _0_ AGT  --- 92 cbr 210 [0 0 0 0] ------- [0:0 2:0 32 0] [46] 0 0
s 0.257600000 _3_ AGT  --- 93 cbr 210 [0 0 0 0] ------- [3:0 4:0 32 0] [46] 0 0
r 0.259153400 _4_ AGT  --- 29 cbr 230 [5 4 3 0] ------- [3:0 4:0 30 4] [14] 1 0
r 0.259153767 _2_ AGT  --- 40 cbr 230 [5 2 1 0] ------- [0:0 2:0 29 2] [20] 2 0
s 0.263200000 _0_ AGT  --- 94 cbr 210 [0 0 0 0] ------- [0:0 2:0 32 0] [47] 0 0
s 0.263200000 _3_ AGT  --- 95 cbr 210 [0 0 0 0] ------- [3:0 4:0 32 0] [47] 0 0
s 0.268800000 _0_ AGT  --- 96 cbr 210 [0 0 0 0] ------- [0:0 2:0 32 0] [48] 0 0
s 0.268800000 _3_ AGT  --- 97 cbr 210 [0 0 0 0] ------- [3:0 4:0 32 0] [48] 0 0
s 0.274400000 _0_ AGT  --- 98 cbr 210 [0 0 0 0] ------- [0:0 2:0 32 0] [49] 0 0
s 0.274400000 _3_ AGT  --- 99 cbr 210 [0 0 0 0] ------- [3:0 4:0 32 0] [49] 0 0
s 0.280000000 _0_ AGT  --- 100 cbr 210 [0 0 0 0] ------- [0:0 2:0 32 0] [50] 0 0
s 0.280000000 _3_ AGT  --- 101 cbr 210 [0 0 0 0] ------- [3:0 4:0 32 0] [50] 0 0
r 0.283153400 _4_ AGT  --- 7 cbr 230 [5 4 3 0] ------- [3:0 4:0 30 4] [3] 1 0
r 0.283153767 _2_ AGT  --- 42 cbr 230 [5 2 1 0] ------- [0:0 2:0 29 2] [21] 2 0
s 0.285600000 _0_ AGT  --- 102 cbr 210 [0 0 0 0] ------- [0:0 2:0 32 0] [51] 0 0
s 0.285600000 _3_ AGT  --- 103 cbr 210 [0 0 0 0] ------- [3:0 4:0 32 0] [51] 0 0
s 0.291200000 _0_ AGT  --- 104 cbr 210 [0 0 0 0] ------- [0:0 2:0 32 0] [52] 0 0
s 0.291200000 _3_ AGT  --- 105 cbr 210 [0 0 0 0] ------- [3:0 4:0 32 0] [52] 0 0
s 0.296800000 _0_ AGT  --- 106 cbr 210 [0 0 0 0] ------- [0:0 2:0 32 0] [53] 0 0
s 0.296800000 _3_ AGT  --- 107 cbr 210 [0 0 0 0] ------- [3:0 4:0 32 0] [53] 0 0
s 0.302400000 _0_ AGT  --- 108 cbr 210 [0 0 0 0] ------- [0:0 2:0 32 0] [54] 0 0
s 0.302400000 _3_ AGT  --- 109 cbr 210 [0 0 0 0] ------- [3:0 4:0 32 0] [54] 0 0
r 0.307153400 _4_ AGT  --- 31 cbr 230 [5 4 3 0] ------- [3:0 4:0 30 4] [15] 1 0
r 0.307153767 _2_ AGT  --- 6 cbr 230 [5 2 1 0] ------- [0:0 2:0 29 2] [3] 2 0
s 0.308000000 _0_ AGT  --- 110 cbr 210 [0 0 0 0] ------- [0:0 2:0 32 0] [55] 0 0
s 0.308000000 _3_ AGT  --- 111 cbr 210 [0 0 0 0] ------- [3:0 4:0 32 0] [55] 0 0
s 0.313600000 _0_ AGT  --- 112 cbr 210 [0 0 0 0] ------- [0:0 2:0 32 0] [56] 0 0
s 0.313600000 _3_ AGT  --- 113 cbr 210 [0 0 0 0] ------- [3:0 4:0 32 0] [56] 0 0
s 0.319200000 _0_ AGT  --- 114 cbr 210 [0 0 0 0] ------- [0:0 2:0 32 0] [57] 0 0
s 0.319200000 _3_ AGT  --- 115 cbr 210 [0 0 0 0] ------- [3:0 4:0 32 0] [57] 0 0
s 0.324800000 _0_ AGT  --- 116 cbr 210 [0 0 0 0] ------- [0:0 2:0 32 0] [58] 0 0
s 0.324800000 _3_ AGT  --- 117 cbr 210 [0 0 0 0] ------- [3:0 4:0 32 0] [58] 0 0
s 0.330400000 _0_ AGT  --- 118 cbr 210 [0 0 0 0] ------- [0:0 2:0 32 0] [59] 0 0
s 0.330400000 _3_ AGT  --- 119 cbr 210 [0 0 0 0] ------- [3:0 4:0 32 0] [59] 0 0
r 0.331153400 _4_ AGT  --- 9 cbr 230 [5 4 3 0] ------- [3:0 4:0 30 4] [4] 1 0
r 0.331153767 _2_ AGT  --- 44 cbr 230 [5 2 1 0] ------- [0:0 2:0 29 2] [22] 2 0
s 0.336000000 _0_ AGT  --- 120 cbr 210 [0 0 0 0] ------- [0:0 2:0 32 0] [60] 0 0
s 0.336000000 _3_ AGT  --- 121 cbr 210 [0 0 0 0] ------- [3:0 4:0 32 0] [60] 0 0
D 0.336025000 _0_ IFQ  --- 120 cbr 230 [0 1 0 0] ------- [0:0 2:0 30 1] [60] 0 0
s 0.341600000 _0_ AGT  --- 122 cbr 210 [0 0 0 0] ------- [0:0 2:0 32 0] [61] 0 0
s 0.341600000 _3_ AGT  --- 123 cbr 210 [0 0 0 0] ------- [3:0 4:0 32 0] [61] 0 0
D 0.341625000 _0_ IFQ  --- 122 cbr 230 [0 1 0 0] ------- [0:0 2:0 30 1] [61] 0 0
s 0.347200000 _0_ AGT  --- 124 cbr 210 [0 0 0 0] ------- [0:0 2:0 32 0] [62] 0 0
s 0.347200000 _3_ AGT  --- 125 cbr 210 [0 0 0 0] ------- [3:0 4:0 32 0] [62] 0 0
D 0.347225000 _0_ IFQ  --- 124 cbr 230 [0 1 0 0] ------- [0:0 2:0 30 1] [62] 0 0
D 0.347225000 _3_ IFQ  --- 125 cbr 230 [0 4 3 0] ------- [3:0 4:0 30 4] [62] 0 0
s 0.352800000 _0_ AGT  --- 126 cbr 210 [0 0 0 0] ------- [0:0 2:0 32 0] [63] 0 0
s 0.352800000 _3_ AGT  --- 127 cbr 210 [0 0 0 0] ------- [3:0 4:0 32 0] [63] 0 0
D 0.352825000 _3_ IFQ  --- 127 cbr 230 [0 4 3 0] ------- [3:0 4:0 30 4] [63] 0 0
r 0.355153400 _4_ AGT  --- 33 cbr 230 [5 4 3 0] ------- [3:0 4:0 30 4] [16] 1 0
r 0.355153767 _2_ AGT  --- 46 cbr 230 [5 2 1 0] ------- [0:0 2:0 29 2] [23] 2 0
s 0.358400000 _0_ AGT  --- 128 cbr 210 [0 0 0 0] ------- [0:0 2:0 32 0] [64] 0 0
s 0.358400000 _3_ AGT  --- 129 cbr 210 [0 0 0 0] ------- [3:0 4:0 32 0] [64] 0 0
D 0.358425000 _0_ IFQ  --- 128 cbr 230 [0 1 0 0] ------- [0:0 2:0 30 1] [64] 0 0
s 0.364000000 _0_ AGT  --- 130 cbr 210 [0 0 0 0] ------- [0:0 2:0 32 0] [65] 0 0
s 0.364000000 _3_ AGT  --- 131 cbr 210 [0 0 0 0] ------- [3:0 4:0 32 0] [65] 0 0
D 0.364025000 _0_ IFQ  --- 130 cbr 230 [0 1 0 0] ------- [0:0 2:0 30 1] [65] 0 0
D 0.364025000 _3_ IFQ  --- 131 cbr 230 [0 4 3 0] ------- [3:0 4:0 30 4] [65] 0 0
s 0.369600000 _0_ AGT  --- 132 cbr 210 [0 0 0 0] ------- [0:0 2:0 32 0] [66] 0 0
s 0.369600000 _3_ AGT  --- 133 cbr 210 [0 0 0 0] ------- [3:0 4:0 32 0] [66] 0 0
D 0.369625000 _0_ IFQ  --- 132 cbr 230 [0 1 0 0] ------- [0:0 2:0 30 1] [66] 0 0
D 0.369625000 _3_ IFQ  --- 133 cbr 230 [0 4 3 0] ------- [3:0 4:0 30 4] [66] 0 0
s 0.375200000 _0_ AGT  --- 134 cbr 210 [0 0 0 0] ------- [0:0 2:0 32 0] [67] 0 0
s 0.375200000 _3_ AGT  --- 135 cbr 210 [0 0 0 0] ------- [3:0 4:0 32 0] [67] 0 0
D 0.375225000 _3_ IFQ  --- 135 cbr 230 [0 4 3 0] ------- [3:0 4:0 30 4] [67] 0 0
r 0.379153400 _4_ AGT  --- 35 cbr 230 [5 4 3 0] ------- [3:0 4:0 30 4] [17] 1 0
r 0.379153767 _2_ AGT  --- 8 cbr 230 [5 2 1 0] ------- [0:0 2:0 29 2] [4] 2 0
s 0.380800000 _0_ AGT  --- 136 cbr 210 [0 0 0 0] ------- [0:0 2:0 32 0] [68] 0 0
s 0.380800000 _3_ AGT  --- 137 cbr 210 [0 0 0 0] ------- [3:0 4:0 32 0] [68] 0 0
D 0.380825000 _0_ IFQ  --- 136 cbr 230 [0 1 0 0] ------- [0:0 2:0 30 1] [68] 0 0
s 0.386400000 _0_ AGT  --- 138 cbr 210 [0 0 0 0] ------- [0:0 2:0 32 0] [69] 0 0
s 0.386400000 _3_ AGT  --- 139 cbr 210 [0 0 0 0] ------- [3:0 4:0 32 0] [69] 0 0
D 0.386425000 _0_ IFQ  --- 138 cbr 230 [0 1 0 0] ------- [0:0 2:0 30 1] [69] 0 0
D 0.386425000 _3_ IFQ  --- 139 cbr 230 [0 4 3 0] ------- [3:0 4:0 30 4] [69] 0 0
s 0.392000000 _0_ AGT  --- 140 cbr 210 [0 0 0 0] ------- [0:0 2:0 32 0] [70] 0 0
s 0.392000000 _3_ AGT  --- 141 cbr 210 [0 0 0 0] ------- [3:0 4:0 32 0] [70] 0 0
D 0.392025000 _0_ IFQ  --- 140 cbr 230 [0 1 0 0] ------- [0:0 2:0 30 1] [70] 0 0
D 0.392025000 _3_ IFQ  --- 141 cbr 230 [0 4 3 0] ------- [3:0 4:0 30 4] [70] 0 0
s 0.397600000 _0_ AGT  --- 142 cbr 210 [0 0 0 0] ------- [0:0 2:0 32 0] [71] 0 0
s 0.397600000 _3_ AGT  --- 143 cbr 210 [0 0 0 0] ------- [3:0 4:0 32 0] [71] 0 0
D 0.397625000 _3_ IFQ  --- 143 cbr 230 [0 4 3 0] ------- [3:0 4:0 30 4] [71] 0 0
r 0.403153400 _4_ AGT  --- 11 cbr 230 [5 4 3 0] ------- [3:0 4:0 30 4] [5] 1 0
r 0.403153767 _2_ AGT  --- 48 cbr 230 [5 2 1 0] ------- [0:0 2:0 29 2] [24] 2 0
s 0.403200000 _0_ AGT  --- 144 cbr 210 [0 0 0 0] ------- [0:0 2:0 32 0] [72] 0 0
s 0.403200000 _3_ AGT  --- 145 cbr 210 [0 0 0 0] ------- [3:0 4:0 32 0] [72] 0 0
D 0.403225000 _0_ IFQ  --- 144 cbr 230 [0 1 0 0] ------- [0:0 2:0 30 1] [72] 0 0
s 0.408800000 _0_ AGT  --- 146 cbr 210 [0 0 0 0] ------- [0:0 2:0 32 0] [73] 0 0
s 0.408800000 _3_ AGT  --- 147 cbr 210 [0 0 0 0] ------- [3:0 4:0 32 0] [73] 0 0
D 0.408825000 _0_ IFQ  --- 146 cbr 230 [0 1 0 0] ------- [0:0 2:0 30 1] [73] 0 0
D 0.408825000 _3_ IFQ  --- 147 cbr 230 [0 4 3 0] ------- [3:0 4:0 30 4] [73] 0 0
s 0.414400000 _0_ AGT  --- 148 cbr 210 [0 0 0 0] ------- [0:0 2:0 32 0] [74] 0 0
s 0.414400000 _3_ AGT  --- 149 cbr 210 [0 0 0 0] ------- [3:0 4:0 32 0] [74] 0 0
D 0.414425000 _0_ IFQ  --- 148 cbr 230 [0 1 0 0] ------- [0:0 2:0 30 1] [74] 0 0
D 0.414425000 _3_ IFQ  --- 149 cbr 230 [0 4 3 0] ------- [3:0 4:0 30 4] [74] 0 0
s 0.420000000 _0_ AGT  --- 150 cbr 210 [0 0 0 0] ------- [0:0 2:0 32 0] [75] 0 0
s 0.420000000 _3_ AGT  --- 151 cbr 210 [0 0 0 0] ------- [3:0 4:0 32 0] [75] 0 0
D 0.420025000 _0_ IFQ  --- 150 cbr 230 [0 1 0 0] ------- [0:0 2:0 30 1] [75] 0 0
D 0.420025000 _3_ IFQ  --- 151 cbr 230 [0 4 3 0] ------- [3:0 4:0 30 4] [75] 0 0
s 0.425600000 _0_ AGT  --- 152 cbr 210 [0 0 0 0] ------- [0:0 2:0 32 0] [76] 0 0
s 0.425600000 _3_ AGT  --- 153 cbr 210 [0 0 0 0] ------- [3:0 4:0 32 0] [76] 0 0
D 0.425625000 _3_ IFQ  --- 153 cbr 230 [0 4 3 0] ------- [3:0 4:0 30 4] [76] 0 0
r 0.427153400 _4_ AGT  --- 37 cbr 230 [5 4 3 0] ------- [3:0 4:0 30 4] [18] 1 0
r 0.427153767 _2_ AGT  --- 50 cbr 230 [5 2 1 0] ------- [0:0 2:0 29 2] [25] 2 0
s 0.431200000 _0_ AGT  --- 154 cbr 210 [0 0 0 0] ------- [0:0 2:0 32 0] [77] 0 0
s 0.431200000 _3_ AGT  --- 155 cbr 210 [0 0 0 0] ------- [3:0 4:0 32 0] [77] 0 0
D 0.431225000 _0_ IFQ  --- 154 cbr 230 [0 1 0 0] ------- [0:0 2:0 30 1] [77] 0 0
s 0.436800000 _0_ AGT  --- 156 cbr 210 [0 0 0 0] ------- [0:0 2:0 32 0] [78] 0 0
s 0.436800000 _3_ AGT  --- 157 cbr 210 [0 0 0 0] ------- [3:0 4:0 32 0] [78] 0 0
D 0.436825000 _0_ IFQ  --- 156 cbr 230 [0 1 0 0] ------- [0:0 2:0 30 1] [78] 0 0
D 0.436825000 _3_ IFQ  --- 157 cbr 230 [0 4 3 0] ------- [3:0 4:0 30 4] [78] 0 0
s 0.442400000 _0_ AGT  --- 158 cbr 210 [0 0 0 0] ------- [0:0 2:0 32 0] [79] 0 0
s 0.442400000 _3_ AGT  --- 159 cbr 210 [0 0 0 0] ------- [3:0 4:0 32 0] [79] 0 0
D 0.442425000 _0_ IFQ  --- 158 cbr 230 [0 1 0 0] ------- [0:0 2:0 30 1] [79] 0 0
D 0.442425000 _3_ IFQ  --- 159 cbr 230 [0 4 3 0] ------- [3:0 4:0 30 4] [79] 0 0
s 0.448000000 _0_ AGT  --- 160 cbr 210 [0 0 0 0] ------- [0:0 2:0 32 0] [80] 0 0
s 0.448000000 _3_ AGT  --- 161 cbr 210 [0 0 0 0] ------- [3:0 4:0 32 0] [80] 0 0
D 0.448025000 _3_ IFQ  --- 161 cbr 230 [0 4 3 0] ------- [3:0 4:0 30 4] [80] 0 0
r 0.451153400 _4_ AGT  --- 39 cbr 230 [5 4 3 0] ------- [3:0 4:0 30 4] [19] 1 0
r 0.451153767 _2_ AGT  --- 10 cbr 230 [5 2 1 0] ------- [0:0 2:0 29 2] [5] 2 0
s 0.453600000 _0_ AGT  --- 162 cbr 210 [0 0 0 0] ------- [0:0 2:0 32 0] [81] 0 0
s 0.453600000 _3_ AGT  --- 163 cbr 210 [0 0 0 0] ------- [3:0 4:0 32 0] [81] 0 0
D 0.453625000 _0_ IFQ  --- 162 cbr 230 [0 1 0 0] ------- [0:0 2:0 30 1] [81] 0 0
s 0.459200000 _0_ AGT  --- 164 cbr 210 [0 0 0 0] ------- [0:0 2:0 32 0] [82] 0 0
s 0.459200000 _3_ AGT  --- 165 cbr 210 [0 0 0 0] ------- [3:0 4:0 32 0] [82] 0 0
D 0.459225000 _0_ IFQ  --- 164 cbr 230 [0 1 0 0] ------- [0:0 2:0 30 1] [82] 0 0
D 0.459225000 _3_ IFQ  --- 165 cbr 230 [0 4 3 0] ------- [3:0 4:0 30 4] [82] 0 0
s 0.464800000 _0_ AGT  --- 166 cbr 210 [0 0 0 0] ------- [0:0 2:0 32 0] [83] 0 0
s 0.464800000 _3_ AGT  --- 167 cbr 210 [0 0 0 0] ------- [3:0 4:0 32 0] [83] 0 0
D 0.464825000 _0_ IFQ  --- 166 cbr 230 [0 1 0 0] ------- [0:0 2:0 30 1] [83] 0 0
D 0.464825000 _3_ IFQ  --- 167 cbr 230 [0 4 3 0] ------- [3:0 4:0 30 4] [83] 0 0
s 0.470400000 _0_ AGT  --- 168 cbr 210 [0 0 0 0] ------- [0:0 2:0 32 0] [84] 0 0
s 0.470400000 _3_ AGT  --- 169 cbr 210 [0 0 0 0] ------- [3:0 4:0 32 0] [84] 0 0
D 0.470425000 _3_ IFQ  --- 169 cbr 230 [0 4 3 0] ------- [3:0 4:0 30 4] [84] 0 0
r 0.475153400 _4_ AGT  --- 13 cbr 230 [5 4 3 0] ------- [3:0 4:0 30 4] [6] 1 0
r 0.475153767 _2_ AGT  --- 52 cbr 230 [5 2 1 0] ------- [0:0 2:0 29 2] [26] 2 0
s 0.476000000 _0_ AGT  --- 170 cbr 210 [0 0 0 0] ------- [0:0 2:0 32 0] [85] 0 0
s 0.476000000 _3_ AGT  --- 171 cbr 210 [0 0 0 0] ------- [3:0 4:0 32 0] [85] 0 0
D 0.476025000 _0_ IFQ  --- 170 cbr 230 [0 1 0 0] ------- [0:0 2:0 30 1] [85] 0 0
s 0.481600000 _0_ AGT  --- 172 cbr 210 [0 0 0 0] ------- [0:0 2:0 32 0] [86] 0 0
s 0.481600000 _3_ AGT  --- 173 cbr 210 [0 0 0 0] ------- [3:0 4:0 32 0] [86] 0 0
D 0.481625000 _0_ IFQ  --- 172 cbr 230 [0 1 0 0] ------- [0:0 2:0 30 1] [86] 0 0
D 0.481625000 _3_ IFQ  --- 173 cbr 230 [0 4 3 0] ------- [3:0 4:0 30 4] [86] 0 0
s 0.487200000 _0_ AGT  --- 174 cbr 210 [0 0 0 0] ------- [0:0 2:0 32 0] [87] 0 0
s 0.487200000 _3_ AGT  --- 175 cbr 210 [0 0 0 0] ------- [3:0 4:0 32 0] [87] 0 0
D 0.487225000 _0_ IFQ  --- 174 cbr 230 [0 1 0 0] ------- [0:0 2:0 30 1] [87] 0 0
D 0.487225000 _3_ IFQ  --- 175 cbr 230 [0 4 3 0] ------- [3:0 4:0 30 4] [87] 0 0
s 0.492800000 _0_ AGT  --- 176 cbr 210 [0 0 0 0] ------- [0:0 2:0 32 0] [88] 0 0
s 0.492800000 _3_ AGT  --- 177 cbr 210 [0 0 0 0] ------- [3:0 4:0 32 0] [88] 0 0
D 0.492825000 _0_ IFQ  --- 176 cbr 230 [0 1 0 0] ------- [0:0 2:0 30 1] [88] 0 0
D 0.492825000 _3_ IFQ  --- 177 cbr 230 [0 4 3 0] ------- [3:0 4:0 30 4] [88] 0 0
s 0.498400000 _0_ AGT  --- 178 cbr 210 [0 0 0 0] ------- [0:0 2:0 32 0] [89] 0 0
s 0.498400000 _3_ AGT  --- 179 cbr 210 [0 0 0 0] ------- [3:0 4:0 32 0] [89] 0 0
D 0.498425000 _3_ IFQ  --- 179 cbr 230 [0 4 3 0] ------- [3:0 4:0 30 4] [89] 0 0
r 0.499153400 _4_ AGT  --- 41 cbr 230 [5 4 3 0] ------- [3:0 4:0 30 4] [20] 1 0
r 0.499153767 _2_ AGT  --- 12 cbr 230 [5 2 1 0] ------- [0:0 2:0 29 2] [6] 2 0
s 0.504000000 _0_ AGT  --- 180 cbr 210 [0 0 0 0] ------- [0:0 2:0 32 0] [90] 0 0
s 0.504000000 _3_ AGT  --- 181 cbr 210 [0 0 0 0] ------- [3:0 4:0 32 0] [90] 0 0
D 0.504025000 _0_ IFQ  --- 180 cbr 230 [0 1 0 0] ------- [0:0 2:0 30 1] [90] 0 0
s 0.509600000 _0_ AGT  --- 182 cbr 210 [0 0 0 0] ------- [0:0 2:0 32 0] [91] 0 0
s 0.509600000 _3_ AGT  --- 183 cbr 210 [0 0 0 0] ------- [3:0 4:0 32 0] [91] 0 0
D 0.509625000 _0_ IFQ  --- 182 cbr 230 [0 1 0 0] ------- [0:0 2:0 30 1] [91] 0 0
D 0.509625000 _3_ IFQ  --- 183 cbr 230 [0 4 3 0] ------- [3:0 4:0 30 4] [91] 0 0
s 0.515200000 _0_ AGT  --- 184 cbr 210 [0 0 0 0] ------- [0:0 2:0 32 0] [92] 0 0
s 0.515200000 _3_ AGT  --- 185 cbr 210 [0 0 0 0] ------- [3:0 4:0 32 0] [92] 0 0
D 0.515225000 _0_ IFQ  --- 184 cbr 230 [0 1 0 0] ------- [0:0 2:0 30 1] [92] 0 0
D 0.515225000 _3_ IFQ  --- 185 cbr 230 [0 4 3 0] ------- [3:0 4:0 30 4] [92] 0 0
s 0.520800000 _0_ AGT  --- 186 cbr 210 [0 0 0 0] ------- [0:0 2:0 32 0] [93] 0 0
s 0.520800000 _3_ AGT  --- 187 cbr 210 [0 0 0 0] ------- [3:0 4:0 32 0] [93] 0 0
D 0.520825000 _3_ IFQ  --- 187 cbr 230 [0 4 3 0] ------- [3:0 4:0 30 4] [93] 0 0
r 0.523153400 _4_ AGT  --- 43 cbr 230 [5 4 3 0] ------- [3:0 4:0 30 4] [21] 1 0
r 0.523153767 _2_ AGT  --- 54 cbr 230 [5 2 1 0] ------- [0:0 2:0 29 2] [27] 2 0
s 0.526400000 _0_ AGT  --- 188 cbr 210 [0 0 0 0] ------- [0:0 2:0 32 0] [94] 0 0
s 0.526400000 _3_ AGT  --- 189 cbr 210 [0 0 0 0] ------- [3:0 4:0 32 0] [94] 0 0
D 0.526425000 _0_ IFQ  --- 188 cbr 230 [0 1 0 0] ------- [0:0 2:0 30 1] [94] 0 0
s 0.532000000 _0_ AGT  --- 190 cbr 210 [0 0 0 0] ------- [0:0 2:0 32 0] [95] 0 0
s 0.532000000 _3_ AGT  --- 191 cbr 210 [0 0 0 0] ------- [3:0 4:0 32 0] [95] 0 0
D 0.532025000 _0_ IFQ  --- 190 cbr 230 [0 1 0 0] ------- [0:0 2:0 30 1] [95] 0 0
D 0.532025000 _3_ IFQ  --- 191 cbr 230 [0 4 3 0] ------- [3:0 4:0 30 4] [95] 0 0
s 0.537600000 _0_ AGT  --- 192 cbr 210 [0 0 0 0] ------- [0:0 2:0 32 0] [96] 0 0
s 0.537600000 _3_ AGT  --- 193 cbr 210 [0 0 0 0] ------- [3:0 4:0 32 0] [96] 0 0
D 0.537625000 _0_ IFQ  --- 192 cbr 230 [0 1 0 0] ------- [0:0 2:0 30 1] [96] 0 0
D 0.537625000 _3_ IFQ  --- 193 cbr 230 [0 4 3 0] ------- [3:0 4:0 30 4] [96] 0 0
s 0.543200000 _0_ AGT  --- 194 cbr 210 [0 0 0 0] ------- [0:0 2:0 32 0] [97] 0 0
s 0.543200000 _3_ AGT  --- 195 cbr 210 [0 0 0 0] ------- [3:0 4:0 32 0] [97] 0 0
D 0.543225000 _3_ IFQ  --- 195 cbr 230 [0 4 3 0] ------- [3:0 4:0 30 4] [97] 0 0
r 0.547153400 _4_ AGT  --- 15 cbr 230 [5 4 3 0] ------- [3:0 4:0 30 4] [7] 1 0
r 0.547153767 _2_ AGT  --- 56 cbr 230 [5 2 1 0] ------- [0:0 2:0 29 2] [28] 2 0
s 0.548800000 _0_ AGT  --- 196 cbr 210 [0 0 0 0] ------- [0:0 2:0 32 0] [98] 0 0
s 0.548800000 _3_ AGT  --- 197 cbr 210 [0 0 0 0] ------- [3:0 4:0 32 0] [98] 0 0
D 0.548825000 _0_ IFQ  --- 196 cbr 230 [0 1 0 0] ------- [0:0 2:0 30 1] [98] 0 0
s 0.554400000 _0_ AGT  --- 198 cbr 210 [0 0 0 0] ------- [0:0 2:0 32 0] [99] 0 0
s 0.554400000 _3_ AGT  --- 199 cbr 210 [0 0 0 0] ------- [3:0 4:0 32 0] [99] 0 0
D 0.554425000 _0_ IFQ  --- 198 cbr 230 [0 1 0 0] ------- [0:0 2:0 30 1] [99] 0 0
D 0.554425000 _3_ IFQ  --- 199 cbr 230 [0 4 3 0] ------- [3:0 4:0 30 4] [99] 0 0
s 0.560000000 _0_ AGT  --- 200 cbr 210 [0 0 0 0] ------- [0:0 2:0 32 0] [100] 0 0
s 0.560000000 _3_ AGT  --- 201 cbr 210 [0 0 0 0] ------- [3:0 4:0 32 0] [100] 0 0
D 0.560025000 _0_ IFQ  --- 200 cbr 230 [0 1 0 0] ------- [0:0 2:0 30 1] [100] 0 0
D 0.560025000 _3_ IFQ  --- 201 cbr 230 [0 4 3 0] ------- [3:0 4:0 30 4] [100] 0 0
s 0.565600000 _0_ AGT  --- 202 cbr 210 [0 0 0 0] ------- [0:0 2:0 32 0] [101] 0 0
s 0.565600000 _3_ AGT  --- 203 cbr 210 [0 0 0 0] ------- [3:0 4:0 32 0] [101] 0 0
D 0.565625000 _3_ IFQ  --- 203 cbr 230 [0 4 3 0] ------- [3:0 4:0 30 4] [101] 0 0
r 0.571153400 _4_ AGT  --- 45 cbr 230 [5 4 3 0] ------- [3:0 4:0 30 4] [22] 1 0
r 0.571153767 _2_ AGT  --- 14 cbr 230 [5 2 1 0] ------- [0:0 2:0 29 2] [7] 2 0
s 0.571200000 _0_ AGT  --- 204 cbr 210 [0 0 0 0] ------- [0:0 2:0 32 0] [102] 0 0
s 0.571200000 _3_ AGT  --- 205 cbr 210 [0 0 0 0] ------- [3:0 4:0 32 0] [102] 0 0
D 0.571225000 _0_ IFQ  --- 204 cbr 230 [0 1 0 0] ------- [0:0 2:0 30 1] [102] 0 0
s 0.576800000 _0_ AGT  --- 206 cbr 210 [0 0 0 0] ------- [0:0 2:0 32 0] [103] 0 0
s 0.576800000 _3_ AGT  --- 207 cbr 210 [0 0 0 0] ------- [3:0 4:0 32 0] [103] 0 0
D 0.576825000 _0_ IFQ  --- 206 cbr 230 [0 1 0 0] ------- [0:0 2:0 30 1] [103] 0 0
D 0.576825000 _3_ IFQ  --- 207 cbr 230 [0 4 3 0] ------- [3:0 4:0 30 4] [103] 0 0
s 0.582400000 _0_ AGT  --- 208 cbr 210 [0 0 0 0] ------- [0:0 2:0 32 0] [104] 0 0
s 0.582400000 _3_ AGT  --- 209 cbr 210 [0 0 0 0] ------- [3:0 4:0 32 0] [104] 0 0
D 0.582425000 _0_ IFQ  --- 208 cbr 230 [0 1 0 0] ------- [0:0 2:0 30 1] [104] 0 0
D 0.582425000 _3_ IFQ  --- 209 cbr 230 [0 4 3 0] ------- [3:0 4:0 30 4] [104] 0 0
s 0.588000000 _0_ AGT  --- 210 cbr 210 [0 0 0 0] ------- [0:0 2:0 32 0] [105] 0 0
s 0.588000000 _3_ AGT  --- 211 cbr 210 [0 0 0 0] ------- [3:0 4:0 32 0] [105] 0 0
D 0.588025000 _0_ IFQ  --- 210 cbr 230 [0 1 0 0] ------- [0:0 2:0 30 1] [105] 0 0
D 0.588025000 _3_ IFQ  --- 211 cbr 230 [0 4 3 0] ------- [3:0 4:0 30 4] [105] 0 0
s 0.593600000 _0_ AGT  --- 212 cbr 210 [0 0 0 0] ------- [0:0 2:0 32 0] [106] 0 0
s 0.593600000 _3_ AGT  --- 213 cbr 210 [0 0 0 0] ------- [3:0 4:0 32 0] [106] 0 0
D 0.593625000 _3_ IFQ  --- 213 cbr 230 [0 4 3 0] ------- [3:0 4:0 30 4] [106] 0 0
r 0.595153400 _4_ AGT  --- 17 cbr 230 [5 4 3 0] ------- [3:0 4:0 30 4] [8] 1 0
r 0.595153767 _2_ AGT  --- 58 cbr 230 [5 2 1 0] ------- [0:0 2:0 29 2] [29] 2 0
s 0.599200000 _0_ AGT  --- 214 cbr 210 [0 0 0 0] ------- [0:0 2:0 32 0] [107] 0 0
s 0.599200000 _3_ AGT  --- 215 cbr 210 [0 0 0 0] ------- [3:0 4:0 32 0] [107] 0 0
D 0.599225000 _0_ IFQ  --- 214 cbr 230 [0 1 0 0] ------- [0:0 2:0 30 1] [107] 0 0
s 0.604800000 _0_ AGT  --- 216 cbr 210 [0 0 0 0] ------- [0:0 2:0 32 0] [108] 0 0
s 0.604800000 _3_ AGT  --- 217 cbr 210 [0 0 0 0] ------- [3:0 4:0 32 0] [108] 0 0
D 0.604825000 _0_ IFQ  --- 216 cbr 230 [0 1 0 0] ------- [0:0 2:0 30 1] [108] 0 0
D 0.604825000 _3_ IFQ  --- 217 cbr 230 [0 4 3 0] ------- [3:0 4:0 30 4] [108] 0 0
s 0.610400000 _0_ AGT  --- 218 cbr 210 [0 0 0 0] ------- [0:0 2:0 32 0] [109] 0 0
s 0.610400000 _3_ AGT  --- 219 cbr 210 [0 0 0 0] ------- [3:0 4:0 32 0] [109] 0 0
D 0.610425000 _0_ IFQ  --- 218 cbr 230 [0 1 0 0] ------- [0:0 2:0 30 1] [109] 0 0
D 0.610425000 _3_ IFQ  --- 219 cbr 230 [0 4 3 0] ------- [3:0 4:0 30 4] [109] 0 0
s 0.616000000 _0_ AGT  --- 220 cbr 210 [0 0 0 0] ------- [0:0 2:0 32 0] [110] 0 0
s 0.616000000 _3_ AGT  --- 221 cbr 210 [0 0 0 0] ------- [3:0 4:0 32 0] [110] 0 0
D 0.616025000 _3_ IFQ  --- 221 cbr 230 [0 4 3 0] ------- [3:0 4:0 30 4] [110] 0 0
r 0.619153400 _4_ AGT  --- 47 cbr 230 [5 4 3 0] ------- [3:0 4:0 30 4] [23] 1 0
r 0.619153767 _2_ AGT  --- 60 cbr 230 [5 2 1 0] ------- [0:0 2:0 29 2] [30] 2 0
s 0.621600000 _0_ AGT  --- 222 cbr 210 [0 0 0 0] ------- [0:0 2:0 32 0] [111] 0 0
s 0.621600000 _3_ AGT  --- 223 cbr 210 [0 0 0 0] ------- [3:0 4:0 32 0] [111] 0 0
D 0.621625000 _0_ IFQ  --- 222 cbr 230 [0 1 0 0] ------- [0:0 2:0 30 1] [111] 0 0
s 0.627200000 _0_ AGT  --- 224 cbr 210 [0 0 0 0] ------- [0:0 2:0 32 0] [112] 0 0
s 0.627200000 _3_ AGT  --- 225 cbr 210 [0 0 0 0] ------- [3:0 4:0 32 0] [112] 0 0
D 0.627225000 _0_ IFQ  --- 224 cbr 230 [0 1 0 0] ------- [0:0 2:0 30 1] [112] 0 0
D 0.627225000 _3_ IFQ  --- 225 cbr 230 [0 4 3 0] ------- [3:0 4:0 30 4] [112] 0 0
s 0.632800000 _0_ AGT  --- 226 cbr 210 [0 0 0 0] ------- [0:0 2:0 32 0] [113] 0 0
s 0.632800000 _3_ AGT  --- 227 cbr 210 [0 0 0 0] ------- [3:0 4:0 32 0] [113] 0 0
D 0.632825000 _0_ IFQ  --- 226 cbr 230 [0 1 0 0] ------- [0:0 2:0 30 1] [113] 0 0
D 0.632825000 _3_ IFQ  --- 227 cbr 230 [0 4 3 0] ------- [3:0 4:0 30 4] [113] 0 0
s 0.638400000 _0_ AGT  --- 228 cbr 210 [0 0 0 0] ------- [0:0 2:0 32 0] [114] 0 0
s 0.638400000 _3_ AGT  --- 229 cbr 210 [0 0 0 0] ------- [3:0 4:0 32 0] [114] 0 0
D 0.638425000 _3_ IFQ  --- 229 cbr 230 [0 4 3 0] ------- [3:0 4:0 30 4] [114] 0 0
r 0.643153400 _4_ AGT  --- 49 cbr 230 [5 4 3 0] ------- [3:0 4:0 30 4] [24] 1 0
r 0.643153767 _2_ AGT  --- 16 cbr 230 [5 2 1 0] ------- [0:0 2:0 29 2] [8] 2 0
s 0.644000000 _0_ AGT  --- 230 cbr 210 [0 0 0 0] ------- [0:0 2:0 32 0] [115] 0 0
s 0.644000000 _3_ AGT  --- 231 cbr 210 [0 0 0 0] ------- [3:0 4:0 32 0] [115] 0 0
D 0.644025000 _0_ IFQ  --- 230 cbr 230 [0 1 0 0] ------- [0:0 2:0 30 1] [115] 0 0
s 0.649600000 _0_ AGT  --- 232 cbr 210 [0 0 0 0] ------- [0:0 2:0 32 0] [116] 0 0
s 0.649600000 _3_ AGT  --- 233 cbr 210 [0 0 0 0] ------- [3:0 4:0 32 0] [116] 0 0
D 0.649625000 _0_ IFQ  --- 232 cbr 230 [0 1 0 0] ------- [0:0 2:0 30 1] [116] 0 0
D 0.649625000 _3_ IFQ  --- 233 cbr 230 [0 4 3 0] ------- [3:0 4:0 30 4] [116] 0 0
s 0.655200000 _0_ AGT  --- 234 cbr 210 [0 0 0 0] ------- [0:0 2:0 32 0] [117] 0 0
s 0.655200000 _3_ AGT  --- 235 cbr 210 [0 0 0 0] ------- [3:0 4:0 32 0] [117] 0 0
D 0.655225000 _0_ IFQ  --- 234 cbr 230 [0 1 0 0] ------- [0:0 2:0 30 1] [117] 0 0
D 0.655225000 _3_ IFQ  --- 235 cbr 230 [0 4 3 0] ------- [3:0 4:0 30 4] [117] 0 0