s 1.244436391 _21_ AGT  --- 0 cbr 210 [0 0 0 0] ------- [21:3 8:1 32 0] [0] 0 0
s 1.328436391 _21_ AGT  --- 1 cbr 210 [0 0 0 0] ------- [21:3 8:1 32 0] [1] 0 0
s 1.412436391 _21_ AGT  --- 2 cbr 210 [0 0 0 0] ------- [21:3 8:1 32 0] [2] 0 0
s 1.496436391 _21_ AGT  --- 3 cbr 210 [0 0 0 0] ------- [21:3 8:1 32 0] [3] 0 0
s 1.580436391 _21_ AGT  --- 4 cbr 210 [0 0 0 0] ------- [21:3 8:1 32 0] [4] 0 0
s 1.664436391 _21_ AGT  --- 5 cbr 210 [0 0 0 0] ------- [21:3 8:1 32 0] [5] 0 0
s 1.748436391 _21_ AGT  --- 6 cbr 210 [0 0 0 0] ------- [21:3 8:1 32 0] [6] 0 0
s 1.832436391 _21_ AGT  --- 7 cbr 210 [0 0 0 0] ------- [21:3 8:1 32 0] [7] 0 0
s 1.916436391 _21_ AGT  --- 8 cbr 210 [0 0 0 0] ------- [21:3 8:1 32 0] [8] 0 0
r 1.969153667 _8_ AGT  --- 0 cbr 230 [5 8 7 0] ------- [21:3 8:1 26 8] [0] 5 0
s 2.000436391 _21_ AGT  --- 9 cbr 210 [0 0 0 0] ------- [21:3 8:1 32 0] [9] 0 0
r 2.029153667 _8_ AGT  --- 8 cbr 230 [5 8 7 0] ------- [21:3 8:1 26 8] [8] 5 0
s 2.084436391 _21_ AGT  --- 10 cbr 210 [0 0 0 0] ------- [21:3 8:1 32 0] [10] 0 0
r 2.089153667 _8_ AGT  --- 3 cbr 230 [5 8 7 0] ------- [21:3 8:1 26 8] [3] 5 0
r 2.149153667 _8_ AGT  --- 5 cbr 230 [5 8 7 0] ------- [21:3 8:1 26 8] [5] 5 0
s 2.168436391 _21_ AGT  --- 11 cbr 210 [0 0 0 0] ------- [21:3 8:1 32 0] [11] 0 0
r 2.209153667 _8_ AGT  --- 7 cbr 230 [5 8 7 0] ------- [21:3 8:1 26 8] [7] 5 0
s 2.252436391 _21_ AGT  --- 12 cbr 210 [0 0 0 0] ------- [21:3 8:1 32 0] [12] 0 0
r 2.269153667 _8_ AGT  --- 10 cbr 230 [5 8 7 0] ------- [21:3 8:1 26 8] [10] 5 0
r 2.329153667 _8_ AGT  --- 12 cbr 230 [5 8 7 0] ------- [21:3 8:1 26 8] [12] 5 0
s 2.336436391 _21_ AGT  --- 13 cbr 210 [0 0 0 0] ------- [21:3 8:1 32 0] [13] 0 0
r 2.419153667 _8_ AGT  --- 13 cbr 230 [5 8 7 0] ------- [21:3 8:1 26 8] [13] 5 0
s 2.420436391 _21_ AGT  --- 14 cbr 210 [0 0 0 0] ------- [21:3 8:1 32 0] [14] 0 0
s 2.504436391 _21_ AGT  --- 15 cbr 210 [0 0 0 0] ------- [21:3 8:1 32 0] [15] 0 0
r 2.509153667 _8_ AGT  --- 14 cbr 230 [5 8 7 0] ------- [21:3 8:1 26 8] [14] 5 0
r 2.569153667 _8_ AGT  --- 15 cbr 230 [5 8 7 0] ------- [21:3 8:1 26 8] [15] 5 0
s 2.588436391 _21_ AGT  --- 16 cbr 210 [0 0 0 0] ------- [21:3 8:1 32 0] [16] 0 0
r 2.659153667 _8_ AGT  --- 16 cbr 230 [5 8 7 0] ------- [21:3 8:1 26 8] [16] 5 0
s 2.672436391 _21_ AGT  --- 17 cbr 210 [0 0 0 0] ------- [21:3 8:1 32 0] [17] 0 0
r 2.749153667 _8_ AGT  --- 17 cbr 230 [5 8 7 0] ------- [21:3 8:1 26 8] [17] 5 0
s 2.756436391 _21_ AGT  --- 18 cbr 210 [0 0 0 0] ------- [21:3 8:1 32 0] [18] 0 0
r 2.839153667 _8_ AGT  --- 18 cbr 230 [5 8 7 0] ------- [21:3 8:1 26 8] [18] 5 0
s 2.840436391 _21_ AGT  --- 19 cbr 210 [0 0 0 0] ------- [21:3 8:1 32 0] [19] 0 0
s 2.924436391 _21_ AGT  --- 20 cbr 210 [0 0 0 0] ------- [21:3 8:1 32 0] [20] 0 0
r 2.959153667 _8_ AGT  --- 19 cbr 230 [5 8 7 0] ------- [21:3 8:1 26 8] [19] 5 0
s 3.008436391 _21_ AGT  --- 21 cbr 210 [0 0 0 0] ------- [21:3 8:1 32 0] [21] 0 0
r 3.079153667 _8_ AGT  --- 21 cbr 230 [5 8 7 0] ------- [21:3 8:1 26 8] [21] 5 0
s 3.092436391 _21_ AGT  --- 22 cbr 210 [0 0 0 0] ------- [21:3 8:1 32 0] [22] 0 0
r 3.169153667 _8_ AGT  --- 22 cbr 230 [5 8 7 0] ------- [21:3 8:1 26 8] [22] 5 0
s 3.176436391 _21_ AGT  --- 23 cbr 210 [0 0 0 0] ------- [21:3 8:1 32 0] [23] 0 0
r 3.259153667 _8_ AGT  --- 23 cbr 230 [5 8 7 0] ------- [21:3 8:1 26 8] [23] 5 0
s 3.260436391 _21_ AGT  --- 24 cbr 210 [0 0 0 0] ------- [21:3 8:1 32 0] [24] 0 0
s 3.344436391 _21_ AGT  --- 25 cbr 210 [0 0 0 0] ------- [21:3 8:1 32 0] [25] 0 0
r 3.349153667 _8_ AGT  --- 24 cbr 230 [5 8 7 0] ------- [21:3 8:1 26 8] [24] 5 0
r 3.409153667 _8_ AGT  --- 25 cbr 230 [5 8 7 0] ------- [21:3 8:1 26 8] [25] 5 0
s 3.428436391 _21_ AGT  --- 26 cbr 210 [0 0 0 0] ------- [21:3 8:1 32 0] [26] 0 0
r 3.499153667 _8_ AGT  --- 26 cbr 230 [5 8 7 0] ------- [21:3 8:1 26 8] [26] 5 0
s 3.512436391 _21_ AGT  --- 27 cbr 210 [0 0 0 0] ------- [21:3 8:1 32 0] [27] 0 0
r 3.589153667 _8_ AGT  --- 27 cbr 230 [5 8 7 0] ------- [21:3 8:1 26 8] [27] 5 0
s 3.596436391 _21_ AGT  --- 28 cbr 210 [0 0 0 0] ------- [21:3 8:1 32 0] [28] 0 0
r 3.679153667 _8_ AGT  --- 28 cbr 230 [5 8 7 0] ------- [21:3 8:1 26 8] [28] 5 0
s 3.680436391 _21_ AGT  --- 29 cbr 210 [0 0 0 0] ------- [21:3 8:1 32 0] [29] 0 0
s 3.764436391 _21_ AGT  --- 30 cbr 210 [0 0 0 0] ------- [21:3 8:1 32 0] [30] 0 0
r 3.769153667 _8_ AGT  --- 29 cbr 230 [5 8 7 0] ------- [21:3 8:1 26 8] [29] 5 0
r 3.829153667 _8_ AGT  --- 30 cbr 230 [5 8 7 0] ------- [21:3 8:1 26 8] [30] 5 0
s 3.848436391 _21_ AGT  --- 31 cbr 210 [0 0 0 0] ------- [21:3 8:1 32 0] [31] 0 0
r 3.919153667 _8_ AGT  --- 31 cbr 230 [5 8 7 0] ------- [21:3 8:1 26 8] [31] 5 0
s 3.932436391 _21_ AGT  --- 32 cbr 210 [0 0 0 0] ------- [21:3 8:1 32 0] [32] 0 0
r 4.009153667 _8_ AGT  --- 32 cbr 230 [5 8 7 0] ------- [21:3 8:1 26 8] [32] 5 0
s 4.016436391 _21_ AGT  --- 33 cbr 210 [0 0 0 0] ------- [21:3 8:1 32 0] [33] 0 0
r 4.099153667 _8_ AGT  --- 33 cbr 230 [5 8 7 0] ------- [21:3 8:1 26 8] [33] 5 0
s 4.100436391 _21_ AGT  --- 34 cbr 210 [0 0 0 0] ------- [21:3 8:1 32 0] [34] 0 0
s 4.184436391 _21_ AGT  --- 35 cbr 210 [0 0 0 0] ------- [21:3 8:1 32 0] [35] 0 0
r 4.189153667 _8_ AGT  --- 34 cbr 230 [5 8 7 0] ------- [21:3 8:1 26 8] [34] 5 0
r 4.249153667 _8_ AGT  --- 35 cbr 230 [5 8 7 0] ------- [21:3 8:1 26 8] [35] 5 0
s 4.268436391 _21_ AGT  --- 36 cbr 210 [0 0 0 0] ------- [21:3 8:1 32 0] [36] 0 0
r 4.339153667 _8_ AGT  --- 36 cbr 230 [5 8 7 0] ------- [21:3 8:1 26 8] [36] 5 0
s 4.352436391 _21_ AGT  --- 37 cbr 210 [0 0 0 0] ------- [21:3 8:1 32 0] [37] 0 0
r 4.429153667 _8_ AGT  --- 37 cbr 230 [5 8 7 0] ------- [21:3 8:1 26 8] [37] 5 0
s 4.436436391 _21_ AGT  --- 38 cbr 210 [0 0 0 0] ------- [21:3 8:1 32 0] [38] 0 0
r 4.519153667 _8_ AGT  --- 38 cbr 230 [5 8 7 0] ------- [21:3 8:1 26 8] [38] 5 0
s 4.520436391 _21_ AGT  --- 39 cbr 210 [0 0 0 0] ------- [21:3 8:1 32 0] [39] 0 0
s 4.604436391 _21_ AGT  --- 40 cbr 210 [0 0 0 0] ------- [21:3 8:1 32 0] [40] 0 0
r 4.609153667 _8_ AGT  --- 39 cbr 230 [5 8 7 0] ------- [21:3 8:1 26 8] [39] 5 0
r 4.669153667 _8_ AGT  --- 40 cbr 230 [5 8 7 0] ------- [21:3 8:1 26 8] [40] 5 0
s 4.688436391 _21_ AGT  --- 41 cbr 210 [0 0 0 0] ------- [21:3 8:1 32 0] [41] 0 0
r 4.759153667 _8_ AGT  --- 41 cbr 230 [5 8 7 0] ------- [21:3 8:1 26 8] [41] 5 0
s 4.772436391 _21_ AGT  --- 42 cbr 210 [0 0 0 0] ------- [21:3 8:1 32 0] [42] 0 0
r 4.849153667 _8_ AGT  --- 42 cbr 230 [5 8 7 0] ------- [21:3 8:1 26 8] [42] 5 0
s 4.856436391 _21_ AGT  --- 43 cbr 210 [0 0 0 0] ------- [21:3 8:1 32 0] [43] 0 0
r 4.939153667 _8_ AGT  --- 43 cbr 230 [5 8 7 0] ------- [21:3 8:1 26 8] [43] 5 0
s 4.940436391 _21_ AGT  --- 44 cbr 210 [0 0 0 0] ------- [21:3 8:1 32 0] [44] 0 0
s 5.024436391 _21_ AGT  --- 45 cbr 210 [0 0 0 0] ------- [21:3 8:1 32 0] [45] 0 0
r 5.029153667 _8_ AGT  --- 44 cbr 230 [5 8 7 0] ------- [21:3 8:1 26 8] [44] 5 0
r 5.089153667 _8_ AGT  --- 45 cbr 230 [5 8 7 0] ------- [21:3 8:1 26 8] [45] 5 0
s 5.108436391 _21_ AGT  --- 46 cbr 210 [0 0 0 0] ------- [21:3 8:1 32 0] [46] 0 0
r 5.179153667 _8_ AGT  --- 46 cbr 230 [5 8 7 0] ------- [21:3 8:1 26 8] [46] 5 0
s 5.192436391 _21_ AGT  --- 47 cbr 210 [0 0 0 0] ------- [21:3 8:1 32 0] [47] 0 0
r 5.269153667 _8_ AGT  --- 47 cbr 230 [5 8 7 0] ------- [21:3 8:1 26 8] [47] 5 0
s 5.276436391 _21_ AGT  --- 48 cbr 210 [0 0 0 0] ------- [21:3 8:1 32 0] [48] 0 0
r 5.359153667 _8_ AGT  --- 48 cbr 230 [5 8 7 0] ------- [21:3 8:1 26 8] [48] 5 0
s 5.360436391 _21_ AGT  --- 49 cbr 210 [0 0 0 0] ------- [21:3 8:1 32 0] [49] 0 0
s 5.444436391 _21_ AGT  --- 50 cbr 210 [0 0 0 0] ------- [21:3 8:1 32 0] [50] 0 0
r 5.449153667 _8_ AGT  --- 49 cbr 230 [5 8 7 0] ------- [21:3 8:1 26 8] [49] 5 0
r 5.509153667 _8_ AGT  --- 50 cbr 230 [5 8 7 0] ------- [21:3 8:1 26 8] [50] 5 0
s 5.528436391 _21_ AGT  --- 51 cbr 210 [0 0 0 0] ------- [21:3 8:1 32 0] [51] 0 0
r 5.599153667 _8_ AGT  --- 51 cbr 230 [5 8 7 0] ------- [21:3 8:1 26 8] [51] 5 0
s 5.612436391 _21_ AGT  --- 52 cbr 210 [0 0 0 0] ------- [21:3 8:1 32 0] [52] 0 0
s 5.696436391 _21_ AGT  --- 53 cbr 210 [0 0 0 0] ------- [21:3 8:1 32 0] [53] 0 0
r 5.719153667 _8_ AGT  --- 52 cbr 230 [5 8 7 0] ------- [21:3 8:1 26 8] [52] 5 0
r 5.779153667 _8_ AGT  --- 53 cbr 230 [5 8 7 0] ------- [21:3 8:1 26 8] [53] 5 0
s 5.780436391 _21_ AGT  --- 54 cbr 210 [0 0 0 0] ------- [21:3 8:1 32 0] [54] 0 0
s 5.864436391 _21_ AGT  --- 55 cbr 210 [0 0 0 0] ------- [21:3 8:1 32 0] [55] 0 0
r 5.869153667 _8_ AGT  --- 54 cbr 230 [5 8 7 0] ------- [21:3 8:1 26 8] [54] 5 0
s 5.948436391 _21_ AGT  --- 56 cbr 210 [0 0 0 0] ------- [21:3 8:1 32 0] [56] 0 0
r 5.959153667 _8_ AGT  --- 55 cbr 230 [5 8 7 0] ------- [21:3 8:1 26 8] [55] 5 0
r 6.019153667 _8_ AGT  --- 56 cbr 230 [5 8 7 0] ------- [21:3 8:1 26 8] [56] 5 0
s 6.032436391 _21_ AGT  --- 57 cbr 210 [0 0 0 0] ------- [21:3 8:1 32 0] [57] 0 0
r 6.109153667 _8_ AGT  --- 57 cbr 230 [5 8 7 0] ------- [21:3 8:1 26 8] [57] 5 0
s 6.116436391 _21_ AGT  --- 58 cbr 210 [0 0 0 0] ------- [21:3 8:1 32 0] [58] 0 0
r 6.199153667 _8_ AGT  --- 58 cbr 230 [5 8 7 0] ------- [21:3 8:1 26 8] [58] 5 0
s 6.200436391 _21_ AGT  --- 59 cbr 210 [0 0 0 0] ------- [21:3 8:1 32 0] [59] 0 0
s 6.284436391 _21_ AGT  --- 60 cbr 210 [0 0 0 0] ------- [21:3 8:1 32 0] [60] 0 0
r 6.289153667 _8_ AGT  --- 59 cbr 230 [5 8 7 0] ------- [21:3 8:1 26 8] [59] 5 0
r 6.349153667 _8_ AGT  --- 60 cbr 230 [5 8 7 0] ------- [21:3 8:1 26 8] [60] 5 0
s 6.368436391 _21_ AGT  --- 61 cbr 210 [0 0 0 0] ------- [21:3 8:1 32 0] [61] 0 0
r 6.439153667 _8_ AGT  --- 61 cbr 230 [5 8 7 0] ------- [21:3 8:1 26 8] [61] 5 0
s 6.452371835 _15_ AGT  --- 62 cbr 210 [0 0 0 0] ------- [15:0 17:0 32 0] [0] 0 0
s 6.452436391 _21_ AGT  --- 63 cbr 210 [0 0 0 0] ------- [21:3 8:1 32 0] [62] 0 0
r 6.529153667 _8_ AGT  --- 63 cbr 230 [5 8 7 0] ------- [21:3 8:1 26 8] [62] 5 0
s 6.536371835 _15_ AGT  --- 64 cbr 210 [0 0 0 0] ------- [15:0 17:0 32 0] [1] 0 0
s 6.536436391 _21_ AGT  --- 65 cbr 210 [0 0 0 0] ------- [21:3 8:1 32 0] [63] 0 0
r 6.619153667 _8_ AGT  --- 65 cbr 230 [5 8 7 0] ------- [21:3 8:1 26 8] [63] 5 0
s 6.620371835 _15_ AGT  --- 66 cbr 210 [0 0 0 0] ------- [15:0 17:0 32 0] [2] 0 0
s 6.620436391 _21_ AGT  --- 67 cbr 210 [0 0 0 0] ------- [21:3 8:1 32 0] [64] 0 0
s 6.704371835 _15_ AGT  --- 68 cbr 210 [0 0 0 0] ------- [15:0 17:0 32 0] [3] 0 0
s 6.704436391 _21_ AGT  --- 69 cbr 210 [0 0 0 0] ------- [21:3 8:1 32 0] [65] 0 0
r 6.709153667 _8_ AGT  --- 67 cbr 230 [5 8 7 0] ------- [21:3 8:1 26 8] [64] 5 0
r 6.769153667 _8_ AGT  --- 69 cbr 230 [5 8 7 0] ------- [21:3 8:1 26 8] [65] 5 0
s 6.788371835 _15_ AGT  --- 70 cbr 210 [0 0 0 0] ------- [15:0 17:0 32 0] [4] 0 0
s 6.788436391 _21_ AGT  --- 71 cbr 210 [0 0 0 0] ------- [21:3 8:1 32 0] [66] 0 0
s 6.789402993 _3_ AGT  --- 72 cbr 210 [0 0 0 0] ------- [3:2 22:0 32 0] [0] 0 0
r 6.859153667 _8_ AGT  --- 71 cbr 230 [5 8 7 0] ------- [21:3 8:1 26 8] [66] 5 0
s 6.872371835 _15_ AGT  --- 73 cbr 210 [0 0 0 0] ------- [15:0 17:0 32 0] [5] 0 0
s 6.872436391 _21_ AGT  --- 74 cbr 210 [0 0 0 0] ------- [21:3 8:1 32 0] [67] 0 0
s 6.873402993 _3_ AGT  --- 75 cbr 210 [0 0 0 0] ------- [3:2 22:0 32 0] [1] 0 0
r 6.949153667 _8_ AGT  --- 74 cbr 230 [5 8 7 0] ------- [21:3 8:1 26 8] [67] 5 0
s 6.956371835 _15_ AGT  --- 76 cbr 210 [0 0 0 0] ------- [15:0 17:0 32 0] [6] 0 0
s 6.956436391 _21_ AGT  --- 77 cbr 210 [0 0 0 0] ------- [21:3 8:1 32 0] [68] 0 0
s 6.957402993 _3_ AGT  --- 78 cbr 210 [0 0 0 0] ------- [3:2 22:0 32 0] [2] 0 0
r 7.039153667 _8_ AGT  --- 77 cbr 230 [5 8 7 0] ------- [21:3 8:1 26 8] [68] 5 0
s 7.040371835 _15_ AGT  --- 79 cbr 210 [0 0 0 0] ------- [15:0 17:0 32 0] [7] 0 0
s 7.040436391 _21_ AGT  --- 80 cbr 210 [0 0 0 0] ------- [21:3 8:1 32 0] [69] 0 0
s 7.041402993 _3_ AGT  --- 81 cbr 210 [0 0 0 0] ------- [3:2 22:0 32 0] [3] 0 0
s 7.124371835 _15_ AGT  --- 82 cbr 210 [0 0 0 0] ------- [15:0 17:0 32 0] [8] 0 0
s 7.124436391 _21_ AGT  --- 83 cbr 210 [0 0 0 0] ------- [21:3 8:1 32 0] [70] 0 0
s 7.125402993 _3_ AGT  --- 84 cbr 210 [0 0 0 0] ------- [3:2 22:0 32 0] [4] 0 0
r 7.129153667 _8_ AGT  --- 80 cbr 230 [5 8 7 0] ------- [21:3 8:1 26 8] [69] 5 0
r 7.189153667 _8_ AGT  --- 83 cbr 230 [5 8 7 0] ------- [21:3 8:1 26 8] [70] 5 0
s 7.208371835 _15_ AGT  --- 85 cbr 210 [0 0 0 0] ------- [15:0 17:0 32 0] [9] 0 0
s 7.208436391 _21_ AGT  --- 86 cbr 210 [0 0 0 0] ------- [21:3 8:1 32 0] [71] 0 0
s 7.209402993 _3_ AGT  --- 87 cbr 210 [0 0 0 0] ------- [3:2 22:0 32 0] [5] 0 0
r 7.279153667 _8_ AGT  --- 86 cbr 230 [5 8 7 0] ------- [21:3 8:1 26 8] [71] 5 0
s 7.292371835 _15_ AGT  --- 88 cbr 210 [0 0 0 0] ------- [15:0 17:0 32 0] [10] 0 0
s 7.292436391 _21_ AGT  --- 89 cbr 210 [0 0 0 0] ------- [21:3 8:1 32 0] [72] 0 0
s 7.293402993 _3_ AGT  --- 90 cbr 210 [0 0 0 0] ------- [3:2 22:0 32 0] [6] 0 0
s 7.350299464 _9_ AGT  --- 91 cbr 210 [0 0 0 0] ------- [9:1 21:2 32 0] [0] 0 0
r 7.369153667 _8_ AGT  --- 89 cbr 230 [5 8 7 0] ------- [21:3 8:1 26 8] [72] 5 0
s 7.376371835 _15_ AGT  --- 92 cbr 210 [0 0 0 0] ------- [15:0 17:0 32 0] [11] 0 0
s 7.376436391 _21_ AGT  --- 93 cbr 210 [0 0 0 0] ------- [21:3 8:1 32 0] [73] 0 0
s 7.377402993 _3_ AGT  --- 94 cbr 210 [0 0 0 0] ------- [3:2 22:0 32 0] [7] 0 0
s 7.434299464 _9_ AGT  --- 95 cbr 210 [0 0 0 0] ------- [9:1 21:2 32 0] [1] 0 0
r 7.459153667 _8_ AGT  --- 93 cbr 230 [5 8 7 0] ------- [21:3 8:1 26 8] [73] 5 0
s 7.460371835 _15_ AGT  --- 96 cbr 210 [0 0 0 0] ------- [15:0 17:0 32 0] [12] 0 0
s 7.460436391 _21_ AGT  --- 97 cbr 210 [0 0 0 0] ------- [21:3 8:1 32 0] [74] 0 0
s 7.461402993 _3_ AGT  --- 98 cbr 210 [0 0 0 0] ------- [3:2 22:0 32 0] [8] 0 0
s 7.518299464 _9_ AGT  --- 99 cbr 210 [0 0 0 0] ------- [9:1 21:2 32 0] [2] 0 0
s 7.544371835 _15_ AGT  --- 100 cbr 210 [0 0 0 0] ------- [15:0 17:0 32 0] [13] 0 0
s 7.544436391 _21_ AGT  --- 101 cbr 210 [0 0 0 0] ------- [21:3 8:1 32 0] [75] 0 0
s 7.545402993 _3_ AGT  --- 102 cbr 210 [0 0 0 0] ------- [3:2 22:0 32 0] [9] 0 0
r 7.549153667 _8_ AGT  --- 97 cbr 230 [5 8 7 0] ------- [21:3 8:1 26 8] [74] 5 0
s 7.602299464 _9_ AGT  --- 103 cbr 210 [0 0 0 0] ------- [9:1 21:2 32 0] [3] 0 0
r 7.609153667 _8_ AGT  --- 101 cbr 230 [5 8 7 0] ------- [21:3 8:1 26 8] [75] 5 0
s 7.628371835 _15_ AGT  --- 104 cbr 210 [0 0 0 0] ------- [15:0 17:0 32 0] [14] 0 0
s 7.628436391 _21_ AGT  --- 105 cbr 210 [0 0 0 0] ------- [21:3 8:1 32 0] [76] 0 0
s 7.629402993 _3_ AGT  --- 106 cbr 210 [0 0 0 0] ------- [3:2 22:0 32 0] [10] 0 0
s 7.686299464 _9_ AGT  --- 107 cbr 210 [0 0 0 0] ------- [9:1 21:2 32 0] [4] 0 0
r 7.699153667 _8_ AGT  --- 105 cbr 230 [5 8 7 0] ------- [21:3 8:1 26 8] [76] 5 0
s 7.712371835 _15_ AGT  --- 108 cbr 210 [0 0 0 0] ------- [15:0 17:0 32 0] [15] 0 0
s 7.712436391 _21_ AGT  --- 109 cbr 210 [0 0 0 0] ------- [21:3 8:1 32 0] [77] 0 0
s 7.713402993 _3_ AGT  --- 110 cbr 210 [0 0 0 0] ------- [3:2 22:0 32 0] [11] 0 0
s 7.770299464 _9_ AGT  --- 111 cbr 210 [0 0 0 0] ------- [9:1 21:2 32 0] [5] 0 0
s 7.796371835 _15_ AGT  --- 112 cbr 210 [0 0 0 0] ------- [15:0 17:0 32 0] [16] 0 0
s 7.796436391 _21_ AGT  --- 113 cbr 210 [0 0 0 0] ------- [21:3 8:1 32 0] [78] 0 0
s 7.797402993 _3_ AGT  --- 114 cbr 210 [0 0 0 0] ------- [3:2 22:0 32 0] [12] 0 0
r 7.819153667 _8_ AGT  --- 109 cbr 230 [5 8 7 0] ------- [21:3 8:1 26 8] [77] 5 0
s 7.854299464 _9_ AGT  --- 115 cbr 210 [0 0 0 0] ------- [9:1 21:2 32 0] [6] 0 0
r 7.879153667 _8_ AGT  --- 113 cbr 230 [5 8 7 0] ------- [21:3 8:1 26 8] [78] 5 0
s 7.880371835 _15_ AGT  --- 116 cbr 210 [0 0 0 0] ------- [15:0 17:0 32 0] [17] 0 0
s 7.880436391 _21_ AGT  --- 117 cbr 210 [0 0 0 0] ------- [21:3 8:1 32 0] [79] 0 0
s 7.881402993 _3_ AGT  --- 118 cbr 210 [0 0 0 0] ------- [3:2 22:0 32 0] [13] 0 0
s 7.938299464 _9_ AGT  --- 119 cbr 210 [0 0 0 0] ------- [9:1 21:2 32 0] [7] 0 0
s 7.964371835 _15_ AGT  --- 120 cbr 210 [0 0 0 0] ------- [15:0 17:0 32 0] [18] 0 0
s 7.964436391 _21_ AGT  --- 121 cbr 210 [0 0 0 0] ------- [21:3 8:1 32 0] [80] 0 0
s 7.965402993 _3_ AGT  --- 122 cbr 210 [0 0 0 0] ------- [3:2 22:0 32 0] [14] 0 0
r 7.969153667 _8_ AGT  --- 117 cbr 230 [5 8 7 0] ------- [21:3 8:1 26 8] [79] 5 0
s 8.022299464 _9_ AGT  --- 123 cbr 210 [0 0 0 0] ------- [9:1 21:2 32 0] [8] 0 0
r 8.029153667 _8_ AGT  --- 121 cbr 230 [5 8 7 0] ------- [21:3 8:1 26 8] [80] 5 0
s 8.048371835 _15_ AGT  --- 124 cbr 210 [0 0 0 0] ------- [15:0 17:0 32 0] [19] 0 0
s 8.048436391 _21_ AGT  --- 125 cbr 210 [0 0 0 0] ------- [21:3 8:1 32 0] [81] 0 0
s 8.049402993 _3_ AGT  --- 126 cbr 210 [0 0 0 0] ------- [3:2 22:0 32 0] [15] 0 0
s 8.106299464 _9_ AGT  --- 127 cbr 210 [0 0 0 0] ------- [9:1 21:2 32 0] [9] 0 0
r 8.119153667 _8_ AGT  --- 125 cbr 230 [5 8 7 0] ------- [21:3 8:1 26 8] [81] 5 0
s 8.132371835 _15_ AGT  --- 128 cbr 210 [0 0 0 0] ------- [15:0 17:0 32 0] [20] 0 0
s 8.132436391 _21_ AGT  --- 129 cbr 210 [0 0 0 0] ------- [21:3 8:1 32 0] [82] 0 0
s 8.133402993 _3_ AGT  --- 130 cbr 210 [0 0 0 0] ------- [3:2 22:0 32 0] [16] 0 0
s 8.190299464 _9_ AGT  --- 131 cbr 210 [0 0 0 0] ------- [9:1 21:2 32 0] [10] 0 0
r 8.209153667 _8_ AGT  --- 129 cbr 230 [5 8 7 0] ------- [21:3 8:1 26 8] [82] 5 0
s 8.216371835 _15_ AGT  --- 132 cbr 210 [0 0 0 0] ------- [15:0 17:0 32 0] [21] 0 0
s 8.216436391 _21_ AGT  --- 133 cbr 210 [0 0 0 0] ------- [21:3 8:1 32 0] [83] 0 0
s 8.217402993 _3_ AGT  --- 134 cbr 210 [0 0 0 0] ------- [3:2 22:0 32 0] [17] 0 0
s 8.274299464 _9_ AGT  --- 135 cbr 210 [0 0 0 0] ------- [9:1 21:2 32 0] [11] 0 0
r 8.299153667 _8_ AGT  --- 133 cbr 230 [5 8 7 0] ------- [21:3 8:1 26 8] [83] 5 0
s 8.300371835 _15_ AGT  --- 136 cbr 210 [0 0 0 0] ------- [15:0 17:0 32 0] [22] 0 0
s 8.300436391 _21_ AGT  --- 137 cbr 210 [0 0 0 0] ------- [21:3 8:1 32 0] [84] 0 0
s 8.301402993 _3_ AGT  --- 138 cbr 210 [0 0 0 0] ------- [3:2 22:0 32 0] [18] 0 0
s 8.358299464 _9_ AGT  --- 139 cbr 210 [0 0 0 0] ------- [9:1 21:2 32 0] [12] 0 0
s 8.384371835 _15_ AGT  --- 140 cbr 210 [0 0 0 0] ------- [15:0 17:0 32 0] [23] 0 0
s 8.384436391 _21_ AGT  --- 141 cbr 210 [0 0 0 0] ------- [21:3 8:1 32 0] [85] 0 0
s 8.385402993 _3_ AGT  --- 142 cbr 210 [0 0 0 0] ------- [3:2 22:0 32 0] [19] 0 0
r 8.389153667 _8_ AGT  --- 137 cbr 230 [5 8 7 0] ------- [21:3 8:1 26 8] [84] 5 0
s 8.442299464 _9_ AGT  --- 143 cbr 210 [0 0 0 0] ------- [9:1 21:2 32 0] [13] 0 0
r 8.449153667 _8_ AGT  --- 141 cbr 230 [5 8 7 0] ------- [21:3 8:1 26 8] [85] 5 0
s 8.468371835 _15_ AGT  --- 144 cbr 210 [0 0 0 0] ------- [15:0 17:0 32 0] [24] 0 0
s 8.468436391 _21_ AGT  --- 145 cbr 210 [0 0 0 0] ------- [21:3 8:1 32 0] [86] 0 0
s 8.469402993 _3_ AGT  --- 146 cbr 210 [0 0 0 0] ------- [3:2 22:0 32 0] [20] 0 0
s 8.526299464 _9_ AGT  --- 147 cbr 210 [0 0 0 0] ------- [9:1 21:2 32 0] [14] 0 0
r 8.539153667 _8_ AGT  --- 145 cbr 230 [5 8 7 0] ------- [21:3 8:1 26 8] [86] 5 0
s 8.552371835 _15_ AGT  --- 148 cbr 210 [0 0 0 0] ------- [15:0 17:0 32 0] [25] 0 0
s 8.552436391 _21_ AGT  --- 149 cbr 210 [0 0 0 0] ------- [21:3 8:1 32 0] [87] 0 0
s 8.553402993 _3_ AGT  --- 150 cbr 210 [0 0 0 0] ------- [3:2 22:0 32 0] [21] 0 0
s 8.610299464 _9_ AGT  --- 151 cbr 210 [0 0 0 0] ------- [9:1 21:2 32 0] [15] 0 0
r 8.629153667 _8_ AGT  --- 149 cbr 230 [5 8 7 0] ------- [21:3 8:1 26 8] [87] 5 0
s 8.636371835 _15_ AGT  --- 152 cbr 210 [0 0 0 0] ------- [15:0 17:0 32 0] [26] 0 0
s 8.636436391 _21_ AGT  --- 153 cbr 210 [0 0 0 0] ------- [21:3 8:1 32 0] [88] 0 0
s 8.637402993 _3_ AGT  --- 154 cbr 210 [0 0 0 0] ------- [3:2 22:0 32 0] [22] 0 0
s 8.694299464 _9_ AGT  --- 155 cbr 210 [0 0 0 0] ------- [9:1 21:2 32 0] [16] 0 0
r 8.719153667 _8_ AGT  --- 153 cbr 230 [5 8 7 0] ------- [21:3 8:1 26 8] [88] 5 0
s 8.720371835 _15_ AGT  --- 156 cbr 210 [0 0 0 0] ------- [15:0 17:0 32 0] [27] 0 0
s 8.720436391 _21_ AGT  --- 157 cbr 210 [0 0 0 0] ------- [21:3 8:1 32 0] [89] 0 0
s 8.721402993 _3_ AGT  --- 158 cbr 210 [0 0 0 0] ------- [3:2 22:0 32 0] [23] 0 0
s 8.778299464 _9_ AGT  --- 159 cbr 210 [0 0 0 0] ------- [9:1 21:2 32 0] [17] 0 0
s 8.804371835 _15_ AGT  --- 160 cbr 210 [0 0 0 0] ------- [15:0 17:0 32 0] [28] 0 0
s 8.804436391 _21_ AGT  --- 161 cbr 210 [0 0 0 0] ------- [21:3 8:1 32 0] [90] 0 0
s 8.805402993 _3_ AGT  --- 162 cbr 210 [0 0 0 0] ------- [3:2 22:0 32 0] [24] 0 0
r 8.809153667 _8_ AGT  --- 157 cbr 230 [5 8 7 0] ------- [21:3 8:1 26 8] [89] 5 0
s 8.862299464 _9_ AGT  --- 163 cbr 210 [0 0 0 0] ------- [9:1 21:2 32 0] [18] 0 0
r 8.869153667 _8_ AGT  --- 161 cbr 230 [5 8 7 0] ------- [21:3 8:1 26 8] [90] 5 0
s 8.888371835 _15_ AGT  --- 164 cbr 210 [0 0 0 0] ------- [15:0 17:0 32 0] [29] 0 0
s 8.888436391 _21_ AGT  --- 165 cbr 210 [0 0 0 0] ------- [21:3 8:1 32 0] [91] 0 0
s 8.889402993 _3_ AGT  --- 166 cbr 210 [0 0 0 0] ------- [3:2 22:0 32 0] [25] 0 0
s 8.946299464 _9_ AGT  --- 167 cbr 210 [0 0 0 0] ------- [9:1 21:2 32 0] [19] 0 0
r 8.959153667 _8_ AGT  --- 165 cbr 230 [5 8 7 0] ------- [21:3 8:1 26 8] [91] 5 0
s 8.972371835 _15_ AGT  --- 168 cbr 210 [0 0 0 0] ------- [15:0 17:0 32 0] [30] 0 0
s 8.972436391 _21_ AGT  --- 169 cbr 210 [0 0 0 0] ------- [21:3 8:1 32 0] [92] 0 0
s 8.973402993 _3_ AGT  --- 170 cbr 210 [0 0 0 0] ------- [3:2 22:0 32 0] [26] 0 0
s 9.030299464 _9_ AGT  --- 171 cbr 210 [0 0 0 0] ------- [9:1 21:2 32 0] [20] 0 0
r 9.049153667 _8_ AGT  --- 169 cbr 230 [5 8 7 0] ------- [21:3 8:1 26 8] [92] 5 0
s 9.056371835 _15_ AGT  --- 172 cbr 210 [0 0 0 0] ------- [15:0 17:0 32 0] [31] 0 0
s 9.056436391 _21_ AGT  --- 173 cbr 210 [0 0 0 0] ------- [21:3 8:1 32 0] [93] 0 0
s 9.057402993 _3_ AGT  --- 174 cbr 210 [0 0 0 0] ------- [3:2 22:0 32 0] [27] 0 0
s 9.114299464 _9_ AGT  --- 175 cbr 210 [0 0 0 0] ------- [9:1 21:2 32 0] [21] 0 0
r 9.139153667 _8_ AGT  --- 173 cbr 230 [5 8 7 0] ------- [21:3 8:1 26 8] [93] 5 0
s 9.140371835 _15_ AGT  --- 176 cbr 210 [0 0 0 0] ------- [15:0 17:0 32 0] [32] 0 0
s 9.140436391 _21_ AGT  --- 177 cbr 210 [0 0 0 0] ------- [21:3 8:1 32 0] [94] 0 0
s 9.141402993 _3_ AGT  --- 178 cbr 210 [0 0 0 0] ------- [3:2 22:0 32 0] [28] 0 0
s 9.198299464 _9_ AGT  --- 179 cbr 210 [0 0 0 0] ------- [9:1 21:2 32 0] [22] 0 0
s 9.224371835 _15_ AGT  --- 180 cbr 210 [0 0 0 0] ------- [15:0 17:0 32 0] [33] 0 0
s 9.224436391 _21_ AGT  --- 181 cbr 210 [0 0 0 0] ------- [21:3 8:1 32 0] [95] 0 0
s 9.225402993 _3_ AGT  --- 182 cbr 210 [0 0 0 0] ------- [3:2 22:0 32 0] [29] 0 0
r 9.229153667 _8_ AGT  --- 177 cbr 230 [5 8 7 0] ------- [21:3 8:1 26 8] [94] 5 0
s 9.282299464 _9_ AGT  --- 183 cbr 210 [0 0 0 0] ------- [9:1 21:2 32 0] [23] 0 0
r 9.289153667 _8_ AGT  --- 181 cbr 230 [5 8 7 0] ------- [21:3 8:1 26 8] [95] 5 0
s 9.308371835 _15_ AGT  --- 184 cbr 210 [0 0 0 0] ------- [15:0 17:0 32 0] [34] 0 0
s 9.308436391 _21_ AGT  --- 185 cbr 210 [0 0 0 0] ------- [21:3 8:1 32 0] [96] 0 0
s 9.309402993 _3_ AGT  --- 186 cbr 210 [0 0 0 0] ------- [3:2 22:0 32 0] [30] 0 0
s 9.366299464 _9_ AGT  --- 187 cbr 210 [0 0 0 0] ------- [9:1 21:2 32 0] [24] 0 0
r 9.379153667 _8_ AGT  --- 185 cbr 230 [5 8 7 0] ------- [21:3 8:1 26 8] [96] 5 0
s 9.392371835 _15_ AGT  --- 188 cbr 210 [0 0 0 0] ------- [15:0 17:0 32 0] [35] 0 0
s 9.392436391 _21_ AGT  --- 189 cbr 210 [0 0 0 0] ------- [21:3 8:1 32 0] [97] 0 0
s 9.393402993 _3_ AGT  --- 190 cbr 210 [0 0 0 0] ------- [3:2 22:0 32 0] [31] 0 0
s 9.450299464 _9_ AGT  --- 191 cbr 210 [0 0 0 0] ------- [9:1 21:2 32 0] [25] 0 0
r 9.469153667 _8_ AGT  --- 189 cbr 230 [5 8 7 0] ------- [21:3 8:1 26 8] [97] 5 0
s 9.476371835 _15_ AGT  --- 192 cbr 210 [0 0 0 0] ------- [15:0 17:0 32 0] [36] 0 0
s 9.476436391 _21_ AGT  --- 193 cbr 210 [0 0 0 0] ------- [21:3 8:1 32 0] [98] 0 0
s 9.477402993 _3_ AGT  --- 194 cbr 210 [0 0 0 0] ------- [3:2 22:0 32 0] [32] 0 0
s 9.534299464 _9_ AGT  --- 195 cbr 210 [0 0 0 0] ------- [9:1 21:2 32 0] [26] 0 0
r 9.559153667 _8_ AGT  --- 193 cbr 230 [5 8 7 0] ------- [21:3 8:1 26 8] [98] 5 0
s 9.560371835 _15_ AGT  --- 196 cbr 210 [0 0 0 0] ------- [15:0 17:0 32 0] [37] 0 0
s 9.560436391 _21_ AGT  --- 197 cbr 210 [0 0 0 0] ------- [21:3 8:1 32 0] [99] 0 0
s 9.618299464 _9_ AGT  --- 198 cbr 210 [0 0 0 0] ------- [9:1 21:2 32 0] [27] 0 0
s 9.644371835 _15_ AGT  --- 199 cbr 210 [0 0 0 0] ------- [15:0 17:0 32 0] [38] 0 0
s 9.644436391 _21_ AGT  --- 200 cbr 210 [0 0 0 0] ------- [21:3 8:1 32 0] [100] 0 0
r 9.649153667 _8_ AGT  --- 197 cbr 230 [5 8 7 0] ------- [21:3 8:1 26 8] [99] 5 0
s 9.702299464 _9_ AGT  --- 201 cbr 210 [0 0 0 0] ------- [9:1 21:2 32 0] [28] 0 0
r 9.709153667 _8_ AGT  --- 200 cbr 230 [5 8 7 0] ------- [21:3 8:1 26 8] [100] 5 0
s 9.728371835 _15_ AGT  --- 202 cbr 210 [0 0 0 0] ------- [15:0 17:0 32 0] [39] 0 0
s 9.728436391 _21_ AGT  --- 203 cbr 210 [0 0 0 0] ------- [21:3 8:1 32 0] [101] 0 0
s 9.786299464 _9_ AGT  --- 204 cbr 210 [0 0 0 0] ------- [9:1 21:2 32 0] [29] 0 0
r 9.799153667 _8_ AGT  --- 203 cbr 230 [5 8 7 0] ------- [21:3 8:1 26 8] [101] 5 0
s 9.812371835 _15_ AGT  --- 205 cbr 210 [0 0 0 0] ------- [15:0 17:0 32 0] [40] 0 0
s 9.812436391 _21_ AGT  --- 206 cbr 210 [0 0 0 0] ------- [21:3 8:1 32 0] [102] 0 0
s 9.870299464 _9_ AGT  --- 207 cbr 210 [0 0 0 0] ------- [9:1 21:2 32 0] [30] 0 0
r 9.889153667 _8_ AGT  --- 206 cbr 230 [5 8 7 0] ------- [21:3 8:1 26 8] [102] 5 0
s 9.896371835 _15_ AGT  --- 208 cbr 210 [0 0 0 0] ------- [15:0 17:0 32 0] [41] 0 0
s 9.896436391 _21_ AGT  --- 209 cbr 210 [0 0 0 0] ------- [21:3 8:1 32 0] [103] 0 0
s 9.954299464 _9_ AGT  --- 210 cbr 210 [0 0 0 0] ------- [9:1 21:2 32 0] [31] 0 0
r 9.979153667 _8_ AGT  --- 209 cbr 230 [5 8 7 0] ------- [21:3 8:1 26 8] [103] 5 0
s 9.980371835 _15_ AGT  --- 211 cbr 210 [0 0 0 0] ------- [15:0 17:0 32 0] [42] 0 0
s 9.980436391 _21_ AGT  --- 212 cbr 210 [0 0 0 0] ------- [21:3 8:1 32 0] [104] 0 0
s 10.038299464 _9_ AGT  --- 213 cbr 210 [0 0 0 0] ------- [9:1 21:2 32 0] [32] 0 0
s 10.064371835 _15_ AGT  --- 214 cbr 210 [0 0 0 0] ------- [15:0 17:0 32 0] [43] 0 0
s 10.064436391 _21_ AGT  --- 215 cbr 210 [0 0 0 0] ------- [21:3 8:1 32 0] [105] 0 0
r 10.069153667 _8_ AGT  --- 212 cbr 230 [5 8 7 0] ------- [21:3 8:1 26 8] [104] 5 0
s 10.122299464 _9_ AGT  --- 216 cbr 210 [0 0 0 0] ------- [9:1 21:2 32 0] [33] 0 0
s 10.148371835 _15_ AGT  --- 217 cbr 210 [0 0 0 0] ------- [15:0 17:0 32 0] [44] 0 0
s 10.148436391 _21_ AGT  --- 218 cbr 210 [0 0 0 0] ------- [21:3 8:1 32 0] [106] 0 0
r 10.159153667 _8_ AGT  --- 215 cbr 230 [5 8 7 0] ------- [21:3 8:1 26 8] [105] 5 0
s 10.206299464 _9_ AGT  --- 219 cbr 210 [0 0 0 0] ------- [9:1 21:2 32 0] [34] 0 0
r 10.219153667 _8_ AGT  --- 218 cbr 230 [5 8 7 0] ------- [21:3 8:1 26 8] [106] 5 0
s 10.232371835 _15_ AGT  --- 220 cbr 210 [0 0 0 0] ------- [15:0 17:0 32 0] [45] 0 0
s 10.232436391 _21_ AGT  --- 221 cbr 210 [0 0 0 0] ------- [21:3 8:1 32 0] [107] 0 0
s 10.290299464 _9_ AGT  --- 222 cbr 210 [0 0 0 0] ------- [9:1 21:2 32 0] [35] 0 0
r 10.309153667 _8_ AGT  --- 221 cbr 230 [5 8 7 0] ------- [21:3 8:1 26 8] [107] 5 0
s 10.316371835 _15_ AGT  --- 223 cbr 210 [0 0 0 0] ------- [15:0 17:0 32 0] [46] 0 0
s 10.316436391 _21_ AGT  --- 224 cbr 210 [0 0 0 0] ------- [21:3 8:1 32 0] [108] 0 0
s 10.374299464 _9_ AGT  --- 225 cbr 210 [0 0 0 0] ------- [9:1 21:2 32 0] [36] 0 0
r 10.399153667 _8_ AGT  --- 224 cbr 230 [5 8 7 0] ------- [21:3 8:1 26 8] [108] 5 0
s 10.400371835 _15_ AGT  --- 226 cbr 210 [0 0 0 0] ------- [15:0 17:0 32 0] [47] 0 0
s 10.400436391 _21_ AGT  --- 227 cbr 210 [0 0 0 0] ------- [21:3 8:1 32 0] [109] 0 0
s 10.458299464 _9_ AGT  --- 228 cbr 210 [0 0 0 0] ------- [9:1 21:2 32 0] [37] 0 0
s 10.484371835 _15_ AGT  --- 229 cbr 210 [0 0 0 0] ------- [15:0 17:0 32 0] [48] 0 0
s 10.484436391 _21_ AGT  --- 230 cbr 210 [0 0 0 0] ------- [21:3 8:1 32 0] [110] 0 0
r 10.489153667 _8_ AGT  --- 227 cbr 230 [5 8 7 0] ------- [21:3 8:1 26 8] [109] 5 0
s 10.542299464 _9_ AGT  --- 231 cbr 210 [0 0 0 0] ------- [9:1 21:2 32 0] [38] 0 0
r 10.549153667 _8_ AGT  --- 230 cbr 230 [5 8 7 0] ------- [21:3 8:1 26 8] [110] 5 0
s 10.568371835 _15_ AGT  --- 232 cbr 210 [0 0 0 0] ------- [15:0 17:0 32 0] [49] 0 0
s 10.568436391 _21_ AGT  --- 233 cbr 210 [0 0 0 0] ------- [21:3 8:1 32 0] [111] 0 0
s 10.626299464 _9_ AGT  --- 234 cbr 210 [0 0 0 0] ------- [9:1 21:2 32 0] [39] 0 0
r 10.639153667 _8_ AGT  --- 233 cbr 230 [5 8 7 0] ------- [21:3 8:1 26 8] [111] 5 0
s 10.652371835 _15_ AGT  --- 235 cbr 210 [0 0 0 0] ------- [15:0 17:0 32 0] [50] 0 0
s 10.652436391 _21_ AGT  --- 236 cbr 210 [0 0 0 0] ------- [21:3 8:1 32 0] [112] 0 0
s 10.710299464 _9_ AGT  --- 237 cbr 210 [0 0 0 0] ------- [9:1 21:2 32 0] [40] 0 0
r 10.729153667 _8_ AGT  --- 236 cbr 230 [5 8 7 0] ------- [21:3 8:1 26 8] [112] 5 0
s 10.736371835 _15_ AGT  --- 238 cbr 210 [0 0 0 0] ------- [15:0 17:0 32 0] [51] 0 0
s 10.736436391 _21_ AGT  --- 239 cbr 210 [0 0 0 0] ------- [21:3 8:1 32 0] [113] 0 0
s 10.794299464 _9_ AGT  --- 240 cbr 210 [0 0 0 0] ------- [9:1 21:2 32 0] [41] 0 0
r 10.819153667 _8_ AGT  --- 239 cbr 230 [5 8 7 0] ------- [21:3 8:1 26 8] [113] 5 0
s 10.820371835 _15_ AGT  --- 241 cbr 210 [0 0 0 0] ------- [15:0 17:0 32 0] [52] 0 0
s 10.820436391 _21_ AGT  --- 242 cbr 210 [0 0 0 0] ------- [21:3 8:1 32 0] [114] 0 0
s 10.878299464 _9_ AGT  --- 243 cbr 210 [0 0 0 0] ------- [9:1 21:2 32 0] [42] 0 0
s 10.904371835 _15_ AGT  --- 244 cbr 210 [0 0 0 0] ------- [15:0 17:0 32 0] [53] 0 0
s 10.904436391 _21_ AGT  --- 245 cbr 210 [0 0 0 0] ------- [21:3 8:1 32 0] [115] 0 0
r 10.909153667 _8_ AGT  --- 242 cbr 230 [5 8 7 0] ------- [21:3 8:1 26 8] [114] 5 0
s 10.962299464 _9_ AGT  --- 246 cbr 210 [0 0 0 0] ------- [9:1 21:2 32 0] [43] 0 0
r 10.969153667 _8_ AGT  --- 245 cbr 230 [5 8 7 0] ------- [21:3 8:1 26 8] [115] 5 0
s 10.988371835 _15_ AGT  --- 247 cbr 210 [0 0 0 0] ------- [15:0 17:0 32 0] [54] 0 0
s 10.988436391 _21_ AGT  --- 248 cbr 210 [0 0 0 0] ------- [21:3 8:1 32 0] [116] 0 0
s 11.046299464 _9_ AGT  --- 249 cbr 210 [0 0 0 0] ------- [9:1 21:2 32 0] [44] 0 0
r 11.059153667 _8_ AGT  --- 248 cbr 230 [5 8 7 0] ------- [21:3 8:1 26 8] [116] 5 0
s 11.072371835 _15_ AGT  --- 250 cbr 210 [0 0 0 0] ------- [15:0 17:0 32 0] [55] 0 0
s 11.072436391 _21_ AGT  --- 251 cbr 210 [0 0 0 0] ------- [21:3 8:1 32 0] [117] 0 0
s 11.130299464 _9_ AGT  --- 252 cbr 210 [0 0 0 0] ------- [9:1 21:2 32 0] [45] 0 0
r 11.149153667 _8_ AGT  --- 251 cbr 230 [5 8 7 0] ------- [21:3 8:1 26 8] [117] 5 0