n -t * -s 0  -x 200 -y 800 -Z 0 -z 10  -v circle -c black
n -t * -s 1  -x 200 -y 570 -Z 0 -z 10  -v circle -c black
n -t * -s 2  -x 200 -y 340 -Z 0 -z 10  -v circle -c black
n -t * -s 3  -x 200 -y 100 -Z 0 -z 10  -v circle -c black
V -t * -v 1.0a5 -a 0
W -t * -x 1000 -y 1000
A -t * -n 1 -p 0 -o 0x7fffffff -c 30 -a 1
A -t * -h 1 -m 1073741823 -s 0
+ -t 0.012000000 -s 0 -d -1 -p AODV -e 100 -c 2 -a 0 -i 0 -k MAC 
- -t 0.012000000 -s 0 -d -1 -p AODV -e 100 -c 2 -a 0 -i 0 -k MAC
h -t 0.012000000 -s 0 -d -1 -p AODV -e 100 -c 2 -a 0 -i 0 -k MAC
r -t 0.012400767 -s 1 -d -1 -p AODV -e 48 -c 2 -a 0 -i 0 -k MAC
r -t 0.012401533 -s 2 -d -1 -p AODV -e 48 -c 2 -a 0 -i 0 -k MAC
+ -t 0.018000000 -s 1 -d -1 -p AODV -e 100 -c 2 -a 0 -i 0 -k MAC 
- -t 0.018000000 -s 1 -d -1 -p AODV -e 100 -c 2 -a 0 -i 0 -k MAC
h -t 0.018000000 -s 1 -d -1 -p AODV -e 100 -c 2 -a 0 -i 0 -k MAC
r -t 0.018400767 -s 0 -d -1 -p AODV -e 48 -c 2 -a 0 -i 0 -k MAC
r -t 0.018400767 -s 2 -d -1 -p AODV -e 48 -c 2 -a 0 -i 0 -k MAC
r -t 0.018401567 -s 3 -d -1 -p AODV -e 48 -c 2 -a 0 -i 0 -k MAC
+ -t 0.048000000 -s 2 -d -1 -p AODV -e 100 -c 2 -a 0 -i 0 -k MAC 
- -t 0.048000000 -s 2 -d -1 -p AODV -e 100 -c 2 -a 0 -i 0 -k MAC
h -t 0.048000000 -s 2 -d -1 -p AODV -e 100 -c 2 -a 0 -i 0 -k MAC
r -t 0.048400767 -s 1 -d -1 -p AODV -e 48 -c 2 -a 0 -i 0 -k MAC
r -t 0.048400800 -s 3 -d -1 -p AODV -e 48 -c 2 -a 0 -i 0 -k MAC
r -t 0.048401533 -s 0 -d -1 -p AODV -e 48 -c 2 -a 0 -i 0 -k MAC
+ -t 0.060000000 -s 3 -d -1 -p ARP -e 80 -c 2 -a 0 -i 0 -k MAC 
- -t 0.060000000 -s 3 -d -1 -p ARP -e 80 -c 2 -a 0 -i 0 -k MAC
h -t 0.060000000 -s 3 -d -1 -p ARP -e 80 -c 2 -a 0 -i 0 -k MAC
r -t 0.060320800 -s 2 -d -1 -p ARP -e 28 -c 2 -a 0 -i 0 -k MAC
r -t 0.060321567 -s 1 -d -1 -p ARP -e 28 -c 2 -a 0 -i 0 -k MAC
+ -t 0.072000000 -s 2 -d -1 -p ARP -e 80 -c 2 -a 0 -i 0 -k MAC 
- -t 0.072000000 -s 2 -d -1 -p ARP -e 80 -c 2 -a 0 -i 0 -k MAC
h -t 0.072000000 -s 2 -d -1 -p ARP -e 80 -c 2 -a 0 -i 0 -k MAC
d -t 0.072320767 -s 1 -d -1 -p ARP -e 80 -c 2 -a 0 -i 0 -k MAC
r -t 0.072320800 -s 3 -d -1 -p ARP -e 28 -c 2 -a 0 -i 0 -k MAC
d -t 0.072321533 -s 0 -d -1 -p ARP -e 80 -c 2 -a 0 -i 0 -k MAC
+ -t 0.084000000 -s 3 -d 2 -p AODV -e 96 -c 2 -a 0 -i 0 -k MAC 
- -t 0.084000000 -s 3 -d 2 -p AODV -e 96 -c 2 -a 0 -i 0 -k MAC
h -t 0.084000000 -s 3 -d 2 -p AODV -e 96 -c 2 -a 0 -i 0 -k MAC
r -t 0.084384800 -s 2 -d 2 -p AODV -e 44 -c 2 -a 0 -i 0 -k MAC
d -t 0.084385567 -s 1 -d 2 -p AODV -e 96 -c 2 -a 0 -i 0 -k MAC
+ -t 0.096000000 -s 2 -d -1 -p ARP -e 80 -c 2 -a 0 -i 0 -k MAC 
- -t 0.096000000 -s 2 -d -1 -p ARP -e 80 -c 2 -a 0 -i 0 -k MAC
h -t 0.096000000 -s 2 -d -1 -p ARP -e 80 -c 2 -a 0 -i 0 -k MAC
r -t 0.096320767 -s 1 -d -1 -p ARP -e 28 -c 2 -a 0 -i 0 -k MAC
r -t 0.096320800 -s 3 -d -1 -p ARP -e 28 -c 2 -a 0 -i 0 -k MAC
r -t 0.096321533 -s 0 -d -1 -p ARP -e 28 -c 2 -a 0 -i 0 -k MAC
+ -t 0.114000000 -s 1 -d -1 -p ARP -e 80 -c 2 -a 0 -i 0 -k MAC 
- -t 0.114000000 -s 1 -d -1 -p ARP -e 80 -c 2 -a 0 -i 0 -k MAC
h -t 0.114000000 -s 1 -d -1 -p ARP -e 80 -c 2 -a 0 -i 0 -k MAC
d -t 0.114320767 -s 0 -d -1 -p ARP -e 80 -c 2 -a 0 -i 0 -k MAC
r -t 0.114320767 -s 2 -d -1 -p ARP -e 28 -c 2 -a 0 -i 0 -k MAC
d -t 0.114321567 -s 3 -d -1 -p ARP -e 80 -c 2 -a 0 -i 0 -k MAC
+ -t 0.120000000 -s 2 -d 1 -p AODV -e 96 -c 2 -a 0 -i 0 -k MAC 
- -t 0.120000000 -s 2 -d 1 -p AODV -e 96 -c 2 -a 0 -i 0 -k MAC
h -t 0.120000000 -s 2 -d 1 -p AODV -e 96 -c 2 -a 0 -i 0 -k MAC
r -t 0.120384767 -s 1 -d 1 -p AODV -e 44 -c 2 -a 0 -i 0 -k MAC
d -t 0.120384800 -s 3 -d 1 -p AODV -e 96 -c 2 -a 0 -i 0 -k MAC
d -t 0.120385533 -s 0 -d 1 -p AODV -e 96 -c 2 -a 0 -i 0 -k MAC
+ -t 0.138000000 -s 1 -d -1 -p ARP -e 80 -c 2 -a 0 -i 0 -k MAC 
- -t 0.138000000 -s 1 -d -1 -p ARP -e 80 -c 2 -a 0 -i 0 -k MAC
h -t 0.138000000 -s 1 -d -1 -p ARP -e 80 -c 2 -a 0 -i 0 -k MAC
r -t 0.138320767 -s 0 -d -1 -p ARP -e 28 -c 2 -a 0 -i 0 -k MAC
r -t 0.138320767 -s 2 -d -1 -p ARP -e 28 -c 2 -a 0 -i 0 -k MAC
r -t 0.138321567 -s 3 -d -1 -p ARP -e 28 -c 2 -a 0 -i 0 -k MAC
+ -t 0.156000000 -s 0 -d -1 -p ARP -e 80 -c 2 -a 0 -i 0 -k MAC 
- -t 0.156000000 -s 0 -d -1 -p ARP -e 80 -c 2 -a 0 -i 0 -k MAC
h -t 0.156000000 -s 0 -d -1 -p ARP -e 80 -c 2 -a 0 -i 0 -k MAC
r -t 0.156320767 -s 1 -d -1 -p ARP -e 28 -c 2 -a 0 -i 0 -k MAC
d -t 0.156321533 -s 2 -d -1 -p ARP -e 80 -c 2 -a 0 -i 0 -k MAC
+ -t 0.162000000 -s 1 -d 0 -p AODV -e 96 -c 2 -a 0 -i 0 -k MAC 
- -t 0.162000000 -s 1 -d 0 -p AODV -e 96 -c 2 -a 0 -i 0 -k MAC
h -t 0.162000000 -s 1 -d 0 -p AODV -e 96 -c 2 -a 0 -i 0 -k MAC
r -t 0.162384767 -s 0 -d 0 -p AODV -e 44 -c 2 -a 0 -i 0 -k MAC
d -t 0.162384767 -s 2 -d 0 -p AODV -e 96 -c 2 -a 0 -i 0 -k MAC
d -t 0.162385567 -s 3 -d 0 -p AODV -e 96 -c 2 -a 0 -i 0 -k MAC
+ -t 0.180000000 -s 0 -d 1 -p cbr -e 282 -c 2 -a 0 -i 0 -k MAC 
- -t 0.180000000 -s 0 -d 1 -p cbr -e 282 -c 2 -a 0 -i 0 -k MAC
h -t 0.180000000 -s 0 -d 1 -p cbr -e 282 -c 2 -a 0 -i 0 -k MAC
r -t 0.181128767 -s 1 -d 1 -p cbr -e 230 -c 2 -a 0 -i 0 -k MAC
d -t 0.181129533 -s 2 -d 1 -p cbr -e 282 -c 2 -a 0 -i 0 -k MAC
+ -t 0.186000000 -s 1 -d 2 -p cbr -e 282 -c 2 -a 0 -i 0 -k MAC 
- -t 0.186000000 -s 1 -d 2 -p cbr -e 282 -c 2 -a 0 -i 0 -k MAC
h -t 0.186000000 -s 1 -d 2 -p cbr -e 282 -c 2 -a 0 -i 0 -k MAC
d -t 0.187128767 -s 0 -d 2 -p cbr -e 282 -c 2 -a 0 -i 0 -k MAC
r -t 0.187128767 -s 2 -d 2 -p cbr -e 230 -c 2 -a 0 -i 0 -k MAC
d -t 0.187129567 -s 3 -d 2 -p cbr -e 282 -c 2 -a 0 -i 0 -k MAC
+ -t 0.192000000 -s 2 -d 3 -p cbr -e 282 -c 2 -a 0 -i 0 -k MAC 
- -t 0.192000000 -s 2 -d 3 -p cbr -e 282 -c 2 -a 0 -i 0 -k MAC
h -t 0.192000000 -s 2 -d 3 -p cbr -e 282 -c 2 -a 0 -i 0 -k MAC
d -t 0.193128767 -s 1 -d 3 -p cbr -e 282 -c 2 -a 0 -i 0 -k MAC
r -t 0.193128800 -s 3 -d 3 -p cbr -e 230 -c 2 -a 0 -i 0 -k MAC
d -t 0.193129533 -s 0 -d 3 -p cbr -e 282 -c 2 -a 0 -i 0 -k MAC
+ -t 0.204000000 -s 0 -d 1 -p cbr -e 282 -c 2 -a 0 -i 3 -k MAC 
- -t 0.204000000 -s 0 -d 1 -p cbr -e 282 -c 2 -a 0 -i 3 -k MAC
h -t 0.204000000 -s 0 -d 1 -p cbr -e 282 -c 2 -a 0 -i 3 -k MAC
r -t 0.205128767 -s 1 -d 1 -p cbr -e 230 -c 2 -a 0 -i 3 -k MAC
d -t 0.205129533 -s 2 -d 1 -p cbr -e 282 -c 2 -a 0 -i 3 -k MAC
+ -t 0.210000000 -s 1 -d 2 -p cbr -e 282 -c 2 -a 0 -i 3 -k MAC 
- -t 0.210000000 -s 1 -d 2 -p cbr -e 282 -c 2 -a 0 -i 3 -k MAC
h -t 0.210000000 -s 1 -d 2 -p cbr -e 282 -c 2 -a 0 -i 3 -k MAC
d -t 0.211128767 -s 0 -d 2 -p cbr -e 282 -c 2 -a 0 -i 3 -k MAC
r -t 0.211128767 -s 2 -d 2 -p cbr -e 230 -c 2 -a 0 -i 3 -k MAC
d -t 0.211129567 -s 3 -d 2 -p cbr -e 282 -c 2 -a 0 -i 3 -k MAC
+ -t 0.216000000 -s 2 -d 3 -p cbr -e 282 -c 2 -a 0 -i 3 -k MAC 
- -t 0.216000000 -s 2 -d 3 -p cbr -e 282 -c 2 -a 0 -i 3 -k MAC
h -t 0.216000000 -s 2 -d 3 -p cbr -e 282 -c 2 -a 0 -i 3 -k MAC
d -t 0.217128767 -s 1 -d 3 -p cbr -e 282 -c 2 -a 0 -i 3 -k MAC
r -t 0.217128800 -s 3 -d 3 -p cbr -e 230 -c 2 -a 0 -i 3 -k MAC
d -t 0.217129533 -s 0 -d 3 -p cbr -e 282 -c 2 -a 0 -i 3 -k MAC
+ -t 0.228000000 -s 0 -d 1 -p cbr -e 282 -c 2 -a 0 -i 1 -k MAC 
- -t 0.228000000 -s 0 -d 1 -p cbr -e 282 -c 2 -a 0 -i 1 -k MAC
h -t 0.228000000 -s 0 -d 1 -p cbr -e 282 -c 2 -a 0 -i 1 -k MAC
r -t 0.229128767 -s 1 -d 1 -p cbr -e 230 -c 2 -a 0 -i 1 -k MAC
d -t 0.229129533 -s 2 -d 1 -p cbr -e 282 -c 2 -a 0 -i 1 -k MAC
+ -t 0.234000000 -s 1 -d 2 -p cbr -e 282 -c 2 -a 0 -i 1 -k MAC 
- -t 0.234000000 -s 1 -d 2 -p cbr -e 282 -c 2 -a 0 -i 1 -k MAC
h -t 0.234000000 -s 1 -d 2 -p cbr -e 282 -c 2 -a 0 -i 1 -k MAC
d -t 0.235128767 -s 0 -d 2 -p cbr -e 282 -c 2 -a 0 -i 1 -k MAC
r -t 0.235128767 -s 2 -d 2 -p cbr -e 230 -c 2 -a 0 -i 1 -k MAC
d -t 0.235129567 -s 3 -d 2 -p cbr -e 282 -c 2 -a 0 -i 1 -k MAC
+ -t 0.240000000 -s 2 -d 3 -p cbr -e 282 -c 2 -a 0 -i 1 -k MAC 
- -t 0.240000000 -s 2 -d 3 -p cbr -e 282 -c 2 -a 0 -i 1 -k MAC
h -t 0.240000000 -s 2 -d 3 -p cbr -e 282 -c 2 -a 0 -i 1 -k MAC
d -t 0.241128767 -s 1 -d 3 -p cbr -e 282 -c 2 -a 0 -i 1 -k MAC
r -t 0.241128800 -s 3 -d 3 -p cbr -e 230 -c 2 -a 0 -i 1 -k MAC
d -t 0.241129533 -s 0 -d 3 -p cbr -e 282 -c 2 -a 0 -i 1 -k MAC
+ -t 0.252000000 -s 0 -d 1 -p cbr -e 282 -c 2 -a 0 -i 2 -k MAC 
- -t 0.252000000 -s 0 -d 1 -p cbr -e 282 -c 2 -a 0 -i 2 -k MAC
h -t 0.252000000 -s 0 -d 1 -p cbr -e 282 -c 2 -a 0 -i 2 -k MAC
r -t 0.253128767 -s 1 -d 1 -p cbr -e 230 -c 2 -a 0 -i 2 -k MAC
d -t 0.253129533 -s 2 -d 1 -p cbr -e 282 -c 2 -a 0 -i 2 -k MAC
+ -t 0.258000000 -s 1 -d 2 -p cbr -e 282 -c 2 -a 0 -i 2 -k MAC 
- -t 0.258000000 -s 1 -d 2 -p cbr -e 282 -c 2 -a 0 -i 2 -k MAC
h -t 0.258000000 -s 1 -d 2 -p cbr -e 282 -c 2 -a 0 -i 2 -k MAC
d -t 0.259128767 -s 0 -d 2 -p cbr -e 282 -c 2 -a 0 -i 2 -k MAC
r -t 0.259128767 -s 2 -d 2 -p cbr -e 230 -c 2 -a 0 -i 2 -k MAC
d -t 0.259129567 -s 3 -d 2 -p cbr -e 282 -c 2 -a 0 -i 2 -k MAC
+ -t 0.264000000 -s 2 -d 3 -p cbr -e 282 -c 2 -a 0 -i 2 -k MAC 
- -t 0.264000000 -s 2 -d 3 -p cbr -e 282 -c 2 -a 0 -i 2 -k MAC
h -t 0.264000000 -s 2 -d 3 -p cbr -e 282 -c 2 -a 0 -i 2 -k MAC
d -t 0.265128767 -s 1 -d 3 -p cbr -e 282 -c 2 -a 0 -i 2 -k MAC
r -t 0.265128800 -s 3 -d 3 -p cbr -e 230 -c 2 -a 0 -i 2 -k MAC
d -t 0.265129533 -s 0 -d 3 -p cbr -e 282 -c 2 -a 0 -i 2 -k MAC
+ -t 0.276000000 -s 0 -d 1 -p cbr -e 282 -c 2 -a 0 -i 4 -k MAC 
- -t 0.276000000 -s 0 -d 1 -p cbr -e 282 -c 2 -a 0 -i 4 -k MAC
h -t 0.276000000 -s 0 -d 1 -p cbr -e 282 -c 2 -a 0 -i 4 -k MAC
r -t 0.277128767 -s 1 -d 1 -p cbr -e 230 -c 2 -a 0 -i 4 -k MAC
d -t 0.277129533 -s 2 -d 1 -p cbr -e 282 -c 2 -a 0 -i 4 -k MAC
+ -t 0.282000000 -s 1 -d 2 -p cbr -e 282 -c 2 -a 0 -i 4 -k MAC 
- -t 0.282000000 -s 1 -d 2 -p cbr -e 282 -c 2 -a 0 -i 4 -k MAC
h -t 0.282000000 -s 1 -d 2 -p cbr -e 282 -c 2 -a 0 -i 4 -k MAC
d -t 0.283128767 -s 0 -d 2 -p cbr -e 282 -c 2 -a 0 -i 4 -k MAC
r -t 0.283128767 -s 2 -d 2 -p cbr -e 230 -c 2 -a 0 -i 4 -k MAC
d -t 0.283129567 -s 3 -d 2 -p cbr -e 282 -c 2 -a 0 -i 4 -k MAC
+ -t 0.288000000 -s 2 -d 3 -p cbr -e 282 -c 2 -a 0 -i 4 -k MAC 
- -t 0.288000000 -s 2 -d 3 -p cbr -e 282 -c 2 -a 0 -i 4 -k MAC
h -t 0.288000000 -s 2 -d 3 -p cbr -e 282 -c 2 -a 0 -i 4 -k MAC
d -t 0.289128767 -s 1 -d 3 -p cbr -e 282 -c 2 -a 0 -i 4 -k MAC
r -t 0.289128800 -s 3 -d 3 -p cbr -e 230 -c 2 -a 0 -i 4 -k MAC
d -t 0.289129533 -s 0 -d 3 -p cbr -e 282 -c 2 -a 0 -i 4 -k MAC
+ -t 0.300000000 -s 0 -d 1 -p cbr -e 282 -c 2 -a 0 -i 5 -k MAC 
- -t 0.300000000 -s 0 -d 1 -p cbr -e 282 -c 2 -a 0 -i 5 -k MAC
h -t 0.300000000 -s 0 -d 1 -p cbr -e 282 -c 2 -a 0 -i 5 -k MAC
r -t 0.301128767 -s 1 -d 1 -p cbr -e 230 -c 2 -a 0 -i 5 -k MAC
d -t 0.301129533 -s 2 -d 1 -p cbr -e 282 -c 2 -a 0 -i 5 -k MAC
+ -t 0.306000000 -s 1 -d 2 -p cbr -e 282 -c 2 -a 0 -i 5 -k MAC 
- -t 0.306000000 -s 1 -d 2 -p cbr -e 282 -c 2 -a 0 -i 5 -k MAC
h -t 0.306000000 -s 1 -d 2 -p cbr -e 282 -c 2 -a 0 -i 5 -k MAC
d -t 0.307128767 -s 0 -d 2 -p cbr -e 282 -c 2 -a 0 -i 5 -k MAC
r -t 0.307128767 -s 2 -d 2 -p cbr -e 230 -c 2 -a 0 -i 5 -k MAC
d -t 0.307129567 -s 3 -d 2 -p cbr -e 282 -c 2 -a 0 -i 5 -k MAC
+ -t 0.312000000 -s 2 -d 3 -p cbr -e 282 -c 2 -a 0 -i 5 -k MAC 
- -t 0.312000000 -s 2 -d 3 -p cbr -e 282 -c 2 -a 0 -i 5 -k MAC
h -t 0.312000000 -s 2 -d 3 -p cbr -e 282 -c 2 -a 0 -i 5 -k MAC
d -t 0.313128767 -s 1 -d 3 -p cbr -e 282 -c 2 -a 0 -i 5 -k MAC
r -t 0.313128800 -s 3 -d 3 -p cbr -e 230 -c 2 -a 0 -i 5 -k MAC
d -t 0.313129533 -s 0 -d 3 -p cbr -e 282 -c 2 -a 0 -i 5 -k MAC
+ -t 0.348000000 -s 0 -d 1 -p cbr -e 282 -c 2 -a 0 -i 6 -k MAC 
- -t 0.348000000 -s 0 -d 1 -p cbr -e 282 -c 2 -a 0 -i 6 -k MAC
h -t 0.348000000 -s 0 -d 1 -p cbr -e 282 -c 2 -a 0 -i 6 -k MAC
r -t 0.349128767 -s 1 -d 1 -p cbr -e 230 -c 2 -a 0 -i 6 -k MAC
d -t 0.349129533 -s 2 -d 1 -p cbr -e 282 -c 2 -a 0 -i 6 -k MAC
+ -t 0.354000000 -s 1 -d 2 -p cbr -e 282 -c 2 -a 0 -i 6 -k MAC 
- -t 0.354000000 -s 1 -d 2 -p cbr -e 282 -c 2 -a 0 -i 6 -k MAC
h -t 0.354000000 -s 1 -d 2 -p cbr -e 282 -c 2 -a 0 -i 6 -k MAC
d -t 0.355128767 -s 0 -d 2 -p cbr -e 282 -c 2 -a 0 -i 6 -k MAC
r -t 0.355128767 -s 2 -d 2 -p cbr -e 230 -c 2 -a 0 -i 6 -k MAC
d -t 0.355129567 -s 3 -d 2 -p cbr -e 282 -c 2 -a 0 -i 6 -k MAC
+ -t 0.360000000 -s 2 -d 3 -p cbr -e 282 -c 2 -a 0 -i 6 -k MAC 
- -t 0.360000000 -s 2 -d 3 -p cbr -e 282 -c 2 -a 0 -i 6 -k MAC
h -t 0.360000000 -s 2 -d 3 -p cbr -e 282 -c 2 -a 0 -i 6 -k MAC
d -t 0.361128767 -s 1 -d 3 -p cbr -e 282 -c 2 -a 0 -i 6 -k MAC
r -t 0.361128800 -s 3 -d 3 -p cbr -e 230 -c 2 -a 0 -i 6 -k MAC
d -t 0.361129533 -s 0 -d 3 -p cbr -e 282 -c 2 -a 0 -i 6 -k MAC
+ -t 0.396000000 -s 0 -d 1 -p cbr -e 282 -c 2 -a 0 -i 7 -k MAC 
- -t 0.396000000 -s 0 -d 1 -p cbr -e 282 -c 2 -a 0 -i 7 -k MAC
h -t 0.396000000 -s 0 -d 1 -p cbr -e 282 -c 2 -a 0 -i 7 -k MAC
r -t 0.397128767 -s 1 -d 1 -p cbr -e 230 -c 2 -a 0 -i 7 -k MAC
d -t 0.397129533 -s 2 -d 1 -p cbr -e 282 -c 2 -a 0 -i 7 -k MAC
+ -t 0.402000000 -s 1 -d 2 -p cbr -e 282 -c 2 -a 0 -i 7 -k MAC 
- -t 0.402000000 -s 1 -d 2 -p cbr -e 282 -c 2 -a 0 -i 7 -k MAC
h -t 0.402000000 -s 1 -d 2 -p cbr -e 282 -c 2 -a 0 -i 7 -k MAC
d -t 0.403128767 -s 0 -d 2 -p cbr -e 282 -c 2 -a 0 -i 7 -k MAC
r -t 0.403128767 -s 2 -d 2 -p cbr -e 230 -c 2 -a 0 -i 7 -k MAC
d -t 0.403129567 -s 3 -d 2 -p cbr -e 282 -c 2 -a 0 -i 7 -k MAC
+ -t 0.408000000 -s 2 -d 3 -p cbr -e 282 -c 2 -a 0 -i 7 -k MAC 
- -t 0.408000000 -s 2 -d 3 -p cbr -e 282 -c 2 -a 0 -i 7 -k MAC
h -t 0.408000000 -s 2 -d 3 -p cbr -e 282 -c 2 -a 0 -i 7 -k MAC
d -t 0.409128767 -s 1 -d 3 -p cbr -e 282 -c 2 -a 0 -i 7 -k MAC
r -t 0.409128800 -s 3 -d 3 -p cbr -e 230 -c 2 -a 0 -i 7 -k MAC
d -t 0.409129533 -s 0 -d 3 -p cbr -e 282 -c 2 -a 0 -i 7 -k MAC
+ -t 0.468000000 -s 0 -d 1 -p cbr -e 282 -c 2 -a 0 -i 8 -k MAC 
- -t 0.468000000 -s 0 -d 1 -p cbr -e 282 -c 2 -a 0 -i 8 -k MAC
h -t 0.468000000 -s 0 -d 1 -p cbr -e 282 -c 2 -a 0 -i 8 -k MAC
r -t 0.469128767 -s 1 -d 1 -p cbr -e 230 -c 2 -a 0 -i 8 -k MAC
d -t 0.469129533 -s 2 -d 1 -p cbr -e 282 -c 2 -a 0 -i 8 -k MAC
+ -t 0.474000000 -s 1 -d 2 -p cbr -e 282 -c 2 -a 0 -i 8 -k MAC 
- -t 0.474000000 -s 1 -d 2 -p cbr -e 282 -c 2 -a 0 -i 8 -k MAC
h -t 0.474000000 -s 1 -d 2 -p cbr -e 282 -c 2 -a 0 -i 8 -k MAC
d -t 0.475128767 -s 0 -d 2 -p cbr -e 282 -c 2 -a 0 -i 8 -k MAC
r -t 0.475128767 -s 2 -d 2 -p cbr -e 230 -c 2 -a 0 -i 8 -k MAC
d -t 0.475129567 -s 3 -d 2 -p cbr -e 282 -c 2 -a 0 -i 8 -k MAC
+ -t 0.480000000 -s 2 -d 3 -p cbr -e 282 -c 2 -a 0 -i 8 -k MAC 
- -t 0.480000000 -s 2 -d 3 -p cbr -e 282 -c 2 -a 0 -i 8 -k MAC
h -t 0.480000000 -s 2 -d 3 -p cbr -e 282 -c 2 -a 0 -i 8 -k MAC
d -t 0.481128767 -s 1 -d 3 -p cbr -e 282 -c 2 -a 0 -i 8 -k MAC
r -t 0.481128800 -s 3 -d 3 -p cbr -e 230 -c 2 -a 0 -i 8 -k MAC
d -t 0.481129533 -s 0 -d 3 -p cbr -e 282 -c 2 -a 0 -i 8 -k MAC
+ -t 0.516000000 -s 0 -d 1 -p cbr -e 282 -c 2 -a 0 -i 9 -k MAC 
- -t 0.516000000 -s 0 -d 1 -p cbr -e 282 -c 2 -a 0 -i 9 -k MAC
h -t 0.516000000 -s 0 -d 1 -p cbr -e 282 -c 2 -a 0 -i 9 -k MAC
r -t 0.517128767 -s 1 -d 1 -p cbr -e 230 -c 2 -a 0 -i 9 -k MAC
d -t 0.517129533 -s 2 -d 1 -p cbr -e 282 -c 2 -a 0 -i 9 -k MAC
+ -t 0.522000000 -s 1 -d 2 -p cbr -e 282 -c 2 -a 0 -i 9 -k MAC 
- -t 0.522000000 -s 1 -d 2 -p cbr -e 282 -c 2 -a 0 -i 9 -k MAC
h -t 0.522000000 -s 1 -d 2 -p cbr -e 282 -c 2 -a 0 -i 9 -k MAC
d -t 0.523128767 -s 0 -d 2 -p cbr -e 282 -c 2 -a 0 -i 9 -k MAC
r -t 0.523128767 -s 2 -d 2 -p cbr -e 230 -c 2 -a 0 -i 9 -k MAC
d -t 0.523129567 -s 3 -d 2 -p cbr -e 282 -c 2 -a 0 -i 9 -k MAC
+ -t 0.528000000 -s 2 -d 3 -p cbr -e 282 -c 2 -a 0 -i 9 -k MAC 
- -t 0.528000000 -s 2 -d 3 -p cbr -e 282 -c 2 -a 0 -i 9 -k MAC
h -t 0.528000000 -s 2 -d 3 -p cbr -e 282 -c 2 -a 0 -i 9 -k MAC
d -t 0.529128767 -s 1 -d 3 -p cbr -e 282 -c 2 -a 0 -i 9 -k MAC
r -t 0.529128800 -s 3 -d 3 -p cbr -e 230 -c 2 -a 0 -i 9 -k MAC
d -t 0.529129533 -s 0 -d 3 -p cbr -e 282 -c 2 -a 0 -i 9 -k MAC
+ -t 0.564000000 -s 0 -d 1 -p cbr -e 282 -c 2 -a 0 -i 10 -k MAC 
- -t 0.564000000 -s 0 -d 1 -p cbr -e 282 -c 2 -a 0 -i 10 -k MAC
h -t 0.564000000 -s 0 -d 1 -p cbr -e 282 -c 2 -a 0 -i 10 -k MAC
r -t 0.565128767 -s 1 -d 1 -p cbr -e 230 -c 2 -a 0 -i 10 -k MAC
d -t 0.565129533 -s 2 -d 1 -p cbr -e 282 -c 2 -a 0 -i 10 -k MAC
+ -t 0.570000000 -s 1 -d 2 -p cbr -e 282 -c 2 -a 0 -i 10 -k MAC 
- -t 0.570000000 -s 1 -d 2 -p cbr -e 282 -c 2 -a 0 -i 10 -k MAC
h -t 0.570000000 -s 1 -d 2 -p cbr -e 282 -c 2 -a 0 -i 10 -k MAC
d -t 0.571128767 -s 0 -d 2 -p cbr -e 282 -c 2 -a 0 -i 10 -k MAC
r -t 0.571128767 -s 2 -d 2 -p cbr -e 230 -c 2 -a 0 -i 10 -k MAC
d -t 0.571129567 -s 3 -d 2 -p cbr -e 282 -c 2 -a 0 -i 10 -k MAC
+ -t 0.576000000 -s 2 -d 3 -p cbr -e 282 -c 2 -a 0 -i 10 -k MAC 
- -t 0.576000000 -s 2 -d 3 -p cbr -e 282 -c 2 -a 0 -i 10 -k MAC
h -t 0.576000000 -s 2 -d 3 -p cbr -e 282 -c 2 -a 0 -i 10 -k MAC
d -t 0.577128767 -s 1 -d 3 -p cbr -e 282 -c 2 -a 0 -i 10 -k MAC
r -t 0.577128800 -s 3 -d 3 -p cbr -e 230 -c 2 -a 0 -i 10 -k MAC
d -t 0.577129533 -s 0 -d 3 -p cbr -e 282 -c 2 -a 0 -i 10 -k MAC
+ -t 0.636000000 -s 0 -d 1 -p cbr -e 282 -c 2 -a 0 -i 11 -k MAC 
- -t 0.636000000 -s 0 -d 1 -p cbr -e 282 -c 2 -a 0 -i 11 -k MAC
h -t 0.636000000 -s 0 -d 1 -p cbr -e 282 -c 2 -a 0 -i 11 -k MAC
r -t 0.637128767 -s 1 -d 1 -p cbr -e 230 -c 2 -a 0 -i 11 -k MAC
d -t 0.637129533 -s 2 -d 1 -p cbr -e 282 -c 2 -a 0 -i 11 -k MAC
+ -t 0.642000000 -s 1 -d 2 -p cbr -e 282 -c 2 -a 0 -i 11 -k MAC 
- -t 0.642000000 -s 1 -d 2 -p cbr -e 282 -c 2 -a 0 -i 11 -k MAC
h -t 0.642000000 -s 1 -d 2 -p cbr -e 282 -c 2 -a 0 -i 11 -k MAC
d -t 0.643128767 -s 0 -d 2 -p cbr -e 282 -c 2 -a 0 -i 11 -k MAC
r -t 0.643128767 -s 2 -d 2 -p cbr -e 230 -c 2 -a 0 -i 11 -k MAC
d -t 0.643129567 -s 3 -d 2 -p cbr -e 282 -c 2 -a 0 -i 11 -k MAC
+ -t 0.648000000 -s 2 -d 3 -p cbr -e 282 -c 2 -a 0 -i 11 -k MAC 
- -t 0.648000000 -s 2 -d 3 -p cbr -e 282 -c 2 -a 0 -i 11 -k MAC
h -t 0.648000000 -s 2 -d 3 -p cbr -e 282 -c 2 -a 0 -i 11 -k MAC
d -t 0.649128767 -s 1 -d 3 -p cbr -e 282 -c 2 -a 0 -i 11 -k MAC
r -t 0.649128800 -s 3 -d 3 -p cbr -e 230 -c 2 -a 0 -i 11 -k MAC
d -t 0.649129533 -s 0 -d 3 -p cbr -e 282 -c 2 -a 0 -i 11 -k MAC
+ -t 0.684000000 -s 0 -d 1 -p cbr -e 282 -c 2 -a 0 -i 12 -k MAC 
- -t 0.684000000 -s 0 -d 1 -p cbr -e 282 -c 2 -a 0 -i 12 -k MAC
h -t 0.684000000 -s 0 -d 1 -p cbr -e 282 -c 2 -a 0 -i 12 -k MAC
r -t 0.685128767 -s 1 -d 1 -p cbr -e 230 -c 2 -a 0 -i 12 -k MAC
d -t 0.685129533 -s 2 -d 1 -p cbr -e 282 -c 2 -a 0 -i 12 -k MAC
+ -t 0.690000000 -s 1 -d 2 -p cbr -e 282 -c 2 -a 0 -i 12 -k MAC 
- -t 0.690000000 -s 1 -d 2 -p cbr -e 282 -c 2 -a 0 -i 12 -k MAC
h -t 0.690000000 -s 1 -d 2 -p cbr -e 282 -c 2 -a 0 -i 12 -k MAC
d -t 0.691128767 -s 0 -d 2 -p cbr -e 282 -c 2 -a 0 -i 12 -k MAC
r -t 0.691128767 -s 2 -d 2 -p cbr -e 230 -c 2 -a 0 -i 12 -k MAC
d -t 0.691129567 -s 3 -d 2 -p cbr -e 282 -c 2 -a 0 -i 12 -k MAC
+ -t 0.696000000 -s 2 -d 3 -p cbr -e 282 -c 2 -a 0 -i 12 -k MAC 
- -t 0.696000000 -s 2 -d 3 -p cbr -e 282 -c 2 -a 0 -i 12 -k MAC
h -t 0.696000000 -s 2 -d 3 -p cbr -e 282 -c 2 -a 0 -i 12 -k MAC
d -t 0.697128767 -s 1 -d 3 -p cbr -e 282 -c 2 -a 0 -i 12 -k MAC
r -t 0.697128800 -s 3 -d 3 -p cbr -e 230 -c 2 -a 0 -i 12 -k MAC
d -t 0.697129533 -s 0 -d 3 -p cbr -e 282 -c 2 -a 0 -i 12 -k MAC
+ -t 0.732000000 -s 0 -d 1 -p cbr -e 282 -c 2 -a 0 -i 13 -k MAC 
- -t 0.732000000 -s 0 -d 1 -p cbr -e 282 -c 2 -a 0 -i 13 -k MAC
h -t 0.732000000 -s 0 -d 1 -p cbr -e 282 -c 2 -a 0 -i 13 -k MAC
r -t 0.733128767 -s 1 -d 1 -p cbr -e 230 -c 2 -a 0 -i 13 -k MAC
d -t 0.733129533 -s 2 -d 1 -p cbr -e 282 -c 2 -a 0 -i 13 -k MAC
+ -t 0.738000000 -s 1 -d 2 -p cbr -e 282 -c 2 -a 0 -i 13 -k MAC 
- -t 0.738000000 -s 1 -d 2 -p cbr -e 282 -c 2 -a 0 -i 13 -k MAC
h -t 0.738000000 -s 1 -d 2 -p cbr -e 282 -c 2 -a 0 -i 13 -k MAC
d -t 0.739128767 -s 0 -d 2 -p cbr -e 282 -c 2 -a 0 -i 13 -k MAC
r -t 0.739128767 -s 2 -d 2 -p cbr -e 230 -c 2 -a 0 -i 13 -k MAC
d -t 0.739129567 -s 3 -d 2 -p cbr -e 282 -c 2 -a 0 -i 13 -k MAC
+ -t 0.744000000 -s 2 -d 3 -p cbr -e 282 -c 2 -a 0 -i 13 -k MAC 
- -t 0.744000000 -s 2 -d 3 -p cbr -e 282 -c 2 -a 0 -i 13 -k MAC
h -t 0.744000000 -s 2 -d 3 -p cbr -e 282 -c 2 -a 0 -i 13 -k MAC
d -t 0.745128767 -s 1 -d 3 -p cbr -e 282 -c 2 -a 0 -i 13 -k MAC
r -t 0.745128800 -s 3 -d 3 -p cbr -e 230 -c 2 -a 0 -i 13 -k MAC
d -t 0.745129533 -s 0 -d 3 -p cbr -e 282 -c 2 -a 0 -i 13 -k MAC
+ -t 0.804000000 -s 0 -d 1 -p cbr -e 282 -c 2 -a 0 -i 14 -k MAC 
- -t 0.804000000 -s 0 -d 1 -p cbr -e 282 -c 2 -a 0 -i 14 -k MAC
h -t 0.804000000 -s 0 -d 1 -p cbr -e 282 -c 2 -a 0 -i 14 -k MAC
r -t 0.805128767 -s 1 -d 1 -p cbr -e 230 -c 2 -a 0 -i 14 -k MAC
d -t 0.805129533 -s 2 -d 1 -p cbr -e 282 -c 2 -a 0 -i 14 -k MAC
+ -t 0.810000000 -s 1 -d 2 -p cbr -e 282 -c 2 -a 0 -i 14 -k MAC 
- -t 0.810000000 -s 1 -d 2 -p cbr -e 282 -c 2 -a 0 -i 14 -k MAC
h -t 0.810000000 -s 1 -d 2 -p cbr -e 282 -c 2 -a 0 -i 14 -k MAC
d -t 0.811128767 -s 0 -d 2 -p cbr -e 282 -c 2 -a 0 -i 14 -k MAC
r -t 0.811128767 -s 2 -d 2 -p cbr -e 230 -c 2 -a 0 -i 14 -k MAC
d -t 0.811129567 -s 3 -d 2 -p cbr -e 282 -c 2 -a 0 -i 14 -k MAC
+ -t 0.816000000 -s 2 -d 3 -p cbr -e 282 -c 2 -a 0 -i 14 -k MAC 
- -t 0.816000000 -s 2 -d 3 -p cbr -e 282 -c 2 -a 0 -i 14 -k MAC
h -t 0.816000000 -s 2 -d 3 -p cbr -e 282 -c 2 -a 0 -i 14 -k MAC
d -t 0.817128767 -s 1 -d 3 -p cbr -e 282 -c 2 -a 0 -i 14 -k MAC
r -t 0.817128800 -s 3 -d 3 -p cbr -e 230 -c 2 -a 0 -i 14 -k MAC
d -t 0.817129533 -s 0 -d 3 -p cbr -e 282 -c 2 -a 0 -i 14 -k MAC
+ -t 0.852000000 -s 0 -d 1 -p cbr -e 282 -c 2 -a 0 -i 15 -k MAC 
- -t 0.852000000 -s 0 -d 1 -p cbr -e 282 -c 2 -a 0 -i 15 -k MAC
h -t 0.852000000 -s 0 -d 1 -p cbr -e 282 -c 2 -a 0 -i 15 -k MAC
r -t 0.853128767 -s 1 -d 1 -p cbr -e 230 -c 2 -a 0 -i 15 -k MAC
d -t 0.853129533 -s 2 -d 1 -p cbr -e 282 -c 2 -a 0 -i 15 -k MAC
+ -t 0.858000000 -s 1 -d 2 -p cbr -e 282 -c 2 -a 0 -i 15 -k MAC 
- -t 0.858000000 -s 1 -d 2 -p cbr -e 282 -c 2 -a 0 -i 15 -k MAC
h -t 0.858000000 -s 1 -d 2 -p cbr -e 282 -c 2 -a 0 -i 15 -k MAC
d -t 0.859128767 -s 0 -d 2 -p cbr -e 282 -c 2 -a 0 -i 15 -k MAC
r -t 0.859128767 -s 2 -d 2 -p cbr -e 230 -c 2 -a 0 -i 15 -k MAC
d -t 0.859129567 -s 3 -d 2 -p cbr -e 282 -c 2 -a 0 -i 15 -k MAC
+ -t 0.864000000 -s 2 -d 3 -p cbr -e 282 -c 2 -a 0 -i 15 -k MAC 
- -t 0.864000000 -s 2 -d 3 -p cbr -e 282 -c 2 -a 0 -i 15 -k MAC
h -t 0.864000000 -s 2 -d 3 -p cbr -e 282 -c 2 -a 0 -i 15 -k MAC
d -t 0.865128767 -s 1 -d 3 -p cbr -e 282 -c 2 -a 0 -i 15 -k MAC
r -t 0.865128800 -s 3 -d 3 -p cbr -e 230 -c 2 -a 0 -i 15 -k MAC
d -t 0.865129533 -s 0 -d 3 -p cbr -e 282 -c 2 -a 0 -i 15 -k MAC
+ -t 0.900000000 -s 0 -d 1 -p cbr -e 282 -c 2 -a 0 -i 16 -k MAC 
- -t 0.900000000 -s 0 -d 1 -p cbr -e 282 -c 2 -a 0 -i 16 -k MAC
h -t 0.900000000 -s 0 -d 1 -p cbr -e 282 -c 2 -a 0 -i 16 -k MAC
r -t 0.901128767 -s 1 -d 1 -p cbr -e 230 -c 2 -a 0 -i 16 -k MAC
d -t 0.901129533 -s 2 -d 1 -p cbr -e 282 -c 2 -a 0 -i 16 -k MAC
+ -t 0.906000000 -s 1 -d 2 -p cbr -e 282 -c 2 -a 0 -i 16 -k MAC 
- -t 0.906000000 -s 1 -d 2 -p cbr -e 282 -c 2 -a 0 -i 16 -k MAC
h -t 0.906000000 -s 1 -d 2 -p cbr -e 282 -c 2 -a 0 -i 16 -k MAC
d -t 0.907128767 -s 0 -d 2 -p cbr -e 282 -c 2 -a 0 -i 16 -k MAC
r -t 0.907128767 -s 2 -d 2 -p cbr -e 230 -c 2 -a 0 -i 16 -k MAC
d -t 0.907129567 -s 3 -d 2 -p cbr -e 282 -c 2 -a 0 -i 16 -k MAC
+ -t 0.912000000 -s 2 -d 3 -p cbr -e 282 -c 2 -a 0 -i 16 -k MAC 
- -t 0.912000000 -s 2 -d 3 -p cbr -e 282 -c 2 -a 0 -i 16 -k MAC
h -t 0.912000000 -s 2 -d 3 -p cbr -e 282 -c 2 -a 0 -i 16 -k MAC
d -t 0.913128767 -s 1 -d 3 -p cbr -e 282 -c 2 -a 0 -i 16 -k MAC
r -t 0.913128800 -s 3 -d 3 -p cbr -e 230 -c 2 -a 0 -i 16 -k MAC
d -t 0.913129533 -s 0 -d 3 -p cbr -e 282 -c 2 -a 0 -i 16 -k MAC
+ -t 0.972000000 -s 0 -d 1 -p cbr -e 282 -c 2 -a 0 -i 17 -k MAC 
- -t 0.972000000 -s 0 -d 1 -p cbr -e 282 -c 2 -a 0 -i 17 -k MAC
h -t 0.972000000 -s 0 -d 1 -p cbr -e 282 -c 2 -a 0 -i 17 -k MAC
r -t 0.973128767 -s 1 -d 1 -p cbr -e 230 -c 2 -a 0 -i 17 -k MAC
d -t 0.973129533 -s 2 -d 1 -p cbr -e 282 -c 2 -a 0 -i 17 -k MAC
+ -t 0.978000000 -s 1 -d 2 -p cbr -e 282 -c 2 -a 0 -i 17 -k MAC 
- -t 0.978000000 -s 1 -d 2 -p cbr -e 282 -c 2 -a 0 -i 17 -k MAC
h -t 0.978000000 -s 1 -d 2 -p cbr -e 282 -c 2 -a 0 -i 17 -k MAC
d -t 0.979128767 -s 0 -d 2 -p cbr -e 282 -c 2 -a 0 -i 17 -k MAC
r -t 0.979128767 -s 2 -d 2 -p cbr -e 230 -c 2 -a 0 -i 17 -k MAC
d -t 0.979129567 -s 3 -d 2 -p cbr -e 282 -c 2 -a 0 -i 17 -k MAC
+ -t 0.984000000 -s 2 -d 3 -p cbr -e 282 -c 2 -a 0 -i 17 -k MAC 
- -t 0.984000000 -s 2 -d 3 -p cbr -e 282 -c 2 -a 0 -i 17 -k MAC
h -t 0.984000000 -s 2 -d 3 -p cbr -e 282 -c 2 -a 0 -i 17 -k MAC
d -t 0.985128767 -s 1 -d 3 -p cbr -e 282 -c 2 -a 0 -i 17 -k MAC
r -t 0.985128800 -s 3 -d 3 -p cbr -e 230 -c 2 -a 0 -i 17 -k MAC
d -t 0.985129533 -s 0 -d 3 -p cbr -e 282 -c 2 -a 0 -i 17 -k MAC
+ -t 1.020000000 -s 0 -d 1 -p cbr -e 282 -c 2 -a 0 -i 18 -k MAC 
- -t 1.020000000 -s 0 -d 1 -p cbr -e 282 -c 2 -a 0 -i 18 -k MAC
h -t 1.020000000 -s 0 -d 1 -p cbr -e 282 -c 2 -a 0 -i 18 -k MAC
r -t 1.021128767 -s 1 -d 1 -p cbr -e 230 -c 2 -a 0 -i 18 -k MAC
d -t 1.021129533 -s 2 -d 1 -p cbr -e 282 -c 2 -a 0 -i 18 -k MAC
+ -t 1.026000000 -s 1 -d 2 -p cbr -e 282 -c 2 -a 0 -i 18 -k MAC 
- -t 1.026000000 -s 1 -d 2 -p cbr -e 282 -c 2 -a 0 -i 18 -k MAC
h -t 1.026000000 -s 1 -d 2 -p cbr -e 282 -c 2 -a 0 -i 18 -k MAC
d -t 1.027128767 -s 0 -d 2 -p cbr -e 282 -c 2 -a 0 -i 18 -k MAC
r -t 1.027128767 -s 2 -d 2 -p cbr -e 230 -c 2 -a 0 -i 18 -k MAC
d -t 1.027129567 -s 3 -d 2 -p cbr -e 282 -c 2 -a 0 -i 18 -k MAC
+ -t 1.032000000 -s 2 -d 3 -p cbr -e 282 -c 2 -a 0 -i 18 -k MAC 
- -t 1.032000000 -s 2 -d 3 -p cbr -e 282 -c 2 -a 0 -i 18 -k MAC
h -t 1.032000000 -s 2 -d 3 -p cbr -e 282 -c 2 -a 0 -i 18 -k MAC
d -t 1.033128767 -s 1 -d 3 -p cbr -e 282 -c 2 -a 0 -i 18 -k MAC
r -t 1.033128800 -s 3 -d 3 -p cbr -e 230 -c 2 -a 0 -i 18 -k MAC
d -t 1.033129533 -s 0 -d 3 -p cbr -e 282 -c 2 -a 0 -i 18 -k MAC
+ -t 1.068000000 -s 0 -d 1 -p cbr -e 282 -c 2 -a 0 -i 19 -k MAC 
- -t 1.068000000 -s 0 -d 1 -p cbr -e 282 -c 2 -a 0 -i 19 -k MAC
h -t 1.068000000 -s 0 -d 1 -p cbr -e 282 -c 2 -a 0 -i 19 -k MAC
r -t 1.069128767 -s 1 -d 1 -p cbr -e 230 -c 2 -a 0 -i 19 -k MAC
d -t 1.069129533 -s 2 -d 1 -p cbr -e 282 -c 2 -a 0 -i 19 -k MAC
+ -t 1.074000000 -s 1 -d 2 -p cbr -e 282 -c 2 -a 0 -i 19 -k MAC 
- -t 1.074000000 -s 1 -d 2 -p cbr -e 282 -c 2 -a 0 -i 19 -k MAC
h -t 1.074000000 -s 1 -d 2 -p cbr -e 282 -c 2 -a 0 -i 19 -k MAC
d -t 1.075128767 -s 0 -d 2 -p cbr -e 282 -c 2 -a 0 -i 19 -k MAC
r -t 1.075128767 -s 2 -d 2 -p cbr -e 230 -c 2 -a 0 -i 19 -k MAC
d -t 1.075129567 -s 3 -d 2 -p cbr -e 282 -c 2 -a 0 -i 19 -k MAC
+ -t 1.080000000 -s 2 -d 3 -p cbr -e 282 -c 2 -a 0 -i 19 -k MAC 
- -t 1.080000000 -s 2 -d 3 -p cbr -e 282 -c 2 -a 0 -i 19 -k MAC
h -t 1.080000000 -s 2 -d 3 -p cbr -e 282 -c 2 -a 0 -i 19 -k MAC
d -t 1.081128767 -s 1 -d 3 -p cbr -e 282 -c 2 -a 0 -i 19 -k MAC
r -t 1.081128800 -s 3 -d 3 -p cbr -e 230 -c 2 -a 0 -i 19 -k MAC
d -t 1.081129533 -s 0 -d 3 -p cbr -e 282 -c 2 -a 0 -i 19 -k MAC
+ -t 1.140000000 -s 0 -d 1 -p cbr -e 282 -c 2 -a 0 -i 20 -k MAC 
- -t 1.140000000 -s 0 -d 1 -p cbr -e 282 -c 2 -a 0 -i 20 -k MAC
h -t 1.140000000 -s 0 -d 1 -p cbr -e 282 -c 2 -a 0 -i 20 -k MAC
r -t 1.141128767 -s 1 -d 1 -p cbr -e 230 -c 2 -a 0 -i 20 -k MAC
d -t 1.141129533 -s 2 -d 1 -p cbr -e 282 -c 2 -a 0 -i 20 -k MAC
+ -t 1.146000000 -s 1 -d 2 -p cbr -e 282 -c 2 -a 0 -i 20 -k MAC 
- -t 1.146000000 -s 1 -d 2 -p cbr -e 282 -c 2 -a 0 -i 20 -k MAC
h -t 1.146000000 -s 1 -d 2 -p cbr -e 282 -c 2 -a 0 -i 20 -k MAC
d -t 1.147128767 -s 0 -d 2 -p cbr -e 282 -c 2 -a 0 -i 20 -k MAC
r -t 1.147128767 -s 2 -d 2 -p cbr -e 230 -c 2 -a 0 -i 20 -k MAC
d -t 1.147129567 -s 3 -d 2 -p cbr -e 282 -c 2 -a 0 -i 20 -k MAC
+ -t 1.152000000 -s 2 -d 3 -p cbr -e 282 -c 2 -a 0 -i 20 -k MAC 
- -t 1.152000000 -s 2 -d 3 -p cbr -e 282 -c 2 -a 0 -i 20 -k MAC
h -t 1.152000000 -s 2 -d 3 -p cbr -e 282 -c 2 -a 0 -i 20 -k MAC
d -t 1.153128767 -s 1 -d 3 -p cbr -e 282 -c 2 -a 0 -i 20 -k MAC
r -t 1.153128800 -s 3 -d 3 -p cbr -e 230 -c 2 -a 0 -i 20 -k MAC
d -t 1.153129533 -s 0 -d 3 -p cbr -e 282 -c 2 -a 0 -i 20 -k MAC
+ -t 1.188000000 -s 0 -d 1 -p cbr -e 282 -c 2 -a 0 -i 21 -k MAC 
- -t 1.188000000 -s 0 -d 1 -p cbr -e 282 -c 2 -a 0 -i 21 -k MAC
h -t 1.188000000 -s 0 -d 1 -p cbr -e 282 -c 2 -a 0 -i 21 -k MAC
r -t 1.189128767 -s 1 -d 1 -p cbr -e 230 -c 2 -a 0 -i 21 -k MAC
d -t 1.189129533 -s 2 -d 1 -p cbr -e 282 -c 2 -a 0 -i 21 -k MAC
+ -t 1.194000000 -s 1 -d 2 -p cbr -e 282 -c 2 -a 0 -i 21 -k MAC 
- -t 1.194000000 -s 1 -d 2 -p cbr -e 282 -c 2 -a 0 -i 21 -k MAC
h -t 1.194000000 -s 1 -d 2 -p cbr -e 282 -c 2 -a 0 -i 21 -k MAC
d -t 1.195128767 -s 0 -d 2 -p cbr -e 282 -c 2 -a 0 -i 21 -k MAC
r -t 1.195128767 -s 2 -d 2 -p cbr -e 230 -c 2 -a 0 -i 21 -k MAC
d -t 1.195129567 -s 3 -d 2 -p cbr -e 282 -c 2 -a 0 -i 21 -k MAC
+ -t 1.200000000 -s 2 -d 3 -p cbr -e 282 -c 2 -a 0 -i 21 -k MAC 
- -t 1.200000000 -s 2 -d 3 -p cbr -e 282 -c 2 -a 0 -i 21 -k MAC
h -t 1.200000000 -s 2 -d 3 -p cbr -e 282 -c 2 -a 0 -i 21 -k MAC
d -t 1.201128767 -s 1 -d 3 -p cbr -e 282 -c 2 -a 0 -i 21 -k MAC
r -t 1.201128800 -s 3 -d 3 -p cbr -e 230 -c 2 -a 0 -i 21 -k MAC
d -t 1.201129533 -s 0 -d 3 -p cbr -e 282 -c 2 -a 0 -i 21 -k MAC
+ -t 1.236000000 -s 0 -d 1 -p cbr -e 282 -c 2 -a 0 -i 22 -k MAC 
- -t 1.236000000 -s 0 -d 1 -p cbr -e 282 -c 2 -a 0 -i 22 -k MAC
h -t 1.236000000 -s 0 -d 1 -p cbr -e 282 -c 2 -a 0 -i 22 -k MAC
r -t 1.237128767 -s 1 -d 1 -p cbr -e 230 -c 2 -a 0 -i 22 -k MAC
d -t 1.237129533 -s 2 -d 1 -p cbr -e 282 -c 2 -a 0 -i 22 -k MAC
+ -t 1.242000000 -s 1 -d 2 -p cbr -e 282 -c 2 -a 0 -i 22 -k MAC 
- -t 1.242000000 -s 1 -d 2 -p cbr -e 282 -c 2 -a 0 -i 22 -k MAC
h -t 1.242000000 -s 1 -d 2 -p cbr -e 282 -c 2 -a 0 -i 22 -k MAC
d -t 1.243128767 -s 0 -d 2 -p cbr -e 282 -c 2 -a 0 -i 22 -k MAC
r -t 1.243128767 -s 2 -d 2 -p cbr -e 230 -c 2 -a 0 -i 22 -k MAC
d -t 1.243129567 -s 3 -d 2 -p cbr -e 282 -c 2 -a 0 -i 22 -k MAC
+ -t 1.248000000 -s 2 -d 3 -p cbr -e 282 -c 2 -a 0 -i 22 -k MAC 
- -t 1.248000000 -s 2 -d 3 -p cbr -e 282 -c 2 -a 0 -i 22 -k MAC
h -t 1.248000000 -s 2 -d 3 -p cbr -e 282 -c 2 -a 0 -i 22 -k MAC
d -t 1.249128767 -s 1 -d 3 -p cbr -e 282 -c 2 -a 0 -i 22 -k MAC
r -t 1.249128800 -s 3 -d 3 -p cbr -e 230 -c 2 -a 0 -i 22 -k MAC
d -t 1.249129533 -s 0 -d 3 -p cbr -e 282 -c 2 -a 0 -i 22 -k MAC
+ -t 1.308000000 -s 0 -d 1 -p cbr -e 282 -c 2 -a 0 -i 23 -k MAC 
- -t 1.308000000 -s 0 -d 1 -p cbr -e 282 -c 2 -a 0 -i 23 -k MAC
h -t 1.308000000 -s 0 -d 1 -p cbr -e 282 -c 2 -a 0 -i 23 -k MAC
r -t 1.309128767 -s 1 -d 1 -p cbr -e 230 -c 2 -a 0 -i 23 -k MAC
d -t 1.309129533 -s 2 -d 1 -p cbr -e 282 -c 2 -a 0 -i 23 -k MAC
+ -t 1.314000000 -s 1 -d 2 -p cbr -e 282 -c 2 -a 0 -i 23 -k MAC 