n -t * -s 0  -x 200 -y 800 -Z 0 -z 10  -v circle -c black
n -t * -s 1  -x 200 -y 570 -Z 0 -z 10  -v circle -c black
n -t * -s 2  -x 200 -y 340 -Z 0 -z 10  -v circle -c black
n -t * -s 3  -x 430 -y 630 -Z 0 -z 10  -v circle -c black
n -t * -s 4  -x 550 -y 630 -Z 0 -z 10  -v circle -c black
V -t * -v 1.0a5 -a 0
W -t * -x 1000 -y 1000
A -t * -n 1 -p 0 -o 0x7fffffff -c 30 -a 1
A -t * -h 1 -m 1073741823 -s 0
+ -t 0.000000000 -s 0 -d -1 -p cbr -e 210 -c 2 -a 0 -i 0 -k AGT 
- -t 0.000000000 -s 0 -d -1 -p cbr -e 210 -c 2 -a 0 -i 0 -k AGT
h -t 0.000000000 -s 0 -d -1 -p cbr -e 210 -c 2 -a 0 -i 0 -k AGT
+ -t 0.000000000 -s 3 -d -1 -p cbr -e 210 -c 2 -a 0 -i 1 -k AGT 
- -t 0.000000000 -s 3 -d -1 -p cbr -e 210 -c 2 -a 0 -i 1 -k AGT
h -t 0.000000000 -s 3 -d -1 -p cbr -e 210 -c 2 -a 0 -i 1 -k AGT
+ -t 0.005600000 -s 0 -d -1 -p cbr -e 210 -c 2 -a 0 -i 2 -k AGT 
- -t 0.005600000 -s 0 -d -1 -p cbr -e 210 -c 2 -a 0 -i 2 -k AGT
h -t 0.005600000 -s 0 -d -1 -p cbr -e 210 -c 2 -a 0 -i 2 -k AGT
+ -t 0.005600000 -s 3 -d -1 -p cbr -e 210 -c 2 -a 0 -i 3 -k AGT 
- -t 0.005600000 -s 3 -d -1 -p cbr -e 210 -c 2 -a 0 -i 3 -k AGT
h -t 0.005600000 -s 3 -d -1 -p cbr -e 210 -c 2 -a 0 -i 3 -k AGT
+ -t 0.011200000 -s 0 -d -1 -p cbr -e 210 -c 2 -a 0 -i 4 -k AGT 
- -t 0.011200000 -s 0 -d -1 -p cbr -e 210 -c 2 -a 0 -i 4 -k AGT
h -t 0.011200000 -s 0 -d -1 -p cbr -e 210 -c 2 -a 0 -i 4 -k AGT
+ -t 0.011200000 -s 3 -d -1 -p cbr -e 210 -c 2 -a 0 -i 5 -k AGT 
- -t 0.011200000 -s 3 -d -1 -p cbr -e 210 -c 2 -a 0 -i 5 -k AGT
h -t 0.011200000 -s 3 -d -1 -p cbr -e 210 -c 2 -a 0 -i 5 -k AGT
+ -t 0.016800000 -s 0 -d -1 -p cbr -e 210 -c 2 -a 0 -i 6 -k AGT 
- -t 0.016800000 -s 0 -d -1 -p cbr -e 210 -c 2 -a 0 -i 6 -k AGT
h -t 0.016800000 -s 0 -d -1 -p cbr -e 210 -c 2 -a 0 -i 6 -k AGT
+ -t 0.016800000 -s 3 -d -1 -p cbr -e 210 -c 2 -a 0 -i 7 -k AGT 
- -t 0.016800000 -s 3 -d -1 -p cbr -e 210 -c 2 -a 0 -i 7 -k AGT
h -t 0.016800000 -s 3 -d -1 -p cbr -e 210 -c 2 -a 0 -i 7 -k AGT
+ -t 0.022400000 -s 0 -d -1 -p cbr -e 210 -c 2 -a 0 -i 8 -k AGT 
- -t 0.022400000 -s 0 -d -1 -p cbr -e 210 -c 2 -a 0 -i 8 -k AGT
h -t 0.022400000 -s 0 -d -1 -p cbr -e 210 -c 2 -a 0 -i 8 -k AGT
+ -t 0.022400000 -s 3 -d -1 -p cbr -e 210 -c 2 -a 0 -i 9 -k AGT 
- -t 0.022400000 -s 3 -d -1 -p cbr -e 210 -c 2 -a 0 -i 9 -k AGT
h -t 0.022400000 -s 3 -d -1 -p cbr -e 210 -c 2 -a 0 -i 9 -k AGT
+ -t 0.028000000 -s 0 -d -1 -p cbr -e 210 -c 2 -a 0 -i 10 -k AGT 
- -t 0.028000000 -s 0 -d -1 -p cbr -e 210 -c 2 -a 0 -i 10 -k AGT
h -t 0.028000000 -s 0 -d -1 -p cbr -e 210 -c 2 -a 0 -i 10 -k AGT
+ -t 0.028000000 -s 3 -d -1 -p cbr -e 210 -c 2 -a 0 -i 11 -k AGT 
- -t 0.028000000 -s 3 -d -1 -p cbr -e 210 -c 2 -a 0 -i 11 -k AGT
h -t 0.028000000 -s 3 -d -1 -p cbr -e 210 -c 2 -a 0 -i 11 -k AGT
+ -t 0.033600000 -s 0 -d -1 -p cbr -e 210 -c 2 -a 0 -i 12 -k AGT 
- -t 0.033600000 -s 0 -d -1 -p cbr -e 210 -c 2 -a 0 -i 12 -k AGT
h -t 0.033600000 -s 0 -d -1 -p cbr -e 210 -c 2 -a 0 -i 12 -k AGT
+ -t 0.033600000 -s 3 -d -1 -p cbr -e 210 -c 2 -a 0 -i 13 -k AGT 
- -t 0.033600000 -s 3 -d -1 -p cbr -e 210 -c 2 -a 0 -i 13 -k AGT
h -t 0.033600000 -s 3 -d -1 -p cbr -e 210 -c 2 -a 0 -i 13 -k AGT
+ -t 0.039200000 -s 0 -d -1 -p cbr -e 210 -c 2 -a 0 -i 14 -k AGT 
- -t 0.039200000 -s 0 -d -1 -p cbr -e 210 -c 2 -a 0 -i 14 -k AGT
h -t 0.039200000 -s 0 -d -1 -p cbr -e 210 -c 2 -a 0 -i 14 -k AGT
+ -t 0.039200000 -s 3 -d -1 -p cbr -e 210 -c 2 -a 0 -i 15 -k AGT 
- -t 0.039200000 -s 3 -d -1 -p cbr -e 210 -c 2 -a 0 -i 15 -k AGT
h -t 0.039200000 -s 3 -d -1 -p cbr -e 210 -c 2 -a 0 -i 15 -k AGT
+ -t 0.044800000 -s 0 -d -1 -p cbr -e 210 -c 2 -a 0 -i 16 -k AGT 
- -t 0.044800000 -s 0 -d -1 -p cbr -e 210 -c 2 -a 0 -i 16 -k AGT
h -t 0.044800000 -s 0 -d -1 -p cbr -e 210 -c 2 -a 0 -i 16 -k AGT
+ -t 0.044800000 -s 3 -d -1 -p cbr -e 210 -c 2 -a 0 -i 17 -k AGT 
- -t 0.044800000 -s 3 -d -1 -p cbr -e 210 -c 2 -a 0 -i 17 -k AGT
h -t 0.044800000 -s 3 -d -1 -p cbr -e 210 -c 2 -a 0 -i 17 -k AGT
+ -t 0.050400000 -s 0 -d -1 -p cbr -e 210 -c 2 -a 0 -i 18 -k AGT 
- -t 0.050400000 -s 0 -d -1 -p cbr -e 210 -c 2 -a 0 -i 18 -k AGT
h -t 0.050400000 -s 0 -d -1 -p cbr -e 210 -c 2 -a 0 -i 18 -k AGT
+ -t 0.050400000 -s 3 -d -1 -p cbr -e 210 -c 2 -a 0 -i 19 -k AGT 
- -t 0.050400000 -s 3 -d -1 -p cbr -e 210 -c 2 -a 0 -i 19 -k AGT
h -t 0.050400000 -s 3 -d -1 -p cbr -e 210 -c 2 -a 0 -i 19 -k AGT
+ -t 0.056000000 -s 0 -d -1 -p cbr -e 210 -c 2 -a 0 -i 20 -k AGT 
- -t 0.056000000 -s 0 -d -1 -p cbr -e 210 -c 2 -a 0 -i 20 -k AGT
h -t 0.056000000 -s 0 -d -1 -p cbr -e 210 -c 2 -a 0 -i 20 -k AGT
+ -t 0.056000000 -s 3 -d -1 -p cbr -e 210 -c 2 -a 0 -i 21 -k AGT 
- -t 0.056000000 -s 3 -d -1 -p cbr -e 210 -c 2 -a 0 -i 21 -k AGT
h -t 0.056000000 -s 3 -d -1 -p cbr -e 210 -c 2 -a 0 -i 21 -k AGT
+ -t 0.061600000 -s 0 -d -1 -p cbr -e 210 -c 2 -a 0 -i 22 -k AGT 
- -t 0.061600000 -s 0 -d -1 -p cbr -e 210 -c 2 -a 0 -i 22 -k AGT
h -t 0.061600000 -s 0 -d -1 -p cbr -e 210 -c 2 -a 0 -i 22 -k AGT
+ -t 0.061600000 -s 3 -d -1 -p cbr -e 210 -c 2 -a 0 -i 23 -k AGT 
- -t 0.061600000 -s 3 -d -1 -p cbr -e 210 -c 2 -a 0 -i 23 -k AGT
h -t 0.061600000 -s 3 -d -1 -p cbr -e 210 -c 2 -a 0 -i 23 -k AGT
r -t 0.067153400 -s 4 -d 4 -p cbr -e 230 -c 2 -a 0 -i 1 -k AGT
+ -t 0.067200000 -s 0 -d -1 -p cbr -e 210 -c 2 -a 0 -i 24 -k AGT 
- -t 0.067200000 -s 0 -d -1 -p cbr -e 210 -c 2 -a 0 -i 24 -k AGT
h -t 0.067200000 -s 0 -d -1 -p cbr -e 210 -c 2 -a 0 -i 24 -k AGT
+ -t 0.067200000 -s 3 -d -1 -p cbr -e 210 -c 2 -a 0 -i 25 -k AGT 
- -t 0.067200000 -s 3 -d -1 -p cbr -e 210 -c 2 -a 0 -i 25 -k AGT
h -t 0.067200000 -s 3 -d -1 -p cbr -e 210 -c 2 -a 0 -i 25 -k AGT
+ -t 0.072800000 -s 0 -d -1 -p cbr -e 210 -c 2 -a 0 -i 26 -k AGT 
- -t 0.072800000 -s 0 -d -1 -p cbr -e 210 -c 2 -a 0 -i 26 -k AGT
h -t 0.072800000 -s 0 -d -1 -p cbr -e 210 -c 2 -a 0 -i 26 -k AGT
+ -t 0.072800000 -s 3 -d -1 -p cbr -e 210 -c 2 -a 0 -i 27 -k AGT 
- -t 0.072800000 -s 3 -d -1 -p cbr -e 210 -c 2 -a 0 -i 27 -k AGT
h -t 0.072800000 -s 3 -d -1 -p cbr -e 210 -c 2 -a 0 -i 27 -k AGT
+ -t 0.078400000 -s 0 -d -1 -p cbr -e 210 -c 2 -a 0 -i 28 -k AGT 
- -t 0.078400000 -s 0 -d -1 -p cbr -e 210 -c 2 -a 0 -i 28 -k AGT
h -t 0.078400000 -s 0 -d -1 -p cbr -e 210 -c 2 -a 0 -i 28 -k AGT
+ -t 0.078400000 -s 3 -d -1 -p cbr -e 210 -c 2 -a 0 -i 29 -k AGT 
- -t 0.078400000 -s 3 -d -1 -p cbr -e 210 -c 2 -a 0 -i 29 -k AGT
h -t 0.078400000 -s 3 -d -1 -p cbr -e 210 -c 2 -a 0 -i 29 -k AGT
+ -t 0.084000000 -s 0 -d -1 -p cbr -e 210 -c 2 -a 0 -i 30 -k AGT 
- -t 0.084000000 -s 0 -d -1 -p cbr -e 210 -c 2 -a 0 -i 30 -k AGT
h -t 0.084000000 -s 0 -d -1 -p cbr -e 210 -c 2 -a 0 -i 30 -k AGT
+ -t 0.084000000 -s 3 -d -1 -p cbr -e 210 -c 2 -a 0 -i 31 -k AGT 
- -t 0.084000000 -s 3 -d -1 -p cbr -e 210 -c 2 -a 0 -i 31 -k AGT
h -t 0.084000000 -s 3 -d -1 -p cbr -e 210 -c 2 -a 0 -i 31 -k AGT
+ -t 0.089600000 -s 0 -d -1 -p cbr -e 210 -c 2 -a 0 -i 32 -k AGT 
- -t 0.089600000 -s 0 -d -1 -p cbr -e 210 -c 2 -a 0 -i 32 -k AGT
h -t 0.089600000 -s 0 -d -1 -p cbr -e 210 -c 2 -a 0 -i 32 -k AGT
+ -t 0.089600000 -s 3 -d -1 -p cbr -e 210 -c 2 -a 0 -i 33 -k AGT 
- -t 0.089600000 -s 3 -d -1 -p cbr -e 210 -c 2 -a 0 -i 33 -k AGT
h -t 0.089600000 -s 3 -d -1 -p cbr -e 210 -c 2 -a 0 -i 33 -k AGT
r -t 0.091153400 -s 4 -d 4 -p cbr -e 230 -c 2 -a 0 -i 19 -k AGT
+ -t 0.095200000 -s 0 -d -1 -p cbr -e 210 -c 2 -a 0 -i 34 -k AGT 
- -t 0.095200000 -s 0 -d -1 -p cbr -e 210 -c 2 -a 0 -i 34 -k AGT
h -t 0.095200000 -s 0 -d -1 -p cbr -e 210 -c 2 -a 0 -i 34 -k AGT
+ -t 0.095200000 -s 3 -d -1 -p cbr -e 210 -c 2 -a 0 -i 35 -k AGT 
- -t 0.095200000 -s 3 -d -1 -p cbr -e 210 -c 2 -a 0 -i 35 -k AGT
h -t 0.095200000 -s 3 -d -1 -p cbr -e 210 -c 2 -a 0 -i 35 -k AGT
+ -t 0.100800000 -s 0 -d -1 -p cbr -e 210 -c 2 -a 0 -i 36 -k AGT 
- -t 0.100800000 -s 0 -d -1 -p cbr -e 210 -c 2 -a 0 -i 36 -k AGT
h -t 0.100800000 -s 0 -d -1 -p cbr -e 210 -c 2 -a 0 -i 36 -k AGT
+ -t 0.100800000 -s 3 -d -1 -p cbr -e 210 -c 2 -a 0 -i 37 -k AGT 
- -t 0.100800000 -s 3 -d -1 -p cbr -e 210 -c 2 -a 0 -i 37 -k AGT
h -t 0.100800000 -s 3 -d -1 -p cbr -e 210 -c 2 -a 0 -i 37 -k AGT
+ -t 0.106400000 -s 0 -d -1 -p cbr -e 210 -c 2 -a 0 -i 38 -k AGT 
- -t 0.106400000 -s 0 -d -1 -p cbr -e 210 -c 2 -a 0 -i 38 -k AGT
h -t 0.106400000 -s 0 -d -1 -p cbr -e 210 -c 2 -a 0 -i 38 -k AGT
+ -t 0.106400000 -s 3 -d -1 -p cbr -e 210 -c 2 -a 0 -i 39 -k AGT 
- -t 0.106400000 -s 3 -d -1 -p cbr -e 210 -c 2 -a 0 -i 39 -k AGT
h -t 0.106400000 -s 3 -d -1 -p cbr -e 210 -c 2 -a 0 -i 39 -k AGT
+ -t 0.112000000 -s 0 -d -1 -p cbr -e 210 -c 2 -a 0 -i 40 -k AGT 
- -t 0.112000000 -s 0 -d -1 -p cbr -e 210 -c 2 -a 0 -i 40 -k AGT
h -t 0.112000000 -s 0 -d -1 -p cbr -e 210 -c 2 -a 0 -i 40 -k AGT
+ -t 0.112000000 -s 3 -d -1 -p cbr -e 210 -c 2 -a 0 -i 41 -k AGT 
- -t 0.112000000 -s 3 -d -1 -p cbr -e 210 -c 2 -a 0 -i 41 -k AGT
h -t 0.112000000 -s 3 -d -1 -p cbr -e 210 -c 2 -a 0 -i 41 -k AGT
r -t 0.115153400 -s 4 -d 4 -p cbr -e 230 -c 2 -a 0 -i 21 -k AGT
r -t 0.115153767 -s 2 -d 2 -p cbr -e 230 -c 2 -a 0 -i 0 -k AGT
+ -t 0.117600000 -s 0 -d -1 -p cbr -e 210 -c 2 -a 0 -i 42 -k AGT 
- -t 0.117600000 -s 0 -d -1 -p cbr -e 210 -c 2 -a 0 -i 42 -k AGT
h -t 0.117600000 -s 0 -d -1 -p cbr -e 210 -c 2 -a 0 -i 42 -k AGT
+ -t 0.117600000 -s 3 -d -1 -p cbr -e 210 -c 2 -a 0 -i 43 -k AGT 
- -t 0.117600000 -s 3 -d -1 -p cbr -e 210 -c 2 -a 0 -i 43 -k AGT
h -t 0.117600000 -s 3 -d -1 -p cbr -e 210 -c 2 -a 0 -i 43 -k AGT
+ -t 0.123200000 -s 0 -d -1 -p cbr -e 210 -c 2 -a 0 -i 44 -k AGT 
- -t 0.123200000 -s 0 -d -1 -p cbr -e 210 -c 2 -a 0 -i 44 -k AGT
h -t 0.123200000 -s 0 -d -1 -p cbr -e 210 -c 2 -a 0 -i 44 -k AGT
+ -t 0.123200000 -s 3 -d -1 -p cbr -e 210 -c 2 -a 0 -i 45 -k AGT 
- -t 0.123200000 -s 3 -d -1 -p cbr -e 210 -c 2 -a 0 -i 45 -k AGT
h -t 0.123200000 -s 3 -d -1 -p cbr -e 210 -c 2 -a 0 -i 45 -k AGT
+ -t 0.128800000 -s 0 -d -1 -p cbr -e 210 -c 2 -a 0 -i 46 -k AGT 
- -t 0.128800000 -s 0 -d -1 -p cbr -e 210 -c 2 -a 0 -i 46 -k AGT
h -t 0.128800000 -s 0 -d -1 -p cbr -e 210 -c 2 -a 0 -i 46 -k AGT
+ -t 0.128800000 -s 3 -d -1 -p cbr -e 210 -c 2 -a 0 -i 47 -k AGT 
- -t 0.128800000 -s 3 -d -1 -p cbr -e 210 -c 2 -a 0 -i 47 -k AGT
h -t 0.128800000 -s 3 -d -1 -p cbr -e 210 -c 2 -a 0 -i 47 -k AGT
+ -t 0.134400000 -s 0 -d -1 -p cbr -e 210 -c 2 -a 0 -i 48 -k AGT 
- -t 0.134400000 -s 0 -d -1 -p cbr -e 210 -c 2 -a 0 -i 48 -k AGT
h -t 0.134400000 -s 0 -d -1 -p cbr -e 210 -c 2 -a 0 -i 48 -k AGT
+ -t 0.134400000 -s 3 -d -1 -p cbr -e 210 -c 2 -a 0 -i 49 -k AGT 
- -t 0.134400000 -s 3 -d -1 -p cbr -e 210 -c 2 -a 0 -i 49 -k AGT
h -t 0.134400000 -s 3 -d -1 -p cbr -e 210 -c 2 -a 0 -i 49 -k AGT
r -t 0.139153400 -s 4 -d 4 -p cbr -e 230 -c 2 -a 0 -i 3 -k AGT
r -t 0.139153767 -s 2 -d 2 -p cbr -e 230 -c 2 -a 0 -i 34 -k AGT
+ -t 0.140000000 -s 0 -d -1 -p cbr -e 210 -c 2 -a 0 -i 50 -k AGT 
- -t 0.140000000 -s 0 -d -1 -p cbr -e 210 -c 2 -a 0 -i 50 -k AGT
h -t 0.140000000 -s 0 -d -1 -p cbr -e 210 -c 2 -a 0 -i 50 -k AGT
+ -t 0.140000000 -s 3 -d -1 -p cbr -e 210 -c 2 -a 0 -i 51 -k AGT 
- -t 0.140000000 -s 3 -d -1 -p cbr -e 210 -c 2 -a 0 -i 51 -k AGT
h -t 0.140000000 -s 3 -d -1 -p cbr -e 210 -c 2 -a 0 -i 51 -k AGT
+ -t 0.145600000 -s 0 -d -1 -p cbr -e 210 -c 2 -a 0 -i 52 -k AGT 
- -t 0.145600000 -s 0 -d -1 -p cbr -e 210 -c 2 -a 0 -i 52 -k AGT
h -t 0.145600000 -s 0 -d -1 -p cbr -e 210 -c 2 -a 0 -i 52 -k AGT
+ -t 0.145600000 -s 3 -d -1 -p cbr -e 210 -c 2 -a 0 -i 53 -k AGT 
- -t 0.145600000 -s 3 -d -1 -p cbr -e 210 -c 2 -a 0 -i 53 -k AGT
h -t 0.145600000 -s 3 -d -1 -p cbr -e 210 -c 2 -a 0 -i 53 -k AGT
+ -t 0.151200000 -s 0 -d -1 -p cbr -e 210 -c 2 -a 0 -i 54 -k AGT 
- -t 0.151200000 -s 0 -d -1 -p cbr -e 210 -c 2 -a 0 -i 54 -k AGT
h -t 0.151200000 -s 0 -d -1 -p cbr -e 210 -c 2 -a 0 -i 54 -k AGT
+ -t 0.151200000 -s 3 -d -1 -p cbr -e 210 -c 2 -a 0 -i 55 -k AGT 
- -t 0.151200000 -s 3 -d -1 -p cbr -e 210 -c 2 -a 0 -i 55 -k AGT
h -t 0.151200000 -s 3 -d -1 -p cbr -e 210 -c 2 -a 0 -i 55 -k AGT
+ -t 0.156800000 -s 0 -d -1 -p cbr -e 210 -c 2 -a 0 -i 56 -k AGT 
- -t 0.156800000 -s 0 -d -1 -p cbr -e 210 -c 2 -a 0 -i 56 -k AGT
h -t 0.156800000 -s 0 -d -1 -p cbr -e 210 -c 2 -a 0 -i 56 -k AGT
+ -t 0.156800000 -s 3 -d -1 -p cbr -e 210 -c 2 -a 0 -i 57 -k AGT 
- -t 0.156800000 -s 3 -d -1 -p cbr -e 210 -c 2 -a 0 -i 57 -k AGT
h -t 0.156800000 -s 3 -d -1 -p cbr -e 210 -c 2 -a 0 -i 57 -k AGT
+ -t 0.162400000 -s 0 -d -1 -p cbr -e 210 -c 2 -a 0 -i 58 -k AGT 
- -t 0.162400000 -s 0 -d -1 -p cbr -e 210 -c 2 -a 0 -i 58 -k AGT
h -t 0.162400000 -s 0 -d -1 -p cbr -e 210 -c 2 -a 0 -i 58 -k AGT
+ -t 0.162400000 -s 3 -d -1 -p cbr -e 210 -c 2 -a 0 -i 59 -k AGT 
- -t 0.162400000 -s 3 -d -1 -p cbr -e 210 -c 2 -a 0 -i 59 -k AGT
h -t 0.162400000 -s 3 -d -1 -p cbr -e 210 -c 2 -a 0 -i 59 -k AGT
r -t 0.163153400 -s 4 -d 4 -p cbr -e 230 -c 2 -a 0 -i 23 -k AGT
r -t 0.163153767 -s 2 -d 2 -p cbr -e 230 -c 2 -a 0 -i 2 -k AGT
+ -t 0.168000000 -s 0 -d -1 -p cbr -e 210 -c 2 -a 0 -i 60 -k AGT 
- -t 0.168000000 -s 0 -d -1 -p cbr -e 210 -c 2 -a 0 -i 60 -k AGT
h -t 0.168000000 -s 0 -d -1 -p cbr -e 210 -c 2 -a 0 -i 60 -k AGT
+ -t 0.168000000 -s 3 -d -1 -p cbr -e 210 -c 2 -a 0 -i 61 -k AGT 
- -t 0.168000000 -s 3 -d -1 -p cbr -e 210 -c 2 -a 0 -i 61 -k AGT
h -t 0.168000000 -s 3 -d -1 -p cbr -e 210 -c 2 -a 0 -i 61 -k AGT
+ -t 0.173600000 -s 0 -d -1 -p cbr -e 210 -c 2 -a 0 -i 62 -k AGT 
- -t 0.173600000 -s 0 -d -1 -p cbr -e 210 -c 2 -a 0 -i 62 -k AGT
h -t 0.173600000 -s 0 -d -1 -p cbr -e 210 -c 2 -a 0 -i 62 -k AGT
+ -t 0.173600000 -s 3 -d -1 -p cbr -e 210 -c 2 -a 0 -i 63 -k AGT 
- -t 0.173600000 -s 3 -d -1 -p cbr -e 210 -c 2 -a 0 -i 63 -k AGT
h -t 0.173600000 -s 3 -d -1 -p cbr -e 210 -c 2 -a 0 -i 63 -k AGT
+ -t 0.179200000 -s 0 -d -1 -p cbr -e 210 -c 2 -a 0 -i 64 -k AGT 
- -t 0.179200000 -s 0 -d -1 -p cbr -e 210 -c 2 -a 0 -i 64 -k AGT
h -t 0.179200000 -s 0 -d -1 -p cbr -e 210 -c 2 -a 0 -i 64 -k AGT
+ -t 0.179200000 -s 3 -d -1 -p cbr -e 210 -c 2 -a 0 -i 65 -k AGT 
- -t 0.179200000 -s 3 -d -1 -p cbr -e 210 -c 2 -a 0 -i 65 -k AGT
h -t 0.179200000 -s 3 -d -1 -p cbr -e 210 -c 2 -a 0 -i 65 -k AGT
+ -t 0.184800000 -s 0 -d -1 -p cbr -e 210 -c 2 -a 0 -i 66 -k AGT 
- -t 0.184800000 -s 0 -d -1 -p cbr -e 210 -c 2 -a 0 -i 66 -k AGT
h -t 0.184800000 -s 0 -d -1 -p cbr -e 210 -c 2 -a 0 -i 66 -k AGT
+ -t 0.184800000 -s 3 -d -1 -p cbr -e 210 -c 2 -a 0 -i 67 -k AGT 
- -t 0.184800000 -s 3 -d -1 -p cbr -e 210 -c 2 -a 0 -i 67 -k AGT
h -t 0.184800000 -s 3 -d -1 -p cbr -e 210 -c 2 -a 0 -i 67 -k AGT
r -t 0.187153400 -s 4 -d 4 -p cbr -e 230 -c 2 -a 0 -i 25 -k AGT
r -t 0.187153767 -s 2 -d 2 -p cbr -e 230 -c 2 -a 0 -i 36 -k AGT
+ -t 0.190400000 -s 0 -d -1 -p cbr -e 210 -c 2 -a 0 -i 68 -k AGT 
- -t 0.190400000 -s 0 -d -1 -p cbr -e 210 -c 2 -a 0 -i 68 -k AGT
h -t 0.190400000 -s 0 -d -1 -p cbr -e 210 -c 2 -a 0 -i 68 -k AGT
+ -t 0.190400000 -s 3 -d -1 -p cbr -e 210 -c 2 -a 0 -i 69 -k AGT 
- -t 0.190400000 -s 3 -d -1 -p cbr -e 210 -c 2 -a 0 -i 69 -k AGT
h -t 0.190400000 -s 3 -d -1 -p cbr -e 210 -c 2 -a 0 -i 69 -k AGT
+ -t 0.196000000 -s 0 -d -1 -p cbr -e 210 -c 2 -a 0 -i 70 -k AGT 
- -t 0.196000000 -s 0 -d -1 -p cbr -e 210 -c 2 -a 0 -i 70 -k AGT
h -t 0.196000000 -s 0 -d -1 -p cbr -e 210 -c 2 -a 0 -i 70 -k AGT
+ -t 0.196000000 -s 3 -d -1 -p cbr -e 210 -c 2 -a 0 -i 71 -k AGT 
- -t 0.196000000 -s 3 -d -1 -p cbr -e 210 -c 2 -a 0 -i 71 -k AGT
h -t 0.196000000 -s 3 -d -1 -p cbr -e 210 -c 2 -a 0 -i 71 -k AGT
+ -t 0.201600000 -s 0 -d -1 -p cbr -e 210 -c 2 -a 0 -i 72 -k AGT 
- -t 0.201600000 -s 0 -d -1 -p cbr -e 210 -c 2 -a 0 -i 72 -k AGT
h -t 0.201600000 -s 0 -d -1 -p cbr -e 210 -c 2 -a 0 -i 72 -k AGT
+ -t 0.201600000 -s 3 -d -1 -p cbr -e 210 -c 2 -a 0 -i 73 -k AGT 
- -t 0.201600000 -s 3 -d -1 -p cbr -e 210 -c 2 -a 0 -i 73 -k AGT
h -t 0.201600000 -s 3 -d -1 -p cbr -e 210 -c 2 -a 0 -i 73 -k AGT
+ -t 0.207200000 -s 0 -d -1 -p cbr -e 210 -c 2 -a 0 -i 74 -k AGT 
- -t 0.207200000 -s 0 -d -1 -p cbr -e 210 -c 2 -a 0 -i 74 -k AGT
h -t 0.207200000 -s 0 -d -1 -p cbr -e 210 -c 2 -a 0 -i 74 -k AGT
+ -t 0.207200000 -s 3 -d -1 -p cbr -e 210 -c 2 -a 0 -i 75 -k AGT 
- -t 0.207200000 -s 3 -d -1 -p cbr -e 210 -c 2 -a 0 -i 75 -k AGT
h -t 0.207200000 -s 3 -d -1 -p cbr -e 210 -c 2 -a 0 -i 75 -k AGT
r -t 0.211153400 -s 4 -d 4 -p cbr -e 230 -c 2 -a 0 -i 5 -k AGT
r -t 0.211153767 -s 2 -d 2 -p cbr -e 230 -c 2 -a 0 -i 38 -k AGT
+ -t 0.212800000 -s 0 -d -1 -p cbr -e 210 -c 2 -a 0 -i 76 -k AGT 
- -t 0.212800000 -s 0 -d -1 -p cbr -e 210 -c 2 -a 0 -i 76 -k AGT
h -t 0.212800000 -s 0 -d -1 -p cbr -e 210 -c 2 -a 0 -i 76 -k AGT
+ -t 0.212800000 -s 3 -d -1 -p cbr -e 210 -c 2 -a 0 -i 77 -k AGT 
- -t 0.212800000 -s 3 -d -1 -p cbr -e 210 -c 2 -a 0 -i 77 -k AGT
h -t 0.212800000 -s 3 -d -1 -p cbr -e 210 -c 2 -a 0 -i 77 -k AGT
+ -t 0.218400000 -s 0 -d -1 -p cbr -e 210 -c 2 -a 0 -i 78 -k AGT 
- -t 0.218400000 -s 0 -d -1 -p cbr -e 210 -c 2 -a 0 -i 78 -k AGT
h -t 0.218400000 -s 0 -d -1 -p cbr -e 210 -c 2 -a 0 -i 78 -k AGT
+ -t 0.218400000 -s 3 -d -1 -p cbr -e 210 -c 2 -a 0 -i 79 -k AGT 
- -t 0.218400000 -s 3 -d -1 -p cbr -e 210 -c 2 -a 0 -i 79 -k AGT
h -t 0.218400000 -s 3 -d -1 -p cbr -e 210 -c 2 -a 0 -i 79 -k AGT
+ -t 0.224000000 -s 0 -d -1 -p cbr -e 210 -c 2 -a 0 -i 80 -k AGT 
- -t 0.224000000 -s 0 -d -1 -p cbr -e 210 -c 2 -a 0 -i 80 -k AGT
h -t 0.224000000 -s 0 -d -1 -p cbr -e 210 -c 2 -a 0 -i 80 -k AGT
+ -t 0.224000000 -s 3 -d -1 -p cbr -e 210 -c 2 -a 0 -i 81 -k AGT 
- -t 0.224000000 -s 3 -d -1 -p cbr -e 210 -c 2 -a 0 -i 81 -k AGT
h -t 0.224000000 -s 3 -d -1 -p cbr -e 210 -c 2 -a 0 -i 81 -k AGT
+ -t 0.229600000 -s 0 -d -1 -p cbr -e 210 -c 2 -a 0 -i 82 -k AGT 
- -t 0.229600000 -s 0 -d -1 -p cbr -e 210 -c 2 -a 0 -i 82 -k AGT
h -t 0.229600000 -s 0 -d -1 -p cbr -e 210 -c 2 -a 0 -i 82 -k AGT
+ -t 0.229600000 -s 3 -d -1 -p cbr -e 210 -c 2 -a 0 -i 83 -k AGT 
- -t 0.229600000 -s 3 -d -1 -p cbr -e 210 -c 2 -a 0 -i 83 -k AGT
h -t 0.229600000 -s 3 -d -1 -p cbr -e 210 -c 2 -a 0 -i 83 -k AGT
r -t 0.235153400 -s 4 -d 4 -p cbr -e 230 -c 2 -a 0 -i 27 -k AGT
r -t 0.235153767 -s 2 -d 2 -p cbr -e 230 -c 2 -a 0 -i 4 -k AGT
+ -t 0.235200000 -s 0 -d -1 -p cbr -e 210 -c 2 -a 0 -i 84 -k AGT 
- -t 0.235200000 -s 0 -d -1 -p cbr -e 210 -c 2 -a 0 -i 84 -k AGT
h -t 0.235200000 -s 0 -d -1 -p cbr -e 210 -c 2 -a 0 -i 84 -k AGT
+ -t 0.235200000 -s 3 -d -1 -p cbr -e 210 -c 2 -a 0 -i 85 -k AGT 
- -t 0.235200000 -s 3 -d -1 -p cbr -e 210 -c 2 -a 0 -i 85 -k AGT
h -t 0.235200000 -s 3 -d -1 -p cbr -e 210 -c 2 -a 0 -i 85 -k AGT
+ -t 0.240800000 -s 0 -d -1 -p cbr -e 210 -c 2 -a 0 -i 86 -k AGT 
- -t 0.240800000 -s 0 -d -1 -p cbr -e 210 -c 2 -a 0 -i 86 -k AGT
h -t 0.240800000 -s 0 -d -1 -p cbr -e 210 -c 2 -a 0 -i 86 -k AGT
+ -t 0.240800000 -s 3 -d -1 -p cbr -e 210 -c 2 -a 0 -i 87 -k AGT 
- -t 0.240800000 -s 3 -d -1 -p cbr -e 210 -c 2 -a 0 -i 87 -k AGT
h -t 0.240800000 -s 3 -d -1 -p cbr -e 210 -c 2 -a 0 -i 87 -k AGT
+ -t 0.246400000 -s 0 -d -1 -p cbr -e 210 -c 2 -a 0 -i 88 -k AGT 
- -t 0.246400000 -s 0 -d -1 -p cbr -e 210 -c 2 -a 0 -i 88 -k AGT
h -t 0.246400000 -s 0 -d -1 -p cbr -e 210 -c 2 -a 0 -i 88 -k AGT
+ -t 0.246400000 -s 3 -d -1 -p cbr -e 210 -c 2 -a 0 -i 89 -k AGT 
- -t 0.246400000 -s 3 -d -1 -p cbr -e 210 -c 2 -a 0 -i 89 -k AGT
h -t 0.246400000 -s 3 -d -1 -p cbr -e 210 -c 2 -a 0 -i 89 -k AGT
+ -t 0.252000000 -s 0 -d -1 -p cbr -e 210 -c 2 -a 0 -i 90 -k AGT 
- -t 0.252000000 -s 0 -d -1 -p cbr -e 210 -c 2 -a 0 -i 90 -k AGT
h -t 0.252000000 -s 0 -d -1 -p cbr -e 210 -c 2 -a 0 -i 90 -k AGT
+ -t 0.252000000 -s 3 -d -1 -p cbr -e 210 -c 2 -a 0 -i 91 -k AGT 
- -t 0.252000000 -s 3 -d -1 -p cbr -e 210 -c 2 -a 0 -i 91 -k AGT
h -t 0.252000000 -s 3 -d -1 -p cbr -e 210 -c 2 -a 0 -i 91 -k AGT
+ -t 0.257600000 -s 0 -d -1 -p cbr -e 210 -c 2 -a 0 -i 92 -k AGT 
- -t 0.257600000 -s 0 -d -1 -p cbr -e 210 -c 2 -a 0 -i 92 -k AGT
h -t 0.257600000 -s 0 -d -1 -p cbr -e 210 -c 2 -a 0 -i 92 -k AGT
+ -t 0.257600000 -s 3 -d -1 -p cbr -e 210 -c 2 -a 0 -i 93 -k AGT 
- -t 0.257600000 -s 3 -d -1 -p cbr -e 210 -c 2 -a 0 -i 93 -k AGT
h -t 0.257600000 -s 3 -d -1 -p cbr -e 210 -c 2 -a 0 -i 93 -k AGT
r -t 0.259153400 -s 4 -d 4 -p cbr -e 230 -c 2 -a 0 -i 29 -k AGT
r -t 0.259153767 -s 2 -d 2 -p cbr -e 230 -c 2 -a 0 -i 40 -k AGT
+ -t 0.263200000 -s 0 -d -1 -p cbr -e 210 -c 2 -a 0 -i 94 -k AGT 
- -t 0.263200000 -s 0 -d -1 -p cbr -e 210 -c 2 -a 0 -i 94 -k AGT
h -t 0.263200000 -s 0 -d -1 -p cbr -e 210 -c 2 -a 0 -i 94 -k AGT
+ -t 0.263200000 -s 3 -d -1 -p cbr -e 210 -c 2 -a 0 -i 95 -k AGT 
- -t 0.263200000 -s 3 -d -1 -p cbr -e 210 -c 2 -a 0 -i 95 -k AGT
h -t 0.263200000 -s 3 -d -1 -p cbr -e 210 -c 2 -a 0 -i 95 -k AGT
+ -t 0.268800000 -s 0 -d -1 -p cbr -e 210 -c 2 -a 0 -i 96 -k AGT 
- -t 0.268800000 -s 0 -d -1 -p cbr -e 210 -c 2 -a 0 -i 96 -k AGT
h -t 0.268800000 -s 0 -d -1 -p cbr -e 210 -c 2 -a 0 -i 96 -k AGT
+ -t 0.268800000 -s 3 -d -1 -p cbr -e 210 -c 2 -a 0 -i 97 -k AGT 
- -t 0.268800000 -s 3 -d -1 -p cbr -e 210 -c 2 -a 0 -i 97 -k AGT
h -t 0.268800000 -s 3 -d -1 -p cbr -e 210 -c 2 -a 0 -i 97 -k AGT
+ -t 0.274400000 -s 0 -d -1 -p cbr -e 210 -c 2 -a 0 -i 98 -k AGT 
- -t 0.274400000 -s 0 -d -1 -p cbr -e 210 -c 2 -a 0 -i 98 -k AGT
h -t 0.274400000 -s 0 -d -1 -p cbr -e 210 -c 2 -a 0 -i 98 -k AGT
+ -t 0.274400000 -s 3 -d -1 -p cbr -e 210 -c 2 -a 0 -i 99 -k AGT 
- -t 0.274400000 -s 3 -d -1 -p cbr -e 210 -c 2 -a 0 -i 99 -k AGT
h -t 0.274400000 -s 3 -d -1 -p cbr -e 210 -c 2 -a 0 -i 99 -k AGT
+ -t 0.280000000 -s 0 -d -1 -p cbr -e 210 -c 2 -a 0 -i 100 -k AGT 
- -t 0.280000000 -s 0 -d -1 -p cbr -e 210 -c 2 -a 0 -i 100 -k AGT
h -t 0.280000000 -s 0 -d -1 -p cbr -e 210 -c 2 -a 0 -i 100 -k AGT
+ -t 0.280000000 -s 3 -d -1 -p cbr -e 210 -c 2 -a 0 -i 101 -k AGT 
- -t 0.280000000 -s 3 -d -1 -p cbr -e 210 -c 2 -a 0 -i 101 -k AGT
h -t 0.280000000 -s 3 -d -1 -p cbr -e 210 -c 2 -a 0 -i 101 -k AGT
r -t 0.283153400 -s 4 -d 4 -p cbr -e 230 -c 2 -a 0 -i 7 -k AGT
r -t 0.283153767 -s 2 -d 2 -p cbr -e 230 -c 2 -a 0 -i 42 -k AGT
+ -t 0.285600000 -s 0 -d -1 -p cbr -e 210 -c 2 -a 0 -i 102 -k AGT 
- -t 0.285600000 -s 0 -d -1 -p cbr -e 210 -c 2 -a 0 -i 102 -k AGT
h -t 0.285600000 -s 0 -d -1 -p cbr -e 210 -c 2 -a 0 -i 102 -k AGT
+ -t 0.285600000 -s 3 -d -1 -p cbr -e 210 -c 2 -a 0 -i 103 -k AGT 
- -t 0.285600000 -s 3 -d -1 -p cbr -e 210 -c 2 -a 0 -i 103 -k AGT
h -t 0.285600000 -s 3 -d -1 -p cbr -e 210 -c 2 -a 0 -i 103 -k AGT
+ -t 0.291200000 -s 0 -d -1 -p cbr -e 210 -c 2 -a 0 -i 104 -k AGT 
- -t 0.291200000 -s 0 -d -1 -p cbr -e 210 -c 2 -a 0 -i 104 -k AGT
h -t 0.291200000 -s 0 -d -1 -p cbr -e 210 -c 2 -a 0 -i 104 -k AGT
+ -t 0.291200000 -s 3 -d -1 -p cbr -e 210 -c 2 -a 0 -i 105 -k AGT 
- -t 0.291200000 -s 3 -d -1 -p cbr -e 210 -c 2 -a 0 -i 105 -k AGT
h -t 0.291200000 -s 3 -d -1 -p cbr -e 210 -c 2 -a 0 -i 105 -k AGT
+ -t 0.296800000 -s 0 -d -1 -p cbr -e 210 -c 2 -a 0 -i 106 -k AGT 
- -t 0.296800000 -s 0 -d -1 -p cbr -e 210 -c 2 -a 0 -i 106 -k AGT
h -t 0.296800000 -s 0 -d -1 -p cbr -e 210 -c 2 -a 0 -i 106 -k AGT
+ -t 0.296800000 -s 3 -d -1 -p cbr -e 210 -c 2 -a 0 -i 107 -k AGT 
- -t 0.296800000 -s 3 -d -1 -p cbr -e 210 -c 2 -a 0 -i 107 -k AGT
h -t 0.296800000 -s 3 -d -1 -p cbr -e 210 -c 2 -a 0 -i 107 -k AGT
+ -t 0.302400000 -s 0 -d -1 -p cbr -e 210 -c 2 -a 0 -i 108 -k AGT 
- -t 0.302400000 -s 0 -d -1 -p cbr -e 210 -c 2 -a 0 -i 108 -k AGT
h -t 0.302400000 -s 0 -d -1 -p cbr -e 210 -c 2 -a 0 -i 108 -k AGT
+ -t 0.302400000 -s 3 -d -1 -p cbr -e 210 -c 2 -a 0 -i 109 -k AGT 
- -t 0.302400000 -s 3 -d -1 -p cbr -e 210 -c 2 -a 0 -i 109 -k AGT
h -t 0.302400000 -s 3 -d -1 -p cbr -e 210 -c 2 -a 0 -i 109 -k AGT
r -t 0.307153400 -s 4 -d 4 -p cbr -e 230 -c 2 -a 0 -i 31 -k AGT
r -t 0.307153767 -s 2 -d 2 -p cbr -e 230 -c 2 -a 0 -i 6 -k AGT
+ -t 0.308000000 -s 0 -d -1 -p cbr -e 210 -c 2 -a 0 -i 110 -k AGT 
- -t 0.308000000 -s 0 -d -1 -p cbr -e 210 -c 2 -a 0 -i 110 -k AGT
h -t 0.308000000 -s 0 -d -1 -p cbr -e 210 -c 2 -a 0 -i 110 -k AGT
+ -t 0.308000000 -s 3 -d -1 -p cbr -e 210 -c 2 -a 0 -i 111 -k AGT 
- -t 0.308000000 -s 3 -d -1 -p cbr -e 210 -c 2 -a 0 -i 111 -k AGT
h -t 0.308000000 -s 3 -d -1 -p cbr -e 210 -c 2 -a 0 -i 111 -k AGT
+ -t 0.313600000 -s 0 -d -1 -p cbr -e 210 -c 2 -a 0 -i 112 -k AGT 
- -t 0.313600000 -s 0 -d -1 -p cbr -e 210 -c 2 -a 0 -i 112 -k AGT
h -t 0.313600000 -s 0 -d -1 -p cbr -e 210 -c 2 -a 0 -i 112 -k AGT
+ -t 0.313600000 -s 3 -d -1 -p cbr -e 210 -c 2 -a 0 -i 113 -k AGT 
- -t 0.313600000 -s 3 -d -1 -p cbr -e 210 -c 2 -a 0 -i 113 -k AGT
h -t 0.313600000 -s 3 -d -1 -p cbr -e 210 -c 2 -a 0 -i 113 -k AGT
+ -t 0.319200000 -s 0 -d -1 -p cbr -e 210 -c 2 -a 0 -i 114 -k AGT 
- -t 0.319200000 -s 0 -d -1 -p cbr -e 210 -c 2 -a 0 -i 114 -k AGT
h -t 0.319200000 -s 0 -d -1 -p cbr -e 210 -c 2 -a 0 -i 114 -k AGT
+ -t 0.319200000 -s 3 -d -1 -p cbr -e 210 -c 2 -a 0 -i 115 -k AGT 
- -t 0.319200000 -s 3 -d -1 -p cbr -e 210 -c 2 -a 0 -i 115 -k AGT
h -t 0.319200000 -s 3 -d -1 -p cbr -e 210 -c 2 -a 0 -i 115 -k AGT
+ -t 0.324800000 -s 0 -d -1 -p cbr -e 210 -c 2 -a 0 -i 116 -k AGT 
- -t 0.324800000 -s 0 -d -1 -p cbr -e 210 -c 2 -a 0 -i 116 -k AGT
h -t 0.324800000 -s 0 -d -1 -p cbr -e 210 -c 2 -a 0 -i 116 -k AGT
+ -t 0.324800000 -s 3 -d -1 -p cbr -e 210 -c 2 -a 0 -i 117 -k AGT 
- -t 0.324800000 -s 3 -d -1 -p cbr -e 210 -c 2 -a 0 -i 117 -k AGT
h -t 0.324800000 -s 3 -d -1 -p cbr -e 210 -c 2 -a 0 -i 117 -k AGT
+ -t 0.330400000 -s 0 -d -1 -p cbr -e 210 -c 2 -a 0 -i 118 -k AGT 
- -t 0.330400000 -s 0 -d -1 -p cbr -e 210 -c 2 -a 0 -i 118 -k AGT
h -t 0.330400000 -s 0 -d -1 -p cbr -e 210 -c 2 -a 0 -i 118 -k AGT
+ -t 0.330400000 -s 3 -d -1 -p cbr -e 210 -c 2 -a 0 -i 119 -k AGT 
- -t 0.330400000 -s 3 -d -1 -p cbr -e 210 -c 2 -a 0 -i 119 -k AGT
h -t 0.330400000 -s 3 -d -1 -p cbr -e 210 -c 2 -a 0 -i 119 -k AGT
r -t 0.331153400 -s 4 -d 4 -p cbr -e 230 -c 2 -a 0 -i 9 -k AGT
r -t 0.331153767 -s 2 -d 2 -p cbr -e 230 -c 2 -a 0 -i 44 -k AGT
+ -t 0.336000000 -s 0 -d -1 -p cbr -e 210 -c 2 -a 0 -i 120 -k AGT 
- -t 0.336000000 -s 0 -d -1 -p cbr -e 210 -c 2 -a 0 -i 120 -k AGT
h -t 0.336000000 -s 0 -d -1 -p cbr -e 210 -c 2 -a 0 -i 120 -k AGT
+ -t 0.336000000 -s 3 -d -1 -p cbr -e 210 -c 2 -a 0 -i 121 -k AGT 
- -t 0.336000000 -s 3 -d -1 -p cbr -e 210 -c 2 -a 0 -i 121 -k AGT
h -t 0.336000000 -s 3 -d -1 -p cbr -e 210 -c 2 -a 0 -i 121 -k AGT
d -t 0.336025000 -s 0 -d 1 -p cbr -e 230 -c 2 -a 0 -i 120 -k IFQ
+ -t 0.341600000 -s 0 -d -1 -p cbr -e 210 -c 2 -a 0 -i 122 -k AGT 
- -t 0.341600000 -s 0 -d -1 -p cbr -e 210 -c 2 -a 0 -i 122 -k AGT
h -t 0.341600000 -s 0 -d -1 -p cbr -e 210 -c 2 -a 0 -i 122 -k AGT
+ -t 0.341600000 -s 3 -d -1 -p cbr -e 210 -c 2 -a 0 -i 123 -k AGT 
- -t 0.341600000 -s 3 -d -1 -p cbr -e 210 -c 2 -a 0 -i 123 -k AGT
h -t 0.341600000 -s 3 -d -1 -p cbr -e 210 -c 2 -a 0 -i 123 -k AGT
d -t 0.341625000 -s 0 -d 1 -p cbr -e 230 -c 2 -a 0 -i 122 -k IFQ
+ -t 0.347200000 -s 0 -d -1 -p cbr -e 210 -c 2 -a 0 -i 124 -k AGT 
- -t 0.347200000 -s 0 -d -1 -p cbr -e 210 -c 2 -a 0 -i 124 -k AGT
h -t 0.347200000 -s 0 -d -1 -p cbr -e 210 -c 2 -a 0 -i 124 -k AGT
+ -t 0.347200000 -s 3 -d -1 -p cbr -e 210 -c 2 -a 0 -i 125 -k AGT 
- -t 0.347200000 -s 3 -d -1 -p cbr -e 210 -c 2 -a 0 -i 125 -k AGT
h -t 0.347200000 -s 3 -d -1 -p cbr -e 210 -c 2 -a 0 -i 125 -k AGT
d -t 0.347225000 -s 0 -d 1 -p cbr -e 230 -c 2 -a 0 -i 124 -k IFQ
d -t 0.347225000 -s 3 -d 4 -p cbr -e 230 -c 2 -a 0 -i 125 -k IFQ
+ -t 0.352800000 -s 0 -d -1 -p cbr -e 210 -c 2 -a 0 -i 126 -k AGT 
- -t 0.352800000 -s 0 -d -1 -p cbr -e 210 -c 2 -a 0 -i 126 -k AGT
h -t 0.352800000 -s 0 -d -1 -p cbr -e 210 -c 2 -a 0 -i 126 -k AGT
+ -t 0.352800000 -s 3 -d -1 -p cbr -e 210 -c 2 -a 0 -i 127 -k AGT 
- -t 0.352800000 -s 3 -d -1 -p cbr -e 210 -c 2 -a 0 -i 127 -k AGT
h -t 0.352800000 -s 3 -d -1 -p cbr -e 210 -c 2 -a 0 -i 127 -k AGT
d -t 0.352825000 -s 3 -d 4 -p cbr -e 230 -c 2 -a 0 -i 127 -k IFQ
r -t 0.355153400 -s 4 -d 4 -p cbr -e 230 -c 2 -a 0 -i 33 -k AGT
r -t 0.355153767 -s 2 -d 2 -p cbr -e 230 -c 2 -a 0 -i 46 -k AGT
+ -t 0.358400000 -s 0 -d -1 -p cbr -e 210 -c 2 -a 0 -i 128 -k AGT 
- -t 0.358400000 -s 0 -d -1 -p cbr -e 210 -c 2 -a 0 -i 128 -k AGT
h -t 0.358400000 -s 0 -d -1 -p cbr -e 210 -c 2 -a 0 -i 128 -k AGT
+ -t 0.358400000 -s 3 -d -1 -p cbr -e 210 -c 2 -a 0 -i 129 -k AGT 
- -t 0.358400000 -s 3 -d -1 -p cbr -e 210 -c 2 -a 0 -i 129 -k AGT
h -t 0.358400000 -s 3 -d -1 -p cbr -e 210 -c 2 -a 0 -i 129 -k AGT
d -t 0.358425000 -s 0 -d 1 -p cbr -e 230 -c 2 -a 0 -i 128 -k IFQ
+ -t 0.364000000 -s 0 -d -1 -p cbr -e 210 -c 2 -a 0 -i 130 -k AGT 
- -t 0.364000000 -s 0 -d -1 -p cbr -e 210 -c 2 -a 0 -i 130 -k AGT
h -t 0.364000000 -s 0 -d -1 -p cbr -e 210 -c 2 -a 0 -i 130 -k AGT
+ -t 0.364000000 -s 3 -d -1 -p cbr -e 210 -c 2 -a 0 -i 131 -k AGT 
- -t 0.364000000 -s 3 -d -1 -p cbr -e 210 -c 2 -a 0 -i 131 -k AGT
h -t 0.364000000 -s 3 -d -1 -p cbr -e 210 -c 2 -a 0 -i 131 -k AGT
d -t 0.364025000 -s 0 -d 1 -p cbr -e 230 -c 2 -a 0 -i 130 -k IFQ
d -t 0.364025000 -s 3 -d 4 -p cbr -e 230 -c 2 -a 0 -i 131 -k IFQ
+ -t 0.369600000 -s 0 -d -1 -p cbr -e 210 -c 2 -a 0 -i 132 -k AGT 
- -t 0.369600000 -s 0 -d -1 -p cbr -e 210 -c 2 -a 0 -i 132 -k AGT
h -t 0.369600000 -s 0 -d -1 -p cbr -e 210 -c 2 -a 0 -i 132 -k AGT
+ -t 0.369600000 -s 3 -d -1 -p cbr -e 210 -c 2 -a 0 -i 133 -k AGT 
- -t 0.369600000 -s 3 -d -1 -p cbr -e 210 -c 2 -a 0 -i 133 -k AGT
h -t 0.369600000 -s 3 -d -1 -p cbr -e 210 -c 2 -a 0 -i 133 -k AGT
d -t 0.369625000 -s 0 -d 1 -p cbr -e 230 -c 2 -a 0 -i 132 -k IFQ
d -t 0.369625000 -s 3 -d 4 -p cbr -e 230 -c 2 -a 0 -i 133 -k IFQ
+ -t 0.375200000 -s 0 -d -1 -p cbr -e 210 -c 2 -a 0 -i 134 -k AGT 
- -t 0.375200000 -s 0 -d -1 -p cbr -e 210 -c 2 -a 0 -i 134 -k AGT
h -t 0.375200000 -s 0 -d -1 -p cbr -e 210 -c 2 -a 0 -i 134 -k AGT
+ -t 0.375200000 -s 3 -d -1 -p cbr -e 210 -c 2 -a 0 -i 135 -k AGT 
- -t 0.375200000 -s 3 -d -1 -p cbr -e 210 -c 2 -a 0 -i 135 -k AGT
h -t 0.375200000 -s 3 -d -1 -p cbr -e 210 -c 2 -a 0 -i 135 -k AGT
d -t 0.375225000 -s 3 -d 4 -p cbr -e 230 -c 2 -a 0 -i 135 -k IFQ
r -t 0.379153400 -s 4 -d 4 -p cbr -e 230 -c 2 -a 0 -i 35 -k AGT
r -t 0.379153767 -s 2 -d 2 -p cbr -e 230 -c 2 -a 0 -i 8 -k AGT
+ -t 0.380800000 -s 0 -d -1 -p cbr -e 210 -c 2 -a 0 -i 136 -k AGT 
- -t 0.380800000 -s 0 -d -1 -p cbr -e 210 -c 2 -a 0 -i 136 -k AGT
h -t 0.380800000 -s 0 -d -1 -p cbr -e 210 -c 2 -a 0 -i 136 -k AGT
+ -t 0.380800000 -s 3 -d -1 -p cbr -e 210 -c 2 -a 0 -i 137 -k AGT 
- -t 0.380800000 -s 3 -d -1 -p cbr -e 210 -c 2 -a 0 -i 137 -k AGT
h -t 0.380800000 -s 3 -d -1 -p cbr -e 210 -c 2 -a 0 -i 137 -k AGT
d -t 0.380825000 -s 0 -d 1 -p cbr -e 230 -c 2 -a 0 -i 136 -k IFQ