s 0.000000000 _0_ RTR  --- 0 AODV 44 [0 0 0 0] ------- [0:255 -1:255 1 0] [0x1 1 [0 2] 4.000000] (HELLO)
s 0.000000000 _1_ RTR  --- 0 AODV 44 [0 0 0 0] ------- [1:255 -1:255 1 0] [0x1 1 [1 2] 4.000000] (HELLO)
s 0.000000000 _2_ RTR  --- 0 AODV 44 [0 0 0 0] ------- [2:255 -1:255 1 0] [0x1 1 [2 2] 4.000000] (HELLO)
s 0.000000000 _3_ RTR  --- 0 AODV 44 [0 0 0 0] ------- [3:255 -1:255 1 0] [0x1 1 [3 2] 4.000000] (HELLO)
s 0.000000000 _4_ RTR  --- 0 AODV 44 [0 0 0 0] ------- [4:255 -1:255 1 0] [0x1 1 [4 2] 4.000000] (HELLO)
s 0.000000000 _5_ RTR  --- 0 AODV 44 [0 0 0 0] ------- [5:255 -1:255 1 0] [0x1 1 [5 2] 4.000000] (HELLO)
s 0.000000000 _6_ RTR  --- 0 AODV 44 [0 0 0 0] ------- [6:255 -1:255 1 0] [0x1 1 [6 2] 4.000000] (HELLO)
s 0.000000000 _7_ RTR  --- 0 AODV 44 [0 0 0 0] ------- [7:255 -1:255 1 0] [0x1 1 [7 2] 4.000000] (HELLO)
s 0.000000000 _8_ RTR  --- 0 AODV 44 [0 0 0 0] ------- [8:255 -1:255 1 0] [0x1 1 [8 2] 4.000000] (HELLO)
s 0.000000000 _9_ RTR  --- 0 AODV 44 [0 0 0 0] ------- [9:255 -1:255 1 0] [0x1 1 [9 2] 4.000000] (HELLO)
s 0.000000000 _10_ RTR  --- 0 AODV 44 [0 0 0 0] ------- [10:255 -1:255 1 0] [0x1 1 [10 2] 4.000000] (HELLO)
s 0.000000000 _11_ RTR  --- 0 AODV 44 [0 0 0 0] ------- [11:255 -1:255 1 0] [0x1 1 [11 2] 4.000000] (HELLO)
s 0.000000000 _12_ RTR  --- 0 AODV 44 [0 0 0 0] ------- [12:255 -1:255 1 0] [0x1 1 [12 2] 4.000000] (HELLO)
s 0.000000000 _13_ RTR  --- 0 AODV 44 [0 0 0 0] ------- [13:255 -1:255 1 0] [0x1 1 [13 2] 4.000000] (HELLO)
s 0.000000000 _14_ RTR  --- 0 AODV 44 [0 0 0 0] ------- [14:255 -1:255 1 0] [0x1 1 [14 2] 4.000000] (HELLO)
s 0.000000000 _15_ RTR  --- 0 AODV 44 [0 0 0 0] ------- [15:255 -1:255 1 0] [0x1 1 [15 2] 4.000000] (HELLO)
s 0.000000000 _16_ RTR  --- 0 AODV 44 [0 0 0 0] ------- [16:255 -1:255 1 0] [0x1 1 [16 2] 4.000000] (HELLO)
s 0.000000000 _17_ RTR  --- 0 AODV 44 [0 0 0 0] ------- [17:255 -1:255 1 0] [0x1 1 [17 2] 4.000000] (HELLO)
s 0.000000000 _18_ RTR  --- 0 AODV 44 [0 0 0 0] ------- [18:255 -1:255 1 0] [0x1 1 [18 2] 4.000000] (HELLO)
s 0.000000000 _19_ RTR  --- 0 AODV 44 [0 0 0 0] ------- [19:255 -1:255 1 0] [0x1 1 [19 2] 4.000000] (HELLO)
s 0.000000000 _20_ RTR  --- 0 AODV 44 [0 0 0 0] ------- [20:255 -1:255 1 0] [0x1 1 [20 2] 4.000000] (HELLO)
s 0.000000000 _21_ RTR  --- 0 AODV 44 [0 0 0 0] ------- [21:255 -1:255 1 0] [0x1 1 [21 2] 4.000000] (HELLO)
s 0.000000000 _22_ RTR  --- 0 AODV 44 [0 0 0 0] ------- [22:255 -1:255 1 0] [0x1 1 [22 2] 4.000000] (HELLO)
s 0.000000000 _23_ RTR  --- 0 AODV 44 [0 0 0 0] ------- [23:255 -1:255 1 0] [0x1 1 [23 2] 4.000000] (HELLO)
s 0.000000000 _24_ RTR  --- 0 AODV 44 [0 0 0 0] ------- [24:255 -1:255 1 0] [0x1 1 [24 2] 4.000000] (HELLO)
s 0.750169789 _0_ RTR  --- 0 AODV 44 [0 0 0 0] ------- [0:255 -1:255 1 0] [0x1 1 [0 2] 4.000000] (HELLO)
s 0.757102330 _2_ RTR  --- 0 AODV 44 [0 0 0 0] ------- [2:255 -1:255 1 0] [0x1 1 [2 2] 4.000000] (HELLO)
r 0.762409667 _1_ RTR  --- 0 AODV 44 [0 ffffffff 0 0] ------- [0:255 -1:255 1 0] [0x1 1 [0 2] 4.000000] (HELLO)
r 0.762409667 _5_ RTR  --- 0 AODV 44 [0 ffffffff 0 0] ------- [0:255 -1:255 1 0] [0x1 1 [0 2] 4.000000] (HELLO)
r 0.762409667 _3_ RTR  --- 0 AODV 44 [0 ffffffff 2 0] ------- [2:255 -1:255 1 0] [0x1 1 [2 2] 4.000000] (HELLO)
r 0.762409667 _7_ RTR  --- 0 AODV 44 [0 ffffffff 2 0] ------- [2:255 -1:255 1 0] [0x1 1 [2 2] 4.000000] (HELLO)
s 0.771397279 _13_ RTR  --- 0 AODV 44 [0 0 0 0] ------- [13:255 -1:255 1 0] [0x1 1 [13 2] 4.000000] (HELLO)
s 0.794061336 _3_ RTR  --- 0 AODV 44 [0 0 0 0] ------- [3:255 -1:255 1 0] [0x1 1 [3 4] 4.000000] (HELLO)
s 0.797069427 _19_ RTR  --- 0 AODV 44 [0 0 0 0] ------- [19:255 -1:255 1 0] [0x1 1 [19 2] 4.000000] (HELLO)
r 0.804409667 _2_ RTR  --- 0 AODV 44 [0 ffffffff 3 0] ------- [3:255 -1:255 1 0] [0x1 1 [3 4] 4.000000] (HELLO)
r 0.804409667 _4_ RTR  --- 0 AODV 44 [0 ffffffff 3 0] ------- [3:255 -1:255 1 0] [0x1 1 [3 4] 4.000000] (HELLO)
r 0.804409667 _8_ RTR  --- 0 AODV 44 [0 ffffffff 3 0] ------- [3:255 -1:255 1 0] [0x1 1 [3 4] 4.000000] (HELLO)
r 0.804409667 _12_ RTR  --- 0 AODV 44 [0 ffffffff d 0] ------- [13:255 -1:255 1 0] [0x1 1 [13 2] 4.000000] (HELLO)
r 0.804409667 _14_ RTR  --- 0 AODV 44 [0 ffffffff d 0] ------- [13:255 -1:255 1 0] [0x1 1 [13 2] 4.000000] (HELLO)
r 0.804409667 _18_ RTR  --- 0 AODV 44 [0 ffffffff d 0] ------- [13:255 -1:255 1 0] [0x1 1 [13 2] 4.000000] (HELLO)
r 0.804409667 _24_ RTR  --- 0 AODV 44 [0 ffffffff 13 0] ------- [19:255 -1:255 1 0] [0x1 1 [19 2] 4.000000] (HELLO)
s 0.806904124 _15_ RTR  --- 0 AODV 44 [0 0 0 0] ------- [15:255 -1:255 1 0] [0x1 1 [15 2] 4.000000] (HELLO)
s 0.832072703 _12_ RTR  --- 0 AODV 44 [0 0 0 0] ------- [12:255 -1:255 1 0] [0x1 1 [12 4] 4.000000] (HELLO)
s 0.837402627 _18_ RTR  --- 0 AODV 44 [0 0 0 0] ------- [18:255 -1:255 1 0] [0x1 1 [18 4] 4.000000] (HELLO)
r 0.846409667 _11_ RTR  --- 0 AODV 44 [0 ffffffff c 0] ------- [12:255 -1:255 1 0] [0x1 1 [12 4] 4.000000] (HELLO)
r 0.846409667 _7_ RTR  --- 0 AODV 44 [0 ffffffff c 0] ------- [12:255 -1:255 1 0] [0x1 1 [12 4] 4.000000] (HELLO)
r 0.846409667 _13_ RTR  --- 0 AODV 44 [0 ffffffff c 0] ------- [12:255 -1:255 1 0] [0x1 1 [12 4] 4.000000] (HELLO)
r 0.846409667 _17_ RTR  --- 0 AODV 44 [0 ffffffff c 0] ------- [12:255 -1:255 1 0] [0x1 1 [12 4] 4.000000] (HELLO)
r 0.846409667 _10_ RTR  --- 0 AODV 44 [0 ffffffff f 0] ------- [15:255 -1:255 1 0] [0x1 1 [15 2] 4.000000] (HELLO)
r 0.846409667 _16_ RTR  --- 0 AODV 44 [0 ffffffff f 0] ------- [15:255 -1:255 1 0] [0x1 1 [15 2] 4.000000] (HELLO)
r 0.846409667 _20_ RTR  --- 0 AODV 44 [0 ffffffff f 0] ------- [15:255 -1:255 1 0] [0x1 1 [15 2] 4.000000] (HELLO)
r 0.846409667 _19_ RTR  --- 0 AODV 44 [0 ffffffff 12 0] ------- [18:255 -1:255 1 0] [0x1 1 [18 4] 4.000000] (HELLO)
r 0.846409667 _23_ RTR  --- 0 AODV 44 [0 ffffffff 12 0] ------- [18:255 -1:255 1 0] [0x1 1 [18 4] 4.000000] (HELLO)
s 0.867300876 _8_ RTR  --- 0 AODV 44 [0 0 0 0] ------- [8:255 -1:255 1 0] [0x1 1 [8 4] 4.000000] (HELLO)
s 0.879043974 _22_ RTR  --- 0 AODV 44 [0 0 0 0] ------- [22:255 -1:255 1 0] [0x1 1 [22 2] 4.000000] (HELLO)
r 0.888409667 _7_ RTR  --- 0 AODV 44 [0 ffffffff 8 0] ------- [8:255 -1:255 1 0] [0x1 1 [8 4] 4.000000] (HELLO)
r 0.888409667 _3_ RTR  --- 0 AODV 44 [0 ffffffff 8 0] ------- [8:255 -1:255 1 0] [0x1 1 [8 4] 4.000000] (HELLO)
r 0.888409667 _9_ RTR  --- 0 AODV 44 [0 ffffffff 8 0] ------- [8:255 -1:255 1 0] [0x1 1 [8 4] 4.000000] (HELLO)
r 0.888409667 _13_ RTR  --- 0 AODV 44 [0 ffffffff 8 0] ------- [8:255 -1:255 1 0] [0x1 1 [8 4] 4.000000] (HELLO)
r 0.888409667 _21_ RTR  --- 0 AODV 44 [0 ffffffff 16 0] ------- [22:255 -1:255 1 0] [0x1 1 [22 2] 4.000000] (HELLO)
r 0.888409667 _17_ RTR  --- 0 AODV 44 [0 ffffffff 16 0] ------- [22:255 -1:255 1 0] [0x1 1 [22 2] 4.000000] (HELLO)
r 0.888409667 _23_ RTR  --- 0 AODV 44 [0 ffffffff 16 0] ------- [22:255 -1:255 1 0] [0x1 1 [22 2] 4.000000] (HELLO)
s 0.904539529 _10_ RTR  --- 0 AODV 44 [0 0 0 0] ------- [10:255 -1:255 1 0] [0x1 1 [10 4] 4.000000] (HELLO)
s 0.906480886 _6_ RTR  --- 0 AODV 44 [0 0 0 0] ------- [6:255 -1:255 1 0] [0x1 1 [6 2] 4.000000] (HELLO)
s 0.924370513 _21_ RTR  --- 0 AODV 44 [0 0 0 0] ------- [21:255 -1:255 1 0] [0x1 1 [21 4] 4.000000] (HELLO)
r 0.930409667 _5_ RTR  --- 0 AODV 44 [0 ffffffff 6 0] ------- [6:255 -1:255 1 0] [0x1 1 [6 2] 4.000000] (HELLO)
r 0.930409667 _1_ RTR  --- 0 AODV 44 [0 ffffffff 6 0] ------- [6:255 -1:255 1 0] [0x1 1 [6 2] 4.000000] (HELLO)
r 0.930409667 _7_ RTR  --- 0 AODV 44 [0 ffffffff 6 0] ------- [6:255 -1:255 1 0] [0x1 1 [6 2] 4.000000] (HELLO)
r 0.930409667 _11_ RTR  --- 0 AODV 44 [0 ffffffff 6 0] ------- [6:255 -1:255 1 0] [0x1 1 [6 2] 4.000000] (HELLO)
r 0.930409667 _15_ RTR  --- 0 AODV 44 [0 ffffffff a 0] ------- [10:255 -1:255 1 0] [0x1 1 [10 4] 4.000000] (HELLO)
r 0.930409667 _20_ RTR  --- 0 AODV 44 [0 ffffffff 15 0] ------- [21:255 -1:255 1 0] [0x1 1 [21 4] 4.000000] (HELLO)
r 0.930409667 _16_ RTR  --- 0 AODV 44 [0 ffffffff 15 0] ------- [21:255 -1:255 1 0] [0x1 1 [21 4] 4.000000] (HELLO)
r 0.930409667 _22_ RTR  --- 0 AODV 44 [0 ffffffff 15 0] ------- [21:255 -1:255 1 0] [0x1 1 [21 4] 4.000000] (HELLO)
s 0.954342838 _23_ RTR  --- 0 AODV 44 [0 0 0 0] ------- [23:255 -1:255 1 0] [0x1 1 [23 6] 4.000000] (HELLO)
s 0.961828368 _17_ RTR  --- 0 AODV 44 [0 0 0 0] ------- [17:255 -1:255 1 0] [0x1 1 [17 6] 4.000000] (HELLO)
s 0.970586691 _4_ RTR  --- 0 AODV 44 [0 0 0 0] ------- [4:255 -1:255 1 0] [0x1 1 [4 4] 4.000000] (HELLO)
r 0.972409667 _3_ RTR  --- 0 AODV 44 [0 ffffffff 4 0] ------- [4:255 -1:255 1 0] [0x1 1 [4 4] 4.000000] (HELLO)
r 0.972409667 _9_ RTR  --- 0 AODV 44 [0 ffffffff 4 0] ------- [4:255 -1:255 1 0] [0x1 1 [4 4] 4.000000] (HELLO)
r 0.972409667 _16_ RTR  --- 0 AODV 44 [0 ffffffff 11 0] ------- [17:255 -1:255 1 0] [0x1 1 [17 6] 4.000000] (HELLO)
r 0.972409667 _12_ RTR  --- 0 AODV 44 [0 ffffffff 11 0] ------- [17:255 -1:255 1 0] [0x1 1 [17 6] 4.000000] (HELLO)
r 0.972409667 _18_ RTR  --- 0 AODV 44 [0 ffffffff 11 0] ------- [17:255 -1:255 1 0] [0x1 1 [17 6] 4.000000] (HELLO)
r 0.972409667 _22_ RTR  --- 0 AODV 44 [0 ffffffff 11 0] ------- [17:255 -1:255 1 0] [0x1 1 [17 6] 4.000000] (HELLO)
r 0.972409667 _24_ RTR  --- 0 AODV 44 [0 ffffffff 17 0] ------- [23:255 -1:255 1 0] [0x1 1 [23 6] 4.000000] (HELLO)
s 1.009324397 _24_ RTR  --- 0 AODV 44 [0 0 0 0] ------- [24:255 -1:255 1 0] [0x1 1 [24 6] 4.000000] (HELLO)
r 1.014409667 _23_ RTR  --- 0 AODV 44 [0 ffffffff 18 0] ------- [24:255 -1:255 1 0] [0x1 1 [24 6] 4.000000] (HELLO)
r 1.014409667 _19_ RTR  --- 0 AODV 44 [0 ffffffff 18 0] ------- [24:255 -1:255 1 0] [0x1 1 [24 6] 4.000000] (HELLO)
s 1.027940358 _1_ RTR  --- 0 AODV 44 [0 0 0 0] ------- [1:255 -1:255 1 0] [0x1 1 [1 6] 4.000000] (HELLO)
r 1.056409667 _0_ RTR  --- 0 AODV 44 [0 ffffffff 1 0] ------- [1:255 -1:255 1 0] [0x1 1 [1 6] 4.000000] (HELLO)
r 1.056409667 _2_ RTR  --- 0 AODV 44 [0 ffffffff 1 0] ------- [1:255 -1:255 1 0] [0x1 1 [1 6] 4.000000] (HELLO)
r 1.056409667 _6_ RTR  --- 0 AODV 44 [0 ffffffff 1 0] ------- [1:255 -1:255 1 0] [0x1 1 [1 6] 4.000000] (HELLO)
s 1.069432572 _9_ RTR  --- 0 AODV 44 [0 0 0 0] ------- [9:255 -1:255 1 0] [0x1 1 [9 6] 4.000000] (HELLO)
s 1.070033830 _14_ RTR  --- 0 AODV 44 [0 0 0 0] ------- [14:255 -1:255 1 0] [0x1 1 [14 4] 4.000000] (HELLO)
r 1.098409667 _8_ RTR  --- 0 AODV 44 [0 ffffffff 9 0] ------- [9:255 -1:255 1 0] [0x1 1 [9 6] 4.000000] (HELLO)
r 1.098409667 _4_ RTR  --- 0 AODV 44 [0 ffffffff 9 0] ------- [9:255 -1:255 1 0] [0x1 1 [9 6] 4.000000] (HELLO)
r 1.098409667 _13_ RTR  --- 0 AODV 44 [0 ffffffff e 0] ------- [14:255 -1:255 1 0] [0x1 1 [14 4] 4.000000] (HELLO)
r 1.098409667 _19_ RTR  --- 0 AODV 44 [0 ffffffff e 0] ------- [14:255 -1:255 1 0] [0x1 1 [14 4] 4.000000] (HELLO)
s 1.149577727 _5_ RTR  --- 0 AODV 44 [0 0 0 0] ------- [5:255 -1:255 1 0] [0x1 1 [5 6] 4.000000] (HELLO)
s 1.153514277 _20_ RTR  --- 0 AODV 44 [0 0 0 0] ------- [20:255 -1:255 1 0] [0x1 1 [20 6] 4.000000] (HELLO)
s 1.158238026 _7_ RTR  --- 0 AODV 44 [0 0 0 0] ------- [7:255 -1:255 1 0] [0x1 1 [7 10] 4.000000] (HELLO)
s 1.168161768 _11_ RTR  --- 0 AODV 44 [0 0 0 0] ------- [11:255 -1:255 1 0] [0x1 1 [11 6] 4.000000] (HELLO)
s 1.179863849 _16_ RTR  --- 0 AODV 44 [0 0 0 0] ------- [16:255 -1:255 1 0] [0x1 1 [16 8] 4.000000] (HELLO)
r 1.182409667 _0_ RTR  --- 0 AODV 44 [0 ffffffff 5 0] ------- [5:255 -1:255 1 0] [0x1 1 [5 6] 4.000000] (HELLO)
r 1.182409667 _6_ RTR  --- 0 AODV 44 [0 ffffffff 5 0] ------- [5:255 -1:255 1 0] [0x1 1 [5 6] 4.000000] (HELLO)
r 1.182409667 _10_ RTR  --- 0 AODV 44 [0 ffffffff 5 0] ------- [5:255 -1:255 1 0] [0x1 1 [5 6] 4.000000] (HELLO)
r 1.182409667 _2_ RTR  --- 0 AODV 44 [0 ffffffff 7 0] ------- [7:255 -1:255 1 0] [0x1 1 [7 10] 4.000000] (HELLO)
r 1.182409667 _8_ RTR  --- 0 AODV 44 [0 ffffffff 7 0] ------- [7:255 -1:255 1 0] [0x1 1 [7 10] 4.000000] (HELLO)
r 1.182409667 _12_ RTR  --- 0 AODV 44 [0 ffffffff 7 0] ------- [7:255 -1:255 1 0] [0x1 1 [7 10] 4.000000] (HELLO)
r 1.182409667 _15_ RTR  --- 0 AODV 44 [0 ffffffff 10 0] ------- [16:255 -1:255 1 0] [0x1 1 [16 8] 4.000000] (HELLO)
r 1.182409667 _17_ RTR  --- 0 AODV 44 [0 ffffffff 10 0] ------- [16:255 -1:255 1 0] [0x1 1 [16 8] 4.000000] (HELLO)
r 1.182409667 _21_ RTR  --- 0 AODV 44 [0 ffffffff 10 0] ------- [16:255 -1:255 1 0] [0x1 1 [16 8] 4.000000] (HELLO)
s 1.655649157 _19_ RTR  --- 0 AODV 44 [0 0 0 0] ------- [19:255 -1:255 1 0] [0x1 1 [19 8] 4.000000] (HELLO)
s 1.677516938 _15_ RTR  --- 0 AODV 44 [0 0 0 0] ------- [15:255 -1:255 1 0] [0x1 1 [15 6] 4.000000] (HELLO)
r 1.686409667 _10_ RTR  --- 0 AODV 44 [0 ffffffff f 0] ------- [15:255 -1:255 1 0] [0x1 1 [15 6] 4.000000] (HELLO)
r 1.686409667 _16_ RTR  --- 0 AODV 44 [0 ffffffff f 0] ------- [15:255 -1:255 1 0] [0x1 1 [15 6] 4.000000] (HELLO)
r 1.686409667 _20_ RTR  --- 0 AODV 44 [0 ffffffff f 0] ------- [15:255 -1:255 1 0] [0x1 1 [15 6] 4.000000] (HELLO)
r 1.686409667 _18_ RTR  --- 0 AODV 44 [0 ffffffff 13 0] ------- [19:255 -1:255 1 0] [0x1 1 [19 8] 4.000000] (HELLO)
r 1.686409667 _14_ RTR  --- 0 AODV 44 [0 ffffffff 13 0] ------- [19:255 -1:255 1 0] [0x1 1 [19 8] 4.000000] (HELLO)
r 1.686409667 _24_ RTR  --- 0 AODV 44 [0 ffffffff 13 0] ------- [19:255 -1:255 1 0] [0x1 1 [19 8] 4.000000] (HELLO)
s 1.711080122 _6_ RTR  --- 0 AODV 44 [0 0 0 0] ------- [6:255 -1:255 1 0] [0x1 1 [6 6] 4.000000] (HELLO)
r 1.728409667 _5_ RTR  --- 0 AODV 44 [0 ffffffff 6 0] ------- [6:255 -1:255 1 0] [0x1 1 [6 6] 4.000000] (HELLO)
r 1.728409667 _1_ RTR  --- 0 AODV 44 [0 ffffffff 6 0] ------- [6:255 -1:255 1 0] [0x1 1 [6 6] 4.000000] (HELLO)
r 1.728409667 _7_ RTR  --- 0 AODV 44 [0 ffffffff 6 0] ------- [6:255 -1:255 1 0] [0x1 1 [6 6] 4.000000] (HELLO)
r 1.728409667 _11_ RTR  --- 0 AODV 44 [0 ffffffff 6 0] ------- [6:255 -1:255 1 0] [0x1 1 [6 6] 4.000000] (HELLO)
s 1.733227757 _0_ RTR  --- 0 AODV 44 [0 0 0 0] ------- [0:255 -1:255 1 0] [0x1 1 [0 6] 4.000000] (HELLO)
r 1.770409667 _1_ RTR  --- 0 AODV 44 [0 ffffffff 0 0] ------- [0:255 -1:255 1 0] [0x1 1 [0 6] 4.000000] (HELLO)
r 1.770409667 _5_ RTR  --- 0 AODV 44 [0 ffffffff 0 0] ------- [0:255 -1:255 1 0] [0x1 1 [0 6] 4.000000] (HELLO)
s 1.798025459 _23_ RTR  --- 0 AODV 44 [0 0 0 0] ------- [23:255 -1:255 1 0] [0x1 1 [23 8] 4.000000] (HELLO)
r 1.812409667 _22_ RTR  --- 0 AODV 44 [0 ffffffff 17 0] ------- [23:255 -1:255 1 0] [0x1 1 [23 8] 4.000000] (HELLO)
r 1.812409667 _18_ RTR  --- 0 AODV 44 [0 ffffffff 17 0] ------- [23:255 -1:255 1 0] [0x1 1 [23 8] 4.000000] (HELLO)
r 1.812409667 _24_ RTR  --- 0 AODV 44 [0 ffffffff 17 0] ------- [23:255 -1:255 1 0] [0x1 1 [23 8] 4.000000] (HELLO)
s 1.825437999 _14_ RTR  --- 0 AODV 44 [0 0 0 0] ------- [14:255 -1:255 1 0] [0x1 1 [14 6] 4.000000] (HELLO)
s 1.833956016 _1_ RTR  --- 0 AODV 44 [0 0 0 0] ------- [1:255 -1:255 1 0] [0x1 1 [1 6] 4.000000] (HELLO)
s 1.848633885 _9_ RTR  --- 0 AODV 44 [0 0 0 0] ------- [9:255 -1:255 1 0] [0x1 1 [9 6] 4.000000] (HELLO)
s 1.853255747 _2_ RTR  --- 0 AODV 44 [0 0 0 0] ------- [2:255 -1:255 1 0] [0x1 1 [2 8] 4.000000] (HELLO)
r 1.854409667 _0_ RTR  --- 0 AODV 44 [0 ffffffff 1 0] ------- [1:255 -1:255 1 0] [0x1 1 [1 6] 4.000000] (HELLO)
r 1.854409667 _6_ RTR  --- 0 AODV 44 [0 ffffffff 1 0] ------- [1:255 -1:255 1 0] [0x1 1 [1 6] 4.000000] (HELLO)
r 1.854409667 _3_ RTR  --- 0 AODV 44 [0 ffffffff 2 0] ------- [2:255 -1:255 1 0] [0x1 1 [2 8] 4.000000] (HELLO)
r 1.854409667 _7_ RTR  --- 0 AODV 44 [0 ffffffff 2 0] ------- [2:255 -1:255 1 0] [0x1 1 [2 8] 4.000000] (HELLO)
r 1.854409667 _8_ RTR  --- 0 AODV 44 [0 ffffffff 9 0] ------- [9:255 -1:255 1 0] [0x1 1 [9 6] 4.000000] (HELLO)
r 1.854409667 _4_ RTR  --- 0 AODV 44 [0 ffffffff 9 0] ------- [9:255 -1:255 1 0] [0x1 1 [9 6] 4.000000] (HELLO)
r 1.854409667 _13_ RTR  --- 0 AODV 44 [0 ffffffff e 0] ------- [14:255 -1:255 1 0] [0x1 1 [14 6] 4.000000] (HELLO)
r 1.854409667 _19_ RTR  --- 0 AODV 44 [0 ffffffff e 0] ------- [14:255 -1:255 1 0] [0x1 1 [14 6] 4.000000] (HELLO)
s 1.857299068 _10_ RTR  --- 0 AODV 44 [0 0 0 0] ------- [10:255 -1:255 1 0] [0x1 1 [10 6] 4.000000] (HELLO)
s 1.876474277 _21_ RTR  --- 0 AODV 44 [0 0 0 0] ------- [21:255 -1:255 1 0] [0x1 1 [21 6] 4.000000] (HELLO)
r 1.896409667 _5_ RTR  --- 0 AODV 44 [0 ffffffff a 0] ------- [10:255 -1:255 1 0] [0x1 1 [10 6] 4.000000] (HELLO)
r 1.896409667 _11_ RTR  --- 0 AODV 44 [0 ffffffff a 0] ------- [10:255 -1:255 1 0] [0x1 1 [10 6] 4.000000] (HELLO)
r 1.896409667 _15_ RTR  --- 0 AODV 44 [0 ffffffff a 0] ------- [10:255 -1:255 1 0] [0x1 1 [10 6] 4.000000] (HELLO)
r 1.896409667 _20_ RTR  --- 0 AODV 44 [0 ffffffff 15 0] ------- [21:255 -1:255 1 0] [0x1 1 [21 6] 4.000000] (HELLO)
r 1.896409667 _16_ RTR  --- 0 AODV 44 [0 ffffffff 15 0] ------- [21:255 -1:255 1 0] [0x1 1 [21 6] 4.000000] (HELLO)
r 1.896409667 _22_ RTR  --- 0 AODV 44 [0 ffffffff 15 0] ------- [21:255 -1:255 1 0] [0x1 1 [21 6] 4.000000] (HELLO)
s 1.926077098 _18_ RTR  --- 0 AODV 44 [0 0 0 0] ------- [18:255 -1:255 1 0] [0x1 1 [18 10] 4.000000] (HELLO)
r 1.938409667 _17_ RTR  --- 0 AODV 44 [0 ffffffff 12 0] ------- [18:255 -1:255 1 0] [0x1 1 [18 10] 4.000000] (HELLO)
r 1.938409667 _13_ RTR  --- 0 AODV 44 [0 ffffffff 12 0] ------- [18:255 -1:255 1 0] [0x1 1 [18 10] 4.000000] (HELLO)
r 1.938409667 _19_ RTR  --- 0 AODV 44 [0 ffffffff 12 0] ------- [18:255 -1:255 1 0] [0x1 1 [18 10] 4.000000] (HELLO)
r 1.938409667 _23_ RTR  --- 0 AODV 44 [0 ffffffff 12 0] ------- [18:255 -1:255 1 0] [0x1 1 [18 10] 4.000000] (HELLO)
s 1.952430919 _13_ RTR  --- 0 AODV 44 [0 0 0 0] ------- [13:255 -1:255 1 0] [0x1 1 [13 10] 4.000000] (HELLO)
s 1.963973937 _3_ RTR  --- 0 AODV 44 [0 0 0 0] ------- [3:255 -1:255 1 0] [0x1 1 [3 8] 4.000000] (HELLO)
s 1.969789774 _7_ RTR  --- 0 AODV 44 [0 0 0 0] ------- [7:255 -1:255 1 0] [0x1 1 [7 10] 4.000000] (HELLO)
r 1.980409667 _2_ RTR  --- 0 AODV 44 [0 ffffffff 3 0] ------- [3:255 -1:255 1 0] [0x1 1 [3 8] 4.000000] (HELLO)
r 1.980409667 _4_ RTR  --- 0 AODV 44 [0 ffffffff 3 0] ------- [3:255 -1:255 1 0] [0x1 1 [3 8] 4.000000] (HELLO)
r 1.980409667 _8_ RTR  --- 0 AODV 44 [0 ffffffff 3 0] ------- [3:255 -1:255 1 0] [0x1 1 [3 8] 4.000000] (HELLO)
r 1.980409667 _6_ RTR  --- 0 AODV 44 [0 ffffffff 7 0] ------- [7:255 -1:255 1 0] [0x1 1 [7 10] 4.000000] (HELLO)
r 1.980409667 _12_ RTR  --- 0 AODV 44 [0 ffffffff 7 0] ------- [7:255 -1:255 1 0] [0x1 1 [7 10] 4.000000] (HELLO)
r 1.980409667 _14_ RTR  --- 0 AODV 44 [0 ffffffff d 0] ------- [13:255 -1:255 1 0] [0x1 1 [13 10] 4.000000] (HELLO)
r 1.980409667 _18_ RTR  --- 0 AODV 44 [0 ffffffff d 0] ------- [13:255 -1:255 1 0] [0x1 1 [13 10] 4.000000] (HELLO)
s 1.998416822 _8_ RTR  --- 0 AODV 44 [0 0 0 0] ------- [8:255 -1:255 1 0] [0x1 1 [8 8] 4.000000] (HELLO)
s 2.007625979 _12_ RTR  --- 0 AODV 44 [0 0 0 0] ------- [12:255 -1:255 1 0] [0x1 1 [12 8] 4.000000] (HELLO)
r 2.022409667 _7_ RTR  --- 0 AODV 44 [0 ffffffff 8 0] ------- [8:255 -1:255 1 0] [0x1 1 [8 8] 4.000000] (HELLO)
r 2.022409667 _3_ RTR  --- 0 AODV 44 [0 ffffffff 8 0] ------- [8:255 -1:255 1 0] [0x1 1 [8 8] 4.000000] (HELLO)
r 2.022409667 _9_ RTR  --- 0 AODV 44 [0 ffffffff 8 0] ------- [8:255 -1:255 1 0] [0x1 1 [8 8] 4.000000] (HELLO)
r 2.022409667 _13_ RTR  --- 0 AODV 44 [0 ffffffff 8 0] ------- [8:255 -1:255 1 0] [0x1 1 [8 8] 4.000000] (HELLO)
r 2.022409667 _11_ RTR  --- 0 AODV 44 [0 ffffffff c 0] ------- [12:255 -1:255 1 0] [0x1 1 [12 8] 4.000000] (HELLO)
r 2.022409667 _17_ RTR  --- 0 AODV 44 [0 ffffffff c 0] ------- [12:255 -1:255 1 0] [0x1 1 [12 8] 4.000000] (HELLO)
s 2.058360718 _16_ RTR  --- 0 AODV 44 [0 0 0 0] ------- [16:255 -1:255 1 0] [0x1 1 [16 8] 4.000000] (HELLO)
r 2.064409667 _15_ RTR  --- 0 AODV 44 [0 ffffffff 10 0] ------- [16:255 -1:255 1 0] [0x1 1 [16 8] 4.000000] (HELLO)
r 2.064409667 _11_ RTR  --- 0 AODV 44 [0 ffffffff 10 0] ------- [16:255 -1:255 1 0] [0x1 1 [16 8] 4.000000] (HELLO)
r 2.064409667 _17_ RTR  --- 0 AODV 44 [0 ffffffff 10 0] ------- [16:255 -1:255 1 0] [0x1 1 [16 8] 4.000000] (HELLO)
r 2.064409667 _21_ RTR  --- 0 AODV 44 [0 ffffffff 10 0] ------- [16:255 -1:255 1 0] [0x1 1 [16 8] 4.000000] (HELLO)
s 2.071345656 _20_ RTR  --- 0 AODV 44 [0 0 0 0] ------- [20:255 -1:255 1 0] [0x1 1 [20 6] 4.000000] (HELLO)
s 2.081516709 _22_ RTR  --- 0 AODV 44 [0 0 0 0] ------- [22:255 -1:255 1 0] [0x1 1 [22 8] 4.000000] (HELLO)
r 2.106409667 _15_ RTR  --- 0 AODV 44 [0 ffffffff 14 0] ------- [20:255 -1:255 1 0] [0x1 1 [20 6] 4.000000] (HELLO)
r 2.106409667 _21_ RTR  --- 0 AODV 44 [0 ffffffff 14 0] ------- [20:255 -1:255 1 0] [0x1 1 [20 6] 4.000000] (HELLO)
r 2.106409667 _17_ RTR  --- 0 AODV 44 [0 ffffffff 16 0] ------- [22:255 -1:255 1 0] [0x1 1 [22 8] 4.000000] (HELLO)
r 2.106409667 _23_ RTR  --- 0 AODV 44 [0 ffffffff 16 0] ------- [22:255 -1:255 1 0] [0x1 1 [22 8] 4.000000] (HELLO)
s 2.155550141 _17_ RTR  --- 0 AODV 44 [0 0 0 0] ------- [17:255 -1:255 1 0] [0x1 1 [17 10] 4.000000] (HELLO)
r 2.190409667 _16_ RTR  --- 0 AODV 44 [0 ffffffff 11 0] ------- [17:255 -1:255 1 0] [0x1 1 [17 10] 4.000000] (HELLO)
r 2.190409667 _12_ RTR  --- 0 AODV 44 [0 ffffffff 11 0] ------- [17:255 -1:255 1 0] [0x1 1 [17 10] 4.000000] (HELLO)
r 2.190409667 _18_ RTR  --- 0 AODV 44 [0 ffffffff 11 0] ------- [17:255 -1:255 1 0] [0x1 1 [17 10] 4.000000] (HELLO)
r 2.190409667 _22_ RTR  --- 0 AODV 44 [0 ffffffff 11 0] ------- [17:255 -1:255 1 0] [0x1 1 [17 10] 4.000000] (HELLO)
s 2.193719168 _4_ RTR  --- 0 AODV 44 [0 0 0 0] ------- [4:255 -1:255 1 0] [0x1 1 [4 6] 4.000000] (HELLO)
s 2.197091421 _5_ RTR  --- 0 AODV 44 [0 0 0 0] ------- [5:255 -1:255 1 0] [0x1 1 [5 8] 4.000000] (HELLO)
s 2.204998308 _24_ RTR  --- 0 AODV 44 [0 0 0 0] ------- [24:255 -1:255 1 0] [0x1 1 [24 6] 4.000000] (HELLO)
r 2.232409667 _3_ RTR  --- 0 AODV 44 [0 ffffffff 4 0] ------- [4:255 -1:255 1 0] [0x1 1 [4 6] 4.000000] (HELLO)
r 2.232409667 _9_ RTR  --- 0 AODV 44 [0 ffffffff 4 0] ------- [4:255 -1:255 1 0] [0x1 1 [4 6] 4.000000] (HELLO)
r 2.232409667 _0_ RTR  --- 0 AODV 44 [0 ffffffff 5 0] ------- [5:255 -1:255 1 0] [0x1 1 [5 8] 4.000000] (HELLO)
r 2.232409667 _6_ RTR  --- 0 AODV 44 [0 ffffffff 5 0] ------- [5:255 -1:255 1 0] [0x1 1 [5 8] 4.000000] (HELLO)
r 2.232409667 _10_ RTR  --- 0 AODV 44 [0 ffffffff 5 0] ------- [5:255 -1:255 1 0] [0x1 1 [5 8] 4.000000] (HELLO)
r 2.232409667 _23_ RTR  --- 0 AODV 44 [0 ffffffff 18 0] ------- [24:255 -1:255 1 0] [0x1 1 [24 6] 4.000000] (HELLO)
r 2.232409667 _19_ RTR  --- 0 AODV 44 [0 ffffffff 18 0] ------- [24:255 -1:255 1 0] [0x1 1 [24 6] 4.000000] (HELLO)
s 2.252473715 _11_ RTR  --- 0 AODV 44 [0 0 0 0] ------- [11:255 -1:255 1 0] [0x1 1 [11 10] 4.000000] (HELLO)
r 2.274409667 _10_ RTR  --- 0 AODV 44 [0 ffffffff b 0] ------- [11:255 -1:255 1 0] [0x1 1 [11 10] 4.000000] (HELLO)
r 2.274409667 _6_ RTR  --- 0 AODV 44 [0 ffffffff b 0] ------- [11:255 -1:255 1 0] [0x1 1 [11 10] 4.000000] (HELLO)
r 2.274409667 _12_ RTR  --- 0 AODV 44 [0 ffffffff b 0] ------- [11:255 -1:255 1 0] [0x1 1 [11 10] 4.000000] (HELLO)
r 2.274409667 _16_ RTR  --- 0 AODV 44 [0 ffffffff b 0] ------- [11:255 -1:255 1 0] [0x1 1 [11 10] 4.000000] (HELLO)
s 2.597734752 _1_ RTR  --- 0 AODV 44 [0 0 0 0] ------- [1:255 -1:255 1 0] [0x1 1 [1 6] 4.000000] (HELLO)
r 2.610409667 _0_ RTR  --- 0 AODV 44 [0 ffffffff 1 0] ------- [1:255 -1:255 1 0] [0x1 1 [1 6] 4.000000] (HELLO)
r 2.610409667 _2_ RTR  --- 0 AODV 44 [0 ffffffff 1 0] ------- [1:255 -1:255 1 0] [0x1 1 [1 6] 4.000000] (HELLO)
r 2.610409667 _6_ RTR  --- 0 AODV 44 [0 ffffffff 1 0] ------- [1:255 -1:255 1 0] [0x1 1 [1 6] 4.000000] (HELLO)
s 2.614139830 _0_ RTR  --- 0 AODV 44 [0 0 0 0] ------- [0:255 -1:255 1 0] [0x1 1 [0 6] 4.000000] (HELLO)
r 2.652409667 _1_ RTR  --- 0 AODV 44 [0 ffffffff 0 0] ------- [0:255 -1:255 1 0] [0x1 1 [0 6] 4.000000] (HELLO)
r 2.652409667 _5_ RTR  --- 0 AODV 44 [0 ffffffff 0 0] ------- [0:255 -1:255 1 0] [0x1 1 [0 6] 4.000000] (HELLO)
s 2.696362873 _2_ RTR  --- 0 AODV 44 [0 0 0 0] ------- [2:255 -1:255 1 0] [0x1 1 [2 8] 4.000000] (HELLO)
s 2.699927922 _15_ RTR  --- 0 AODV 44 [0 0 0 0] ------- [15:255 -1:255 1 0] [0x1 1 [15 8] 4.000000] (HELLO)
r 2.736409667 _1_ RTR  --- 0 AODV 44 [0 ffffffff 2 0] ------- [2:255 -1:255 1 0] [0x1 1 [2 8] 4.000000] (HELLO)
r 2.736409667 _3_ RTR  --- 0 AODV 44 [0 ffffffff 2 0] ------- [2:255 -1:255 1 0] [0x1 1 [2 8] 4.000000] (HELLO)
r 2.736409667 _7_ RTR  --- 0 AODV 44 [0 ffffffff 2 0] ------- [2:255 -1:255 1 0] [0x1 1 [2 8] 4.000000] (HELLO)
r 2.736409667 _10_ RTR  --- 0 AODV 44 [0 ffffffff f 0] ------- [15:255 -1:255 1 0] [0x1 1 [15 8] 4.000000] (HELLO)
r 2.736409667 _16_ RTR  --- 0 AODV 44 [0 ffffffff f 0] ------- [15:255 -1:255 1 0] [0x1 1 [15 8] 4.000000] (HELLO)
r 2.736409667 _20_ RTR  --- 0 AODV 44 [0 ffffffff f 0] ------- [15:255 -1:255 1 0] [0x1 1 [15 8] 4.000000] (HELLO)
s 2.754985770 _19_ RTR  --- 0 AODV 44 [0 0 0 0] ------- [19:255 -1:255 1 0] [0x1 1 [19 8] 4.000000] (HELLO)
s 2.762292385 _9_ RTR  --- 0 AODV 44 [0 0 0 0] ------- [9:255 -1:255 1 0] [0x1 1 [9 6] 4.000000] (HELLO)
r 2.778409667 _8_ RTR  --- 0 AODV 44 [0 ffffffff 9 0] ------- [9:255 -1:255 1 0] [0x1 1 [9 6] 4.000000] (HELLO)
r 2.778409667 _4_ RTR  --- 0 AODV 44 [0 ffffffff 9 0] ------- [9:255 -1:255 1 0] [0x1 1 [9 6] 4.000000] (HELLO)
r 2.778409667 _14_ RTR  --- 0 AODV 44 [0 ffffffff 9 0] ------- [9:255 -1:255 1 0] [0x1 1 [9 6] 4.000000] (HELLO)
r 2.778409667 _18_ RTR  --- 0 AODV 44 [0 ffffffff 13 0] ------- [19:255 -1:255 1 0] [0x1 1 [19 8] 4.000000] (HELLO)
r 2.778409667 _24_ RTR  --- 0 AODV 44 [0 ffffffff 13 0] ------- [19:255 -1:255 1 0] [0x1 1 [19 8] 4.000000] (HELLO)
s 2.788281638 _14_ RTR  --- 0 AODV 44 [0 0 0 0] ------- [14:255 -1:255 1 0] [0x1 1 [14 8] 4.000000] (HELLO)
s 2.803304437 _12_ RTR  --- 0 AODV 44 [0 0 0 0] ------- [12:255 -1:255 1 0] [0x1 1 [12 10] 4.000000] (HELLO)
s 2.805797934 _13_ RTR  --- 0 AODV 44 [0 0 0 0] ------- [13:255 -1:255 1 0] [0x1 1 [13 10] 4.000000] (HELLO)
s 2.809153699 _7_ RTR  --- 0 AODV 44 [0 0 0 0] ------- [7:255 -1:255 1 0] [0x1 1 [7 10] 4.000000] (HELLO)
r 2.820409667 _6_ RTR  --- 0 AODV 44 [0 ffffffff 7 0] ------- [7:255 -1:255 1 0] [0x1 1 [7 10] 4.000000] (HELLO)
r 2.820409667 _2_ RTR  --- 0 AODV 44 [0 ffffffff 7 0] ------- [7:255 -1:255 1 0] [0x1 1 [7 10] 4.000000] (HELLO)
r 2.820409667 _8_ RTR  --- 0 AODV 44 [0 ffffffff 7 0] ------- [7:255 -1:255 1 0] [0x1 1 [7 10] 4.000000] (HELLO)
r 2.820409667 _11_ RTR  --- 0 AODV 44 [0 ffffffff c 0] ------- [12:255 -1:255 1 0] [0x1 1 [12 10] 4.000000] (HELLO)
r 2.820409667 _17_ RTR  --- 0 AODV 44 [0 ffffffff c 0] ------- [12:255 -1:255 1 0] [0x1 1 [12 10] 4.000000] (HELLO)
r 2.820409667 _18_ RTR  --- 0 AODV 44 [0 ffffffff d 0] ------- [13:255 -1:255 1 0] [0x1 1 [13 10] 4.000000] (HELLO)
r 2.820409667 _9_ RTR  --- 0 AODV 44 [0 ffffffff e 0] ------- [14:255 -1:255 1 0] [0x1 1 [14 8] 4.000000] (HELLO)
r 2.820409667 _19_ RTR  --- 0 AODV 44 [0 ffffffff e 0] ------- [14:255 -1:255 1 0] [0x1 1 [14 8] 4.000000] (HELLO)
s 2.825445296 _23_ RTR  --- 0 AODV 44 [0 0 0 0] ------- [23:255 -1:255 1 0] [0x1 1 [23 8] 4.000000] (HELLO)
s 2.846412358 _20_ RTR  --- 0 AODV 44 [0 0 0 0] ------- [20:255 -1:255 1 0] [0x1 1 [20 6] 4.000000] (HELLO)
r 2.862409667 _15_ RTR  --- 0 AODV 44 [0 ffffffff 14 0] ------- [20:255 -1:255 1 0] [0x1 1 [20 6] 4.000000] (HELLO)
r 2.862409667 _21_ RTR  --- 0 AODV 44 [0 ffffffff 14 0] ------- [20:255 -1:255 1 0] [0x1 1 [20 6] 4.000000] (HELLO)
r 2.862409667 _22_ RTR  --- 0 AODV 44 [0 ffffffff 17 0] ------- [23:255 -1:255 1 0] [0x1 1 [23 8] 4.000000] (HELLO)
r 2.862409667 _18_ RTR  --- 0 AODV 44 [0 ffffffff 17 0] ------- [23:255 -1:255 1 0] [0x1 1 [23 8] 4.000000] (HELLO)
r 2.862409667 _24_ RTR  --- 0 AODV 44 [0 ffffffff 17 0] ------- [23:255 -1:255 1 0] [0x1 1 [23 8] 4.000000] (HELLO)
s 2.899407959 _6_ RTR  --- 0 AODV 44 [0 0 0 0] ------- [6:255 -1:255 1 0] [0x1 1 [6 10] 4.000000] (HELLO)
r 2.904409667 _5_ RTR  --- 0 AODV 44 [0 ffffffff 6 0] ------- [6:255 -1:255 1 0] [0x1 1 [6 10] 4.000000] (HELLO)
r 2.904409667 _1_ RTR  --- 0 AODV 44 [0 ffffffff 6 0] ------- [6:255 -1:255 1 0] [0x1 1 [6 10] 4.000000] (HELLO)
r 2.904409667 _7_ RTR  --- 0 AODV 44 [0 ffffffff 6 0] ------- [6:255 -1:255 1 0] [0x1 1 [6 10] 4.000000] (HELLO)
r 2.904409667 _11_ RTR  --- 0 AODV 44 [0 ffffffff 6 0] ------- [6:255 -1:255 1 0] [0x1 1 [6 10] 4.000000] (HELLO)
s 2.999098381 _24_ RTR  --- 0 AODV 44 [0 0 0 0] ------- [24:255 -1:255 1 0] [0x1 1 [24 6] 4.000000] (HELLO)
s 2.999792619 _10_ RTR  --- 0 AODV 44 [0 0 0 0] ------- [10:255 -1:255 1 0] [0x1 1 [10 8] 4.000000] (HELLO)
r 3.030409667 _5_ RTR  --- 0 AODV 44 [0 ffffffff a 0] ------- [10:255 -1:255 1 0] [0x1 1 [10 8] 4.000000] (HELLO)
r 3.030409667 _11_ RTR  --- 0 AODV 44 [0 ffffffff a 0] ------- [10:255 -1:255 1 0] [0x1 1 [10 8] 4.000000] (HELLO)
r 3.030409667 _15_ RTR  --- 0 AODV 44 [0 ffffffff a 0] ------- [10:255 -1:255 1 0] [0x1 1 [10 8] 4.000000] (HELLO)
r 3.030409667 _23_ RTR  --- 0 AODV 44 [0 ffffffff 18 0] ------- [24:255 -1:255 1 0] [0x1 1 [24 6] 4.000000] (HELLO)
r 3.030409667 _19_ RTR  --- 0 AODV 44 [0 ffffffff 18 0] ------- [24:255 -1:255 1 0] [0x1 1 [24 6] 4.000000] (HELLO)
s 3.054221570 _16_ RTR  --- 0 AODV 44 [0 0 0 0] ------- [16:255 -1:255 1 0] [0x1 1 [16 10] 4.000000] (HELLO)
s 3.061442568 _3_ RTR  --- 0 AODV 44 [0 0 0 0] ------- [3:255 -1:255 1 0] [0x1 1 [3 8] 4.000000] (HELLO)
s 3.062424967 _18_ RTR  --- 0 AODV 44 [0 0 0 0] ------- [18:255 -1:255 1 0] [0x1 1 [18 10] 4.000000] (HELLO)
r 3.072409667 _2_ RTR  --- 0 AODV 44 [0 ffffffff 3 0] ------- [3:255 -1:255 1 0] [0x1 1 [3 8] 4.000000] (HELLO)
r 3.072409667 _4_ RTR  --- 0 AODV 44 [0 ffffffff 3 0] ------- [3:255 -1:255 1 0] [0x1 1 [3 8] 4.000000] (HELLO)
r 3.072409667 _8_ RTR  --- 0 AODV 44 [0 ffffffff 3 0] ------- [3:255 -1:255 1 0] [0x1 1 [3 8] 4.000000] (HELLO)
r 3.072409667 _15_ RTR  --- 0 AODV 44 [0 ffffffff 10 0] ------- [16:255 -1:255 1 0] [0x1 1 [16 10] 4.000000] (HELLO)
r 3.072409667 _11_ RTR  --- 0 AODV 44 [0 ffffffff 10 0] ------- [16:255 -1:255 1 0] [0x1 1 [16 10] 4.000000] (HELLO)
r 3.072409667 _17_ RTR  --- 0 AODV 44 [0 ffffffff 10 0] ------- [16:255 -1:255 1 0] [0x1 1 [16 10] 4.000000] (HELLO)
r 3.072409667 _21_ RTR  --- 0 AODV 44 [0 ffffffff 10 0] ------- [16:255 -1:255 1 0] [0x1 1 [16 10] 4.000000] (HELLO)
r 3.072409667 _13_ RTR  --- 0 AODV 44 [0 ffffffff 12 0] ------- [18:255 -1:255 1 0] [0x1 1 [18 10] 4.000000] (HELLO)