s 0.012000000 _0_ MAC  --- 0 AODV 100 [0 ffffffff 0 0] ------- [0:255 -1:255 30 0] [0x2 1 1 [1 0] [0 4]] (REQUEST)
r 0.012400767 _1_ MAC  --- 0 AODV 48 [0 ffffffff 0 0] ------- [0:255 -1:255 30 0] [0x2 1 1 [1 0] [0 4]] (REQUEST)
r 0.012400767 _2_ MAC  --- 0 AODV 48 [0 ffffffff 0 0] ------- [0:255 -1:255 30 0] [0x2 1 1 [1 0] [0 4]] (REQUEST)
s 0.018000000 _0_ MAC  --- 0 AODV 100 [0 ffffffff 0 0] ------- [0:255 -1:255 30 0] [0x2 1 2 [2 0] [0 6]] (REQUEST)
r 0.018400767 _1_ MAC  --- 0 AODV 48 [0 ffffffff 0 0] ------- [0:255 -1:255 30 0] [0x2 1 2 [2 0] [0 6]] (REQUEST)
r 0.018400767 _2_ MAC  --- 0 AODV 48 [0 ffffffff 0 0] ------- [0:255 -1:255 30 0] [0x2 1 2 [2 0] [0 6]] (REQUEST)
s 0.024000000 _2_ MAC  --- 0 AODV 100 [0 ffffffff 2 0] ------- [2:255 -1:255 29 0] [0x2 2 1 [1 0] [0 4]] (REQUEST)
r 0.024400767 _0_ MAC  --- 0 AODV 48 [0 ffffffff 2 0] ------- [2:255 -1:255 29 0] [0x2 2 1 [1 0] [0 4]] (REQUEST)
r 0.024401084 _1_ MAC  --- 0 AODV 48 [0 ffffffff 2 0] ------- [2:255 -1:255 29 0] [0x2 2 1 [1 0] [0 4]] (REQUEST)
s 0.030000000 _1_ MAC  --- 0 ARP 80 [0 ffffffff 1 0] ------- [REQUEST 1/1 0/0]
r 0.030320767 _0_ MAC  --- 0 ARP 28 [0 ffffffff 1 0] ------- [REQUEST 1/1 0/0]
r 0.030321084 _2_ MAC  --- 0 ARP 28 [0 ffffffff 1 0] ------- [REQUEST 1/1 0/0]
s 0.036000000 _0_ MAC  --- 0 ARP 80 [5 1 0 0] ------- [REPLY 0/0 1/1]
r 0.036320767 _1_ MAC  --- 0 ARP 28 [5 1 0 0] ------- [REPLY 0/0 1/1]
D 0.036320767 _2_ MAC  --- 0 ARP 80 [5 1 0 0] ------- [REPLY 0/0 1/1]
s 0.048000000 _2_ MAC  --- 0 ARP 80 [0 ffffffff 2 0] ------- [REQUEST 2/2 0/0]
r 0.048320767 _0_ MAC  --- 0 ARP 28 [0 ffffffff 2 0] ------- [REQUEST 2/2 0/0]
r 0.048321084 _1_ MAC  --- 0 ARP 28 [0 ffffffff 2 0] ------- [REQUEST 2/2 0/0]
s 0.054000000 _1_ MAC  --- 0 AODV 100 [0 ffffffff 1 0] ------- [1:255 -1:255 29 0] [0x2 2 2 [2 0] [0 6]] (REQUEST)
r 0.054400767 _0_ MAC  --- 0 AODV 48 [0 ffffffff 1 0] ------- [1:255 -1:255 29 0] [0x2 2 2 [2 0] [0 6]] (REQUEST)
r 0.054401084 _2_ MAC  --- 0 AODV 48 [0 ffffffff 1 0] ------- [1:255 -1:255 29 0] [0x2 2 2 [2 0] [0 6]] (REQUEST)
s 0.060000000 _0_ MAC  --- 0 ARP 80 [5 2 0 0] ------- [REPLY 0/0 2/2]
D 0.060320767 _1_ MAC  --- 0 ARP 80 [5 2 0 0] ------- [REPLY 0/0 2/2]
r 0.060320767 _2_ MAC  --- 0 ARP 28 [5 2 0 0] ------- [REPLY 0/0 2/2]
s 0.072000000 _2_ MAC  --- 0 AODV 96 [5 0 2 0] ------- [2:255 0:255 30 0] [0x4 1 [2 4] 10.000000] (REPLY)
r 0.072384767 _0_ MAC  --- 0 AODV 44 [5 0 2 0] ------- [2:255 0:255 30 0] [0x4 1 [2 4] 10.000000] (REPLY)
D 0.072385084 _1_ MAC  --- 0 AODV 96 [5 0 2 0] ------- [2:255 0:255 30 0] [0x4 1 [2 4] 10.000000] (REPLY)
s 0.078000000 _1_ MAC  --- 0 AODV 96 [5 0 1 0] ------- [1:255 0:255 30 0] [0x4 1 [1 4] 10.000000] (REPLY)
r 0.078384767 _0_ MAC  --- 0 AODV 44 [5 0 1 0] ------- [1:255 0:255 30 0] [0x4 1 [1 4] 10.000000] (REPLY)
D 0.078385084 _2_ MAC  --- 0 AODV 96 [5 0 1 0] ------- [1:255 0:255 30 0] [0x4 1 [1 4] 10.000000] (REPLY)
s 0.084000000 _0_ MAC  --- 1 cbr 282 [5 2 0 0] ------- [0:1 2:0 30 2] [0] 0 0
D 0.085128767 _1_ MAC  --- 1 cbr 282 [5 2 0 0] ------- [0:1 2:0 30 2] [0] 0 0
r 0.085128767 _2_ MAC  --- 1 cbr 230 [5 2 0 0] ------- [0:1 2:0 30 2] [0] 1 0
s 0.090000000 _0_ MAC  --- 0 cbr 282 [5 1 0 0] ------- [0:0 1:0 30 1] [0] 0 0
r 0.091128767 _1_ MAC  --- 0 cbr 230 [5 1 0 0] ------- [0:0 1:0 30 1] [0] 1 0
D 0.091128767 _2_ MAC  --- 0 cbr 282 [5 1 0 0] ------- [0:0 1:0 30 1] [0] 0 0
s 0.108000000 _0_ MAC  --- 3 cbr 282 [5 2 0 0] ------- [0:1 2:0 30 2] [1] 0 0
D 0.109128767 _1_ MAC  --- 3 cbr 282 [5 2 0 0] ------- [0:1 2:0 30 2] [1] 0 0
r 0.109128767 _2_ MAC  --- 3 cbr 230 [5 2 0 0] ------- [0:1 2:0 30 2] [1] 1 0
s 0.114000000 _0_ MAC  --- 2 cbr 282 [5 1 0 0] ------- [0:0 1:0 30 1] [1] 0 0
r 0.115128767 _1_ MAC  --- 2 cbr 230 [5 1 0 0] ------- [0:0 1:0 30 1] [1] 1 0
D 0.115128767 _2_ MAC  --- 2 cbr 282 [5 1 0 0] ------- [0:0 1:0 30 1] [1] 0 0
s 0.132000000 _0_ MAC  --- 4 cbr 282 [5 1 0 0] ------- [0:0 1:0 30 1] [2] 0 0
r 0.133128767 _1_ MAC  --- 4 cbr 230 [5 1 0 0] ------- [0:0 1:0 30 1] [2] 1 0
D 0.133128767 _2_ MAC  --- 4 cbr 282 [5 1 0 0] ------- [0:0 1:0 30 1] [2] 0 0
s 0.138000000 _0_ MAC  --- 5 cbr 282 [5 2 0 0] ------- [0:1 2:0 30 2] [2] 0 0
D 0.139128767 _1_ MAC  --- 5 cbr 282 [5 2 0 0] ------- [0:1 2:0 30 2] [2] 0 0
r 0.139128767 _2_ MAC  --- 5 cbr 230 [5 2 0 0] ------- [0:1 2:0 30 2] [2] 1 0
s 0.180000000 _0_ MAC  --- 6 cbr 282 [5 1 0 0] ------- [0:0 1:0 30 1] [3] 0 0
r 0.181128767 _1_ MAC  --- 6 cbr 230 [5 1 0 0] ------- [0:0 1:0 30 1] [3] 1 0
D 0.181128767 _2_ MAC  --- 6 cbr 282 [5 1 0 0] ------- [0:0 1:0 30 1] [3] 0 0
s 0.186000000 _0_ MAC  --- 7 cbr 282 [5 2 0 0] ------- [0:1 2:0 30 2] [3] 0 0
D 0.187128767 _1_ MAC  --- 7 cbr 282 [5 2 0 0] ------- [0:1 2:0 30 2] [3] 0 0
r 0.187128767 _2_ MAC  --- 7 cbr 230 [5 2 0 0] ------- [0:1 2:0 30 2] [3] 1 0
s 0.228000000 _0_ MAC  --- 8 cbr 282 [5 1 0 0] ------- [0:0 1:0 30 1] [4] 0 0
r 0.229128767 _1_ MAC  --- 8 cbr 230 [5 1 0 0] ------- [0:0 1:0 30 1] [4] 1 0
D 0.229128767 _2_ MAC  --- 8 cbr 282 [5 1 0 0] ------- [0:0 1:0 30 1] [4] 0 0
s 0.234000000 _0_ MAC  --- 9 cbr 282 [5 2 0 0] ------- [0:1 2:0 30 2] [4] 0 0
D 0.235128767 _1_ MAC  --- 9 cbr 282 [5 2 0 0] ------- [0:1 2:0 30 2] [4] 0 0
r 0.235128767 _2_ MAC  --- 9 cbr 230 [5 2 0 0] ------- [0:1 2:0 30 2] [4] 1 0
s 0.282000000 _0_ MAC  --- 10 cbr 282 [5 1 0 0] ------- [0:0 1:0 30 1] [5] 0 0
r 0.283128767 _1_ MAC  --- 10 cbr 230 [5 1 0 0] ------- [0:0 1:0 30 1] [5] 1 0
D 0.283128767 _2_ MAC  --- 10 cbr 282 [5 1 0 0] ------- [0:0 1:0 30 1] [5] 0 0
s 0.300000000 _0_ MAC  --- 11 cbr 282 [5 2 0 0] ------- [0:1 2:0 30 2] [5] 0 0
D 0.301128767 _1_ MAC  --- 11 cbr 282 [5 2 0 0] ------- [0:1 2:0 30 2] [5] 0 0
r 0.301128767 _2_ MAC  --- 11 cbr 230 [5 2 0 0] ------- [0:1 2:0 30 2] [5] 1 0
s 0.348000000 _0_ MAC  --- 12 cbr 282 [5 1 0 0] ------- [0:0 1:0 30 1] [6] 0 0
r 0.349128767 _1_ MAC  --- 12 cbr 230 [5 1 0 0] ------- [0:0 1:0 30 1] [6] 1 0
D 0.349128767 _2_ MAC  --- 12 cbr 282 [5 1 0 0] ------- [0:0 1:0 30 1] [6] 0 0
s 0.354000000 _0_ MAC  --- 13 cbr 282 [5 2 0 0] ------- [0:1 2:0 30 2] [6] 0 0
D 0.355128767 _1_ MAC  --- 13 cbr 282 [5 2 0 0] ------- [0:1 2:0 30 2] [6] 0 0
r 0.355128767 _2_ MAC  --- 13 cbr 230 [5 2 0 0] ------- [0:1 2:0 30 2] [6] 1 0
s 0.396000000 _0_ MAC  --- 14 cbr 282 [5 1 0 0] ------- [0:0 1:0 30 1] [7] 0 0
r 0.397128767 _1_ MAC  --- 14 cbr 230 [5 1 0 0] ------- [0:0 1:0 30 1] [7] 1 0
D 0.397128767 _2_ MAC  --- 14 cbr 282 [5 1 0 0] ------- [0:0 1:0 30 1] [7] 0 0
s 0.402000000 _0_ MAC  --- 15 cbr 282 [5 2 0 0] ------- [0:1 2:0 30 2] [7] 0 0
D 0.403128767 _1_ MAC  --- 15 cbr 282 [5 2 0 0] ------- [0:1 2:0 30 2] [7] 0 0
r 0.403128767 _2_ MAC  --- 15 cbr 230 [5 2 0 0] ------- [0:1 2:0 30 2] [7] 1 0
s 0.450000000 _0_ MAC  --- 16 cbr 282 [5 1 0 0] ------- [0:0 1:0 30 1] [8] 0 0
r 0.451128767 _1_ MAC  --- 16 cbr 230 [5 1 0 0] ------- [0:0 1:0 30 1] [8] 1 0
D 0.451128767 _2_ MAC  --- 16 cbr 282 [5 1 0 0] ------- [0:0 1:0 30 1] [8] 0 0
s 0.468000000 _0_ MAC  --- 17 cbr 282 [5 2 0 0] ------- [0:1 2:0 30 2] [8] 0 0
D 0.469128767 _1_ MAC  --- 17 cbr 282 [5 2 0 0] ------- [0:1 2:0 30 2] [8] 0 0
r 0.469128767 _2_ MAC  --- 17 cbr 230 [5 2 0 0] ------- [0:1 2:0 30 2] [8] 1 0
s 0.516000000 _0_ MAC  --- 18 cbr 282 [5 1 0 0] ------- [0:0 1:0 30 1] [9] 0 0
r 0.517128767 _1_ MAC  --- 18 cbr 230 [5 1 0 0] ------- [0:0 1:0 30 1] [9] 1 0
D 0.517128767 _2_ MAC  --- 18 cbr 282 [5 1 0 0] ------- [0:0 1:0 30 1] [9] 0 0
s 0.522000000 _0_ MAC  --- 19 cbr 282 [5 2 0 0] ------- [0:1 2:0 30 2] [9] 0 0
D 0.523128767 _1_ MAC  --- 19 cbr 282 [5 2 0 0] ------- [0:1 2:0 30 2] [9] 0 0
r 0.523128767 _2_ MAC  --- 19 cbr 230 [5 2 0 0] ------- [0:1 2:0 30 2] [9] 1 0
s 0.564000000 _0_ MAC  --- 20 cbr 282 [5 1 0 0] ------- [0:0 1:0 30 1] [10] 0 0
r 0.565128767 _1_ MAC  --- 20 cbr 230 [5 1 0 0] ------- [0:0 1:0 30 1] [10] 1 0
D 0.565128767 _2_ MAC  --- 20 cbr 282 [5 1 0 0] ------- [0:0 1:0 30 1] [10] 0 0
s 0.570000000 _0_ MAC  --- 21 cbr 282 [5 2 0 0] ------- [0:1 2:0 30 2] [10] 0 0
D 0.571128767 _1_ MAC  --- 21 cbr 282 [5 2 0 0] ------- [0:1 2:0 30 2] [10] 0 0
r 0.571128767 _2_ MAC  --- 21 cbr 230 [5 2 0 0] ------- [0:1 2:0 30 2] [10] 1 0
s 0.618000000 _0_ MAC  --- 22 cbr 282 [5 1 0 0] ------- [0:0 1:0 30 1] [11] 0 0
r 0.619128767 _1_ MAC  --- 22 cbr 230 [5 1 0 0] ------- [0:0 1:0 30 1] [11] 1 0
D 0.619128767 _2_ MAC  --- 22 cbr 282 [5 1 0 0] ------- [0:0 1:0 30 1] [11] 0 0
s 0.636000000 _0_ MAC  --- 23 cbr 282 [5 2 0 0] ------- [0:1 2:0 30 2] [11] 0 0
D 0.637128767 _1_ MAC  --- 23 cbr 282 [5 2 0 0] ------- [0:1 2:0 30 2] [11] 0 0
r 0.637128767 _2_ MAC  --- 23 cbr 230 [5 2 0 0] ------- [0:1 2:0 30 2] [11] 1 0
s 0.684000000 _0_ MAC  --- 24 cbr 282 [5 1 0 0] ------- [0:0 1:0 30 1] [12] 0 0
r 0.685128767 _1_ MAC  --- 24 cbr 230 [5 1 0 0] ------- [0:0 1:0 30 1] [12] 1 0
D 0.685128767 _2_ MAC  --- 24 cbr 282 [5 1 0 0] ------- [0:0 1:0 30 1] [12] 0 0
s 0.690000000 _0_ MAC  --- 25 cbr 282 [5 2 0 0] ------- [0:1 2:0 30 2] [12] 0 0
D 0.691128767 _1_ MAC  --- 25 cbr 282 [5 2 0 0] ------- [0:1 2:0 30 2] [12] 0 0
r 0.691128767 _2_ MAC  --- 25 cbr 230 [5 2 0 0] ------- [0:1 2:0 30 2] [12] 1 0
s 0.732000000 _0_ MAC  --- 26 cbr 282 [5 1 0 0] ------- [0:0 1:0 30 1] [13] 0 0
r 0.733128767 _1_ MAC  --- 26 cbr 230 [5 1 0 0] ------- [0:0 1:0 30 1] [13] 1 0
D 0.733128767 _2_ MAC  --- 26 cbr 282 [5 1 0 0] ------- [0:0 1:0 30 1] [13] 0 0
s 0.738000000 _0_ MAC  --- 27 cbr 282 [5 2 0 0] ------- [0:1 2:0 30 2] [13] 0 0
D 0.739128767 _1_ MAC  --- 27 cbr 282 [5 2 0 0] ------- [0:1 2:0 30 2] [13] 0 0
r 0.739128767 _2_ MAC  --- 27 cbr 230 [5 2 0 0] ------- [0:1 2:0 30 2] [13] 1 0
s 0.786000000 _0_ MAC  --- 28 cbr 282 [5 1 0 0] ------- [0:0 1:0 30 1] [14] 0 0
r 0.787128767 _1_ MAC  --- 28 cbr 230 [5 1 0 0] ------- [0:0 1:0 30 1] [14] 1 0
D 0.787128767 _2_ MAC  --- 28 cbr 282 [5 1 0 0] ------- [0:0 1:0 30 1] [14] 0 0
s 0.804000000 _0_ MAC  --- 29 cbr 282 [5 2 0 0] ------- [0:1 2:0 30 2] [14] 0 0
D 0.805128767 _1_ MAC  --- 29 cbr 282 [5 2 0 0] ------- [0:1 2:0 30 2] [14] 0 0
r 0.805128767 _2_ MAC  --- 29 cbr 230 [5 2 0 0] ------- [0:1 2:0 30 2] [14] 1 0
s 0.852000000 _0_ MAC  --- 30 cbr 282 [5 1 0 0] ------- [0:0 1:0 30 1] [15] 0 0
r 0.853128767 _1_ MAC  --- 30 cbr 230 [5 1 0 0] ------- [0:0 1:0 30 1] [15] 1 0
D 0.853128767 _2_ MAC  --- 30 cbr 282 [5 1 0 0] ------- [0:0 1:0 30 1] [15] 0 0
s 0.858000000 _0_ MAC  --- 31 cbr 282 [5 2 0 0] ------- [0:1 2:0 30 2] [15] 0 0
D 0.859128767 _1_ MAC  --- 31 cbr 282 [5 2 0 0] ------- [0:1 2:0 30 2] [15] 0 0
r 0.859128767 _2_ MAC  --- 31 cbr 230 [5 2 0 0] ------- [0:1 2:0 30 2] [15] 1 0
s 0.900000000 _0_ MAC  --- 32 cbr 282 [5 1 0 0] ------- [0:0 1:0 30 1] [16] 0 0
r 0.901128767 _1_ MAC  --- 32 cbr 230 [5 1 0 0] ------- [0:0 1:0 30 1] [16] 1 0
D 0.901128767 _2_ MAC  --- 32 cbr 282 [5 1 0 0] ------- [0:0 1:0 30 1] [16] 0 0
s 0.906000000 _0_ MAC  --- 33 cbr 282 [5 2 0 0] ------- [0:1 2:0 30 2] [16] 0 0
D 0.907128767 _1_ MAC  --- 33 cbr 282 [5 2 0 0] ------- [0:1 2:0 30 2] [16] 0 0
r 0.907128767 _2_ MAC  --- 33 cbr 230 [5 2 0 0] ------- [0:1 2:0 30 2] [16] 1 0
s 0.954000000 _0_ MAC  --- 34 cbr 282 [5 1 0 0] ------- [0:0 1:0 30 1] [17] 0 0
r 0.955128767 _1_ MAC  --- 34 cbr 230 [5 1 0 0] ------- [0:0 1:0 30 1] [17] 1 0
D 0.955128767 _2_ MAC  --- 34 cbr 282 [5 1 0 0] ------- [0:0 1:0 30 1] [17] 0 0
s 0.972000000 _0_ MAC  --- 35 cbr 282 [5 2 0 0] ------- [0:1 2:0 30 2] [17] 0 0
D 0.973128767 _1_ MAC  --- 35 cbr 282 [5 2 0 0] ------- [0:1 2:0 30 2] [17] 0 0
r 0.973128767 _2_ MAC  --- 35 cbr 230 [5 2 0 0] ------- [0:1 2:0 30 2] [17] 1 0
s 1.020000000 _0_ MAC  --- 36 cbr 282 [5 1 0 0] ------- [0:0 1:0 30 1] [18] 0 0
r 1.021128767 _1_ MAC  --- 36 cbr 230 [5 1 0 0] ------- [0:0 1:0 30 1] [18] 1 0
D 1.021128767 _2_ MAC  --- 36 cbr 282 [5 1 0 0] ------- [0:0 1:0 30 1] [18] 0 0
s 1.026000000 _0_ MAC  --- 37 cbr 282 [5 2 0 0] ------- [0:1 2:0 30 2] [18] 0 0
D 1.027128767 _1_ MAC  --- 37 cbr 282 [5 2 0 0] ------- [0:1 2:0 30 2] [18] 0 0
r 1.027128767 _2_ MAC  --- 37 cbr 230 [5 2 0 0] ------- [0:1 2:0 30 2] [18] 1 0
s 1.068000000 _0_ MAC  --- 38 cbr 282 [5 1 0 0] ------- [0:0 1:0 30 1] [19] 0 0
r 1.069128767 _1_ MAC  --- 38 cbr 230 [5 1 0 0] ------- [0:0 1:0 30 1] [19] 1 0
D 1.069128767 _2_ MAC  --- 38 cbr 282 [5 1 0 0] ------- [0:0 1:0 30 1] [19] 0 0
s 1.074000000 _0_ MAC  --- 39 cbr 282 [5 2 0 0] ------- [0:1 2:0 30 2] [19] 0 0
D 1.075128767 _1_ MAC  --- 39 cbr 282 [5 2 0 0] ------- [0:1 2:0 30 2] [19] 0 0
r 1.075128767 _2_ MAC  --- 39 cbr 230 [5 2 0 0] ------- [0:1 2:0 30 2] [19] 1 0
s 1.122000000 _0_ MAC  --- 40 cbr 282 [5 1 0 0] ------- [0:0 1:0 30 1] [20] 0 0
r 1.123128767 _1_ MAC  --- 40 cbr 230 [5 1 0 0] ------- [0:0 1:0 30 1] [20] 1 0
D 1.123128767 _2_ MAC  --- 40 cbr 282 [5 1 0 0] ------- [0:0 1:0 30 1] [20] 0 0
s 1.140000000 _0_ MAC  --- 41 cbr 282 [5 2 0 0] ------- [0:1 2:0 30 2] [20] 0 0
D 1.141128767 _1_ MAC  --- 41 cbr 282 [5 2 0 0] ------- [0:1 2:0 30 2] [20] 0 0
r 1.141128767 _2_ MAC  --- 41 cbr 230 [5 2 0 0] ------- [0:1 2:0 30 2] [20] 1 0
s 1.188000000 _0_ MAC  --- 42 cbr 282 [5 1 0 0] ------- [0:0 1:0 30 1] [21] 0 0
r 1.189128767 _1_ MAC  --- 42 cbr 230 [5 1 0 0] ------- [0:0 1:0 30 1] [21] 1 0
D 1.189128767 _2_ MAC  --- 42 cbr 282 [5 1 0 0] ------- [0:0 1:0 30 1] [21] 0 0
s 1.194000000 _0_ MAC  --- 43 cbr 282 [5 2 0 0] ------- [0:1 2:0 30 2] [21] 0 0
D 1.195128767 _1_ MAC  --- 43 cbr 282 [5 2 0 0] ------- [0:1 2:0 30 2] [21] 0 0
r 1.195128767 _2_ MAC  --- 43 cbr 230 [5 2 0 0] ------- [0:1 2:0 30 2] [21] 1 0
s 1.236000000 _0_ MAC  --- 44 cbr 282 [5 1 0 0] ------- [0:0 1:0 30 1] [22] 0 0
r 1.237128767 _1_ MAC  --- 44 cbr 230 [5 1 0 0] ------- [0:0 1:0 30 1] [22] 1 0
D 1.237128767 _2_ MAC  --- 44 cbr 282 [5 1 0 0] ------- [0:0 1:0 30 1] [22] 0 0
s 1.242000000 _0_ MAC  --- 45 cbr 282 [5 2 0 0] ------- [0:1 2:0 30 2] [22] 0 0
D 1.243128767 _1_ MAC  --- 45 cbr 282 [5 2 0 0] ------- [0:1 2:0 30 2] [22] 0 0
r 1.243128767 _2_ MAC  --- 45 cbr 230 [5 2 0 0] ------- [0:1 2:0 30 2] [22] 1 0
s 1.290000000 _0_ MAC  --- 46 cbr 282 [5 1 0 0] ------- [0:0 1:0 30 1] [23] 0 0
r 1.291128767 _1_ MAC  --- 46 cbr 230 [5 1 0 0] ------- [0:0 1:0 30 1] [23] 1 0
D 1.291128767 _2_ MAC  --- 46 cbr 282 [5 1 0 0] ------- [0:0 1:0 30 1] [23] 0 0
s 1.308000000 _0_ MAC  --- 47 cbr 282 [5 2 0 0] ------- [0:1 2:0 30 2] [23] 0 0
D 1.309128767 _1_ MAC  --- 47 cbr 282 [5 2 0 0] ------- [0:1 2:0 30 2] [23] 0 0
r 1.309128767 _2_ MAC  --- 47 cbr 230 [5 2 0 0] ------- [0:1 2:0 30 2] [23] 1 0
s 1.356000000 _0_ MAC  --- 48 cbr 282 [5 1 0 0] ------- [0:0 1:0 30 1] [24] 0 0
r 1.357128767 _1_ MAC  --- 48 cbr 230 [5 1 0 0] ------- [0:0 1:0 30 1] [24] 1 0
D 1.357128767 _2_ MAC  --- 48 cbr 282 [5 1 0 0] ------- [0:0 1:0 30 1] [24] 0 0
s 1.362000000 _0_ MAC  --- 49 cbr 282 [5 2 0 0] ------- [0:1 2:0 30 2] [24] 0 0
D 1.363128767 _1_ MAC  --- 49 cbr 282 [5 2 0 0] ------- [0:1 2:0 30 2] [24] 0 0
r 1.363128767 _2_ MAC  --- 49 cbr 230 [5 2 0 0] ------- [0:1 2:0 30 2] [24] 1 0
s 1.404000000 _0_ MAC  --- 50 cbr 282 [5 1 0 0] ------- [0:0 1:0 30 1] [25] 0 0
r 1.405128767 _1_ MAC  --- 50 cbr 230 [5 1 0 0] ------- [0:0 1:0 30 1] [25] 1 0
D 1.405128767 _2_ MAC  --- 50 cbr 282 [5 1 0 0] ------- [0:0 1:0 30 1] [25] 0 0
s 1.410000000 _0_ MAC  --- 51 cbr 282 [5 2 0 0] ------- [0:1 2:0 30 2] [25] 0 0
D 1.411128767 _1_ MAC  --- 51 cbr 282 [5 2 0 0] ------- [0:1 2:0 30 2] [25] 0 0
r 1.411128767 _2_ MAC  --- 51 cbr 230 [5 2 0 0] ------- [0:1 2:0 30 2] [25] 1 0
s 1.458000000 _0_ MAC  --- 52 cbr 282 [5 1 0 0] ------- [0:0 1:0 30 1] [26] 0 0
r 1.459128767 _1_ MAC  --- 52 cbr 230 [5 1 0 0] ------- [0:0 1:0 30 1] [26] 1 0
D 1.459128767 _2_ MAC  --- 52 cbr 282 [5 1 0 0] ------- [0:0 1:0 30 1] [26] 0 0
s 1.476000000 _0_ MAC  --- 53 cbr 282 [5 2 0 0] ------- [0:1 2:0 30 2] [26] 0 0
D 1.477128767 _1_ MAC  --- 53 cbr 282 [5 2 0 0] ------- [0:1 2:0 30 2] [26] 0 0
r 1.477128767 _2_ MAC  --- 53 cbr 230 [5 2 0 0] ------- [0:1 2:0 30 2] [26] 1 0
s 1.524000000 _0_ MAC  --- 54 cbr 282 [5 1 0 0] ------- [0:0 1:0 30 1] [27] 0 0
r 1.525128767 _1_ MAC  --- 54 cbr 230 [5 1 0 0] ------- [0:0 1:0 30 1] [27] 1 0
D 1.525128767 _2_ MAC  --- 54 cbr 282 [5 1 0 0] ------- [0:0 1:0 30 1] [27] 0 0
s 1.530000000 _0_ MAC  --- 55 cbr 282 [5 2 0 0] ------- [0:1 2:0 30 2] [27] 0 0
D 1.531128767 _1_ MAC  --- 55 cbr 282 [5 2 0 0] ------- [0:1 2:0 30 2] [27] 0 0
r 1.531128767 _2_ MAC  --- 55 cbr 230 [5 2 0 0] ------- [0:1 2:0 30 2] [27] 1 0
s 1.572000000 _0_ MAC  --- 56 cbr 282 [5 1 0 0] ------- [0:0 1:0 30 1] [28] 0 0
r 1.573128767 _1_ MAC  --- 56 cbr 230 [5 1 0 0] ------- [0:0 1:0 30 1] [28] 1 0
D 1.573128767 _2_ MAC  --- 56 cbr 282 [5 1 0 0] ------- [0:0 1:0 30 1] [28] 0 0
s 1.578000000 _0_ MAC  --- 57 cbr 282 [5 2 0 0] ------- [0:1 2:0 30 2] [28] 0 0
D 1.579128767 _1_ MAC  --- 57 cbr 282 [5 2 0 0] ------- [0:1 2:0 30 2] [28] 0 0
r 1.579128767 _2_ MAC  --- 57 cbr 230 [5 2 0 0] ------- [0:1 2:0 30 2] [28] 1 0
s 1.626000000 _0_ MAC  --- 58 cbr 282 [5 1 0 0] ------- [0:0 1:0 30 1] [29] 0 0
r 1.627128767 _1_ MAC  --- 58 cbr 230 [5 1 0 0] ------- [0:0 1:0 30 1] [29] 1 0
D 1.627128767 _2_ MAC  --- 58 cbr 282 [5 1 0 0] ------- [0:0 1:0 30 1] [29] 0 0
s 1.644000000 _0_ MAC  --- 59 cbr 282 [5 2 0 0] ------- [0:1 2:0 30 2] [29] 0 0
D 1.645128767 _1_ MAC  --- 59 cbr 282 [5 2 0 0] ------- [0:1 2:0 30 2] [29] 0 0
r 1.645128767 _2_ MAC  --- 59 cbr 230 [5 2 0 0] ------- [0:1 2:0 30 2] [29] 1 0
s 1.692000000 _0_ MAC  --- 60 cbr 282 [5 1 0 0] ------- [0:0 1:0 30 1] [30] 0 0
r 1.693128767 _1_ MAC  --- 60 cbr 230 [5 1 0 0] ------- [0:0 1:0 30 1] [30] 1 0
D 1.693128767 _2_ MAC  --- 60 cbr 282 [5 1 0 0] ------- [0:0 1:0 30 1] [30] 0 0
s 1.698000000 _0_ MAC  --- 61 cbr 282 [5 2 0 0] ------- [0:1 2:0 30 2] [30] 0 0
D 1.699128767 _1_ MAC  --- 61 cbr 282 [5 2 0 0] ------- [0:1 2:0 30 2] [30] 0 0
r 1.699128767 _2_ MAC  --- 61 cbr 230 [5 2 0 0] ------- [0:1 2:0 30 2] [30] 1 0
s 1.740000000 _0_ MAC  --- 62 cbr 282 [5 1 0 0] ------- [0:0 1:0 30 1] [31] 0 0
r 1.741128767 _1_ MAC  --- 62 cbr 230 [5 1 0 0] ------- [0:0 1:0 30 1] [31] 1 0
D 1.741128767 _2_ MAC  --- 62 cbr 282 [5 1 0 0] ------- [0:0 1:0 30 1] [31] 0 0
s 1.746000000 _0_ MAC  --- 63 cbr 282 [5 2 0 0] ------- [0:1 2:0 30 2] [31] 0 0
D 1.747128767 _1_ MAC  --- 63 cbr 282 [5 2 0 0] ------- [0:1 2:0 30 2] [31] 0 0
r 1.747128767 _2_ MAC  --- 63 cbr 230 [5 2 0 0] ------- [0:1 2:0 30 2] [31] 1 0
s 1.794000000 _0_ MAC  --- 64 cbr 282 [5 1 0 0] ------- [0:0 1:0 30 1] [32] 0 0
r 1.795128767 _1_ MAC  --- 64 cbr 230 [5 1 0 0] ------- [0:0 1:0 30 1] [32] 1 0
D 1.795128767 _2_ MAC  --- 64 cbr 282 [5 1 0 0] ------- [0:0 1:0 30 1] [32] 0 0
s 1.812000000 _0_ MAC  --- 65 cbr 282 [5 2 0 0] ------- [0:1 2:0 30 2] [32] 0 0
D 1.813128767 _1_ MAC  --- 65 cbr 282 [5 2 0 0] ------- [0:1 2:0 30 2] [32] 0 0
r 1.813128767 _2_ MAC  --- 65 cbr 230 [5 2 0 0] ------- [0:1 2:0 30 2] [32] 1 0
s 1.860000000 _0_ MAC  --- 66 cbr 282 [5 1 0 0] ------- [0:0 1:0 30 1] [33] 0 0
r 1.861128767 _1_ MAC  --- 66 cbr 230 [5 1 0 0] ------- [0:0 1:0 30 1] [33] 1 0
D 1.861128767 _2_ MAC  --- 66 cbr 282 [5 1 0 0] ------- [0:0 1:0 30 1] [33] 0 0
s 1.866000000 _0_ MAC  --- 67 cbr 282 [5 2 0 0] ------- [0:1 2:0 30 2] [33] 0 0
D 1.867128767 _1_ MAC  --- 67 cbr 282 [5 2 0 0] ------- [0:1 2:0 30 2] [33] 0 0
r 1.867128767 _2_ MAC  --- 67 cbr 230 [5 2 0 0] ------- [0:1 2:0 30 2] [33] 1 0
s 1.908000000 _0_ MAC  --- 68 cbr 282 [5 1 0 0] ------- [0:0 1:0 30 1] [34] 0 0
r 1.909128767 _1_ MAC  --- 68 cbr 230 [5 1 0 0] ------- [0:0 1:0 30 1] [34] 1 0
D 1.909128767 _2_ MAC  --- 68 cbr 282 [5 1 0 0] ------- [0:0 1:0 30 1] [34] 0 0
s 1.914000000 _0_ MAC  --- 69 cbr 282 [5 2 0 0] ------- [0:1 2:0 30 2] [34] 0 0
D 1.915128767 _1_ MAC  --- 69 cbr 282 [5 2 0 0] ------- [0:1 2:0 30 2] [34] 0 0
r 1.915128767 _2_ MAC  --- 69 cbr 230 [5 2 0 0] ------- [0:1 2:0 30 2] [34] 1 0
s 1.962000000 _0_ MAC  --- 70 cbr 282 [5 1 0 0] ------- [0:0 1:0 30 1] [35] 0 0
r 1.963128767 _1_ MAC  --- 70 cbr 230 [5 1 0 0] ------- [0:0 1:0 30 1] [35] 1 0
D 1.963128767 _2_ MAC  --- 70 cbr 282 [5 1 0 0] ------- [0:0 1:0 30 1] [35] 0 0
s 1.980000000 _0_ MAC  --- 71 cbr 282 [5 2 0 0] ------- [0:1 2:0 30 2] [35] 0 0
D 1.981128767 _1_ MAC  --- 71 cbr 282 [5 2 0 0] ------- [0:1 2:0 30 2] [35] 0 0
r 1.981128767 _2_ MAC  --- 71 cbr 230 [5 2 0 0] ------- [0:1 2:0 30 2] [35] 1 0
s 2.028000000 _0_ MAC  --- 72 cbr 282 [5 1 0 0] ------- [0:0 1:0 30 1] [36] 0 0
r 2.029128767 _1_ MAC  --- 72 cbr 230 [5 1 0 0] ------- [0:0 1:0 30 1] [36] 1 0
D 2.029128767 _2_ MAC  --- 72 cbr 282 [5 1 0 0] ------- [0:0 1:0 30 1] [36] 0 0
s 2.034000000 _0_ MAC  --- 73 cbr 282 [5 2 0 0] ------- [0:1 2:0 30 2] [36] 0 0
D 2.035128767 _1_ MAC  --- 73 cbr 282 [5 2 0 0] ------- [0:1 2:0 30 2] [36] 0 0
r 2.035128767 _2_ MAC  --- 73 cbr 230 [5 2 0 0] ------- [0:1 2:0 30 2] [36] 1 0
s 2.076000000 _0_ MAC  --- 74 cbr 282 [5 1 0 0] ------- [0:0 1:0 30 1] [37] 0 0
r 2.077128767 _1_ MAC  --- 74 cbr 230 [5 1 0 0] ------- [0:0 1:0 30 1] [37] 1 0
D 2.077128767 _2_ MAC  --- 74 cbr 282 [5 1 0 0] ------- [0:0 1:0 30 1] [37] 0 0
s 2.082000000 _0_ MAC  --- 75 cbr 282 [5 2 0 0] ------- [0:1 2:0 30 2] [37] 0 0
D 2.083128767 _1_ MAC  --- 75 cbr 282 [5 2 0 0] ------- [0:1 2:0 30 2] [37] 0 0
r 2.083128767 _2_ MAC  --- 75 cbr 230 [5 2 0 0] ------- [0:1 2:0 30 2] [37] 1 0
s 2.130000000 _0_ MAC  --- 76 cbr 282 [5 1 0 0] ------- [0:0 1:0 30 1] [38] 0 0
r 2.131128767 _1_ MAC  --- 76 cbr 230 [5 1 0 0] ------- [0:0 1:0 30 1] [38] 1 0
D 2.131128767 _2_ MAC  --- 76 cbr 282 [5 1 0 0] ------- [0:0 1:0 30 1] [38] 0 0
s 2.148000000 _0_ MAC  --- 77 cbr 282 [5 2 0 0] ------- [0:1 2:0 30 2] [38] 0 0
D 2.149128767 _1_ MAC  --- 77 cbr 282 [5 2 0 0] ------- [0:1 2:0 30 2] [38] 0 0
r 2.149128767 _2_ MAC  --- 77 cbr 230 [5 2 0 0] ------- [0:1 2:0 30 2] [38] 1 0
s 2.196000000 _0_ MAC  --- 78 cbr 282 [5 1 0 0] ------- [0:0 1:0 30 1] [39] 0 0
r 2.197128767 _1_ MAC  --- 78 cbr 230 [5 1 0 0] ------- [0:0 1:0 30 1] [39] 1 0
D 2.197128767 _2_ MAC  --- 78 cbr 282 [5 1 0 0] ------- [0:0 1:0 30 1] [39] 0 0
s 2.202000000 _0_ MAC  --- 79 cbr 282 [5 2 0 0] ------- [0:1 2:0 30 2] [39] 0 0
D 2.203128767 _1_ MAC  --- 79 cbr 282 [5 2 0 0] ------- [0:1 2:0 30 2] [39] 0 0
r 2.203128767 _2_ MAC  --- 79 cbr 230 [5 2 0 0] ------- [0:1 2:0 30 2] [39] 1 0
s 2.244000000 _0_ MAC  --- 80 cbr 282 [5 1 0 0] ------- [0:0 1:0 30 1] [40] 0 0
r 2.245128767 _1_ MAC  --- 80 cbr 230 [5 1 0 0] ------- [0:0 1:0 30 1] [40] 1 0
D 2.245128767 _2_ MAC  --- 80 cbr 282 [5 1 0 0] ------- [0:0 1:0 30 1] [40] 0 0
s 2.250000000 _0_ MAC  --- 81 cbr 282 [5 2 0 0] ------- [0:1 2:0 30 2] [40] 0 0
D 2.251128767 _1_ MAC  --- 81 cbr 282 [5 2 0 0] ------- [0:1 2:0 30 2] [40] 0 0
r 2.251128767 _2_ MAC  --- 81 cbr 230 [5 2 0 0] ------- [0:1 2:0 30 2] [40] 1 0
s 2.298000000 _0_ MAC  --- 82 cbr 282 [5 1 0 0] ------- [0:0 1:0 30 1] [41] 0 0
r 2.299128767 _1_ MAC  --- 82 cbr 230 [5 1 0 0] ------- [0:0 1:0 30 1] [41] 1 0
D 2.299128767 _2_ MAC  --- 82 cbr 282 [5 1 0 0] ------- [0:0 1:0 30 1] [41] 0 0
s 2.316000000 _0_ MAC  --- 83 cbr 282 [5 2 0 0] ------- [0:1 2:0 30 2] [41] 0 0
D 2.317128767 _1_ MAC  --- 83 cbr 282 [5 2 0 0] ------- [0:1 2:0 30 2] [41] 0 0
r 2.317128767 _2_ MAC  --- 83 cbr 230 [5 2 0 0] ------- [0:1 2:0 30 2] [41] 1 0
s 2.364000000 _0_ MAC  --- 84 cbr 282 [5 1 0 0] ------- [0:0 1:0 30 1] [42] 0 0
r 2.365128767 _1_ MAC  --- 84 cbr 230 [5 1 0 0] ------- [0:0 1:0 30 1] [42] 1 0
D 2.365128767 _2_ MAC  --- 84 cbr 282 [5 1 0 0] ------- [0:0 1:0 30 1] [42] 0 0
s 2.370000000 _0_ MAC  --- 85 cbr 282 [5 2 0 0] ------- [0:1 2:0 30 2] [42] 0 0
D 2.371128767 _1_ MAC  --- 85 cbr 282 [5 2 0 0] ------- [0:1 2:0 30 2] [42] 0 0
r 2.371128767 _2_ MAC  --- 85 cbr 230 [5 2 0 0] ------- [0:1 2:0 30 2] [42] 1 0
s 2.412000000 _0_ MAC  --- 86 cbr 282 [5 1 0 0] ------- [0:0 1:0 30 1] [43] 0 0
r 2.413128767 _1_ MAC  --- 86 cbr 230 [5 1 0 0] ------- [0:0 1:0 30 1] [43] 1 0
D 2.413128767 _2_ MAC  --- 86 cbr 282 [5 1 0 0] ------- [0:0 1:0 30 1] [43] 0 0
s 2.418000000 _0_ MAC  --- 87 cbr 282 [5 2 0 0] ------- [0:1 2:0 30 2] [43] 0 0
D 2.419128767 _1_ MAC  --- 87 cbr 282 [5 2 0 0] ------- [0:1 2:0 30 2] [43] 0 0
r 2.419128767 _2_ MAC  --- 87 cbr 230 [5 2 0 0] ------- [0:1 2:0 30 2] [43] 1 0
s 2.466000000 _0_ MAC  --- 88 cbr 282 [5 1 0 0] ------- [0:0 1:0 30 1] [44] 0 0
r 2.467128767 _1_ MAC  --- 88 cbr 230 [5 1 0 0] ------- [0:0 1:0 30 1] [44] 1 0
D 2.467128767 _2_ MAC  --- 88 cbr 282 [5 1 0 0] ------- [0:0 1:0 30 1] [44] 0 0
s 2.484000000 _0_ MAC  --- 89 cbr 282 [5 2 0 0] ------- [0:1 2:0 30 2] [44] 0 0
D 2.485128767 _1_ MAC  --- 89 cbr 282 [5 2 0 0] ------- [0:1 2:0 30 2] [44] 0 0
r 2.485128767 _2_ MAC  --- 89 cbr 230 [5 2 0 0] ------- [0:1 2:0 30 2] [44] 1 0
s 2.532000000 _0_ MAC  --- 90 cbr 282 [5 1 0 0] ------- [0:0 1:0 30 1] [45] 0 0
r 2.533128767 _1_ MAC  --- 90 cbr 230 [5 1 0 0] ------- [0:0 1:0 30 1] [45] 1 0
D 2.533128767 _2_ MAC  --- 90 cbr 282 [5 1 0 0] ------- [0:0 1:0 30 1] [45] 0 0
s 2.538000000 _0_ MAC  --- 91 cbr 282 [5 2 0 0] ------- [0:1 2:0 30 2] [45] 0 0
D 2.539128767 _1_ MAC  --- 91 cbr 282 [5 2 0 0] ------- [0:1 2:0 30 2] [45] 0 0
r 2.539128767 _2_ MAC  --- 91 cbr 230 [5 2 0 0] ------- [0:1 2:0 30 2] [45] 1 0
s 2.580000000 _0_ MAC  --- 92 cbr 282 [5 1 0 0] ------- [0:0 1:0 30 1] [46] 0 0
r 2.581128767 _1_ MAC  --- 92 cbr 230 [5 1 0 0] ------- [0:0 1:0 30 1] [46] 1 0
D 2.581128767 _2_ MAC  --- 92 cbr 282 [5 1 0 0] ------- [0:0 1:0 30 1] [46] 0 0
s 2.586000000 _0_ MAC  --- 93 cbr 282 [5 2 0 0] ------- [0:1 2:0 30 2] [46] 0 0
D 2.587128767 _1_ MAC  --- 93 cbr 282 [5 2 0 0] ------- [0:1 2:0 30 2] [46] 0 0
r 2.587128767 _2_ MAC  --- 93 cbr 230 [5 2 0 0] ------- [0:1 2:0 30 2] [46] 1 0
s 2.634000000 _0_ MAC  --- 94 cbr 282 [5 1 0 0] ------- [0:0 1:0 30 1] [47] 0 0
r 2.635128767 _1_ MAC  --- 94 cbr 230 [5 1 0 0] ------- [0:0 1:0 30 1] [47] 1 0
D 2.635128767 _2_ MAC  --- 94 cbr 282 [5 1 0 0] ------- [0:0 1:0 30 1] [47] 0 0
s 2.652000000 _0_ MAC  --- 95 cbr 282 [5 2 0 0] ------- [0:1 2:0 30 2] [47] 0 0
D 2.653128767 _1_ MAC  --- 95 cbr 282 [5 2 0 0] ------- [0:1 2:0 30 2] [47] 0 0
r 2.653128767 _2_ MAC  --- 95 cbr 230 [5 2 0 0] ------- [0:1 2:0 30 2] [47] 1 0
s 2.700000000 _0_ MAC  --- 96 cbr 282 [5 1 0 0] ------- [0:0 1:0 30 1] [48] 0 0
r 2.701128767 _1_ MAC  --- 96 cbr 230 [5 1 0 0] ------- [0:0 1:0 30 1] [48] 1 0
D 2.701128767 _2_ MAC  --- 96 cbr 282 [5 1 0 0] ------- [0:0 1:0 30 1] [48] 0 0
s 2.706000000 _0_ MAC  --- 97 cbr 282 [5 2 0 0] ------- [0:1 2:0 30 2] [48] 0 0
D 2.707128767 _1_ MAC  --- 97 cbr 282 [5 2 0 0] ------- [0:1 2:0 30 2] [48] 0 0
r 2.707128767 _2_ MAC  --- 97 cbr 230 [5 2 0 0] ------- [0:1 2:0 30 2] [48] 1 0
s 2.748000000 _0_ MAC  --- 98 cbr 282 [5 1 0 0] ------- [0:0 1:0 30 1] [49] 0 0
r 2.749128767 _1_ MAC  --- 98 cbr 230 [5 1 0 0] ------- [0:0 1:0 30 1] [49] 1 0
D 2.749128767 _2_ MAC  --- 98 cbr 282 [5 1 0 0] ------- [0:0 1:0 30 1] [49] 0 0
s 2.754000000 _0_ MAC  --- 99 cbr 282 [5 2 0 0] ------- [0:1 2:0 30 2] [49] 0 0
D 2.755128767 _1_ MAC  --- 99 cbr 282 [5 2 0 0] ------- [0:1 2:0 30 2] [49] 0 0
r 2.755128767 _2_ MAC  --- 99 cbr 230 [5 2 0 0] ------- [0:1 2:0 30 2] [49] 1 0
s 2.802000000 _0_ MAC  --- 100 cbr 282 [5 1 0 0] ------- [0:0 1:0 30 1] [50] 0 0
r 2.803128767 _1_ MAC  --- 100 cbr 230 [5 1 0 0] ------- [0:0 1:0 30 1] [50] 1 0
D 2.803128767 _2_ MAC  --- 100 cbr 282 [5 1 0 0] ------- [0:0 1:0 30 1] [50] 0 0
s 2.820000000 _0_ MAC  --- 101 cbr 282 [5 2 0 0] ------- [0:1 2:0 30 2] [50] 0 0
D 2.821128767 _1_ MAC  --- 101 cbr 282 [5 2 0 0] ------- [0:1 2:0 30 2] [50] 0 0
r 2.821128767 _2_ MAC  --- 101 cbr 230 [5 2 0 0] ------- [0:1 2:0 30 2] [50] 1 0
s 2.868000000 _0_ MAC  --- 102 cbr 282 [5 1 0 0] ------- [0:0 1:0 30 1] [51] 0 0
r 2.869128767 _1_ MAC  --- 102 cbr 230 [5 1 0 0] ------- [0:0 1:0 30 1] [51] 1 0
D 2.869128767 _2_ MAC  --- 102 cbr 282 [5 1 0 0] ------- [0:0 1:0 30 1] [51] 0 0
s 2.874000000 _0_ MAC  --- 103 cbr 282 [5 2 0 0] ------- [0:1 2:0 30 2] [51] 0 0
D 2.875128767 _1_ MAC  --- 103 cbr 282 [5 2 0 0] ------- [0:1 2:0 30 2] [51] 0 0
r 2.875128767 _2_ MAC  --- 103 cbr 230 [5 2 0 0] ------- [0:1 2:0 30 2] [51] 1 0
s 2.916000000 _0_ MAC  --- 104 cbr 282 [5 1 0 0] ------- [0:0 1:0 30 1] [52] 0 0
r 2.917128767 _1_ MAC  --- 104 cbr 230 [5 1 0 0] ------- [0:0 1:0 30 1] [52] 1 0
D 2.917128767 _2_ MAC  --- 104 cbr 282 [5 1 0 0] ------- [0:0 1:0 30 1] [52] 0 0
s 2.922000000 _0_ MAC  --- 105 cbr 282 [5 2 0 0] ------- [0:1 2:0 30 2] [52] 0 0
D 2.923128767 _1_ MAC  --- 105 cbr 282 [5 2 0 0] ------- [0:1 2:0 30 2] [52] 0 0
r 2.923128767 _2_ MAC  --- 105 cbr 230 [5 2 0 0] ------- [0:1 2:0 30 2] [52] 1 0
s 2.970000000 _0_ MAC  --- 106 cbr 282 [5 1 0 0] ------- [0:0 1:0 30 1] [53] 0 0
r 2.971128767 _1_ MAC  --- 106 cbr 230 [5 1 0 0] ------- [0:0 1:0 30 1] [53] 1 0
D 2.971128767 _2_ MAC  --- 106 cbr 282 [5 1 0 0] ------- [0:0 1:0 30 1] [53] 0 0
s 2.988000000 _0_ MAC  --- 107 cbr 282 [5 2 0 0] ------- [0:1 2:0 30 2] [53] 0 0
D 2.989128767 _1_ MAC  --- 107 cbr 282 [5 2 0 0] ------- [0:1 2:0 30 2] [53] 0 0
r 2.989128767 _2_ MAC  --- 107 cbr 230 [5 2 0 0] ------- [0:1 2:0 30 2] [53] 1 0
s 3.036000000 _0_ MAC  --- 108 cbr 282 [5 1 0 0] ------- [0:0 1:0 30 1] [54] 0 0
r 3.037128767 _1_ MAC  --- 108 cbr 230 [5 1 0 0] ------- [0:0 1:0 30 1] [54] 1 0
D 3.037128767 _2_ MAC  --- 108 cbr 282 [5 1 0 0] ------- [0:0 1:0 30 1] [54] 0 0
s 3.042000000 _0_ MAC  --- 109 cbr 282 [5 2 0 0] ------- [0:1 2:0 30 2] [54] 0 0
D 3.043128767 _1_ MAC  --- 109 cbr 282 [5 2 0 0] ------- [0:1 2:0 30 2] [54] 0 0
r 3.043128767 _2_ MAC  --- 109 cbr 230 [5 2 0 0] ------- [0:1 2:0 30 2] [54] 1 0
s 3.084000000 _0_ MAC  --- 110 cbr 282 [5 1 0 0] ------- [0:0 1:0 30 1] [55] 0 0
r 3.085128767 _1_ MAC  --- 110 cbr 230 [5 1 0 0] ------- [0:0 1:0 30 1] [55] 1 0
D 3.085128767 _2_ MAC  --- 110 cbr 282 [5 1 0 0] ------- [0:0 1:0 30 1] [55] 0 0
s 3.090000000 _0_ MAC  --- 111 cbr 282 [5 2 0 0] ------- [0:1 2:0 30 2] [55] 0 0
D 3.091128767 _1_ MAC  --- 111 cbr 282 [5 2 0 0] ------- [0:1 2:0 30 2] [55] 0 0
r 3.091128767 _2_ MAC  --- 111 cbr 230 [5 2 0 0] ------- [0:1 2:0 30 2] [55] 1 0
s 3.138000000 _0_ MAC  --- 112 cbr 282 [5 1 0 0] ------- [0:0 1:0 30 1] [56] 0 0
r 3.139128767 _1_ MAC  --- 112 cbr 230 [5 1 0 0] ------- [0:0 1:0 30 1] [56] 1 0
D 3.139128767 _2_ MAC  --- 112 cbr 282 [5 1 0 0] ------- [0:0 1:0 30 1] [56] 0 0