n -t * -s 0  -x 50 -y 50 -Z 0 -z 10  -v circle -c black
n -t * -s 1  -x 50 -y 250 -Z 0 -z 10  -v circle -c black
n -t * -s 2  -x 50 -y 450 -Z 0 -z 10  -v circle -c black
n -t * -s 3  -x 50 -y 650 -Z 0 -z 10  -v circle -c black
n -t * -s 4  -x 50 -y 850 -Z 0 -z 10  -v circle -c black
n -t * -s 5  -x 250 -y 50 -Z 0 -z 10  -v circle -c black
n -t * -s 6  -x 250 -y 250 -Z 0 -z 10  -v circle -c black
n -t * -s 7  -x 250 -y 450 -Z 0 -z 10  -v circle -c black
n -t * -s 8  -x 250 -y 650 -Z 0 -z 10  -v circle -c black
n -t * -s 9  -x 250 -y 850 -Z 0 -z 10  -v circle -c black
n -t * -s 10  -x 450 -y 50 -Z 0 -z 10  -v circle -c black
n -t * -s 11  -x 450 -y 250 -Z 0 -z 10  -v circle -c black
n -t * -s 12  -x 450 -y 450 -Z 0 -z 10  -v circle -c black
n -t * -s 13  -x 450 -y 650 -Z 0 -z 10  -v circle -c black
n -t * -s 14  -x 450 -y 850 -Z 0 -z 10  -v circle -c black
n -t * -s 15  -x 650 -y 50 -Z 0 -z 10  -v circle -c black
n -t * -s 16  -x 650 -y 250 -Z 0 -z 10  -v circle -c black
n -t * -s 17  -x 650 -y 450 -Z 0 -z 10  -v circle -c black
n -t * -s 18  -x 650 -y 650 -Z 0 -z 10  -v circle -c black
n -t * -s 19  -x 650 -y 850 -Z 0 -z 10  -v circle -c black
n -t * -s 20  -x 850 -y 50 -Z 0 -z 10  -v circle -c black
n -t * -s 21  -x 850 -y 250 -Z 0 -z 10  -v circle -c black
n -t * -s 22  -x 850 -y 450 -Z 0 -z 10  -v circle -c black
n -t * -s 23  -x 850 -y 650 -Z 0 -z 10  -v circle -c black
n -t * -s 24  -x 850 -y 850 -Z 0 -z 10  -v circle -c black
V -t * -v 1.0a5 -a 0
W -t * -x 1000 -y 1000
A -t * -n 1 -p 0 -o 0x7fffffff -c 30 -a 1
A -t * -h 1 -m 1073741823 -s 0
+ -t 0.000000000 -s 0 -d -1 -p AODV -e 44 -c 2 -a 0 -i 0 -k RTR 
- -t 0.000000000 -s 0 -d -1 -p AODV -e 44 -c 2 -a 0 -i 0 -k RTR
h -t 0.000000000 -s 0 -d -1 -p AODV -e 44 -c 2 -a 0 -i 0 -k RTR
+ -t 0.000000000 -s 1 -d -1 -p AODV -e 44 -c 2 -a 0 -i 0 -k RTR 
- -t 0.000000000 -s 1 -d -1 -p AODV -e 44 -c 2 -a 0 -i 0 -k RTR
h -t 0.000000000 -s 1 -d -1 -p AODV -e 44 -c 2 -a 0 -i 0 -k RTR
+ -t 0.000000000 -s 2 -d -1 -p AODV -e 44 -c 2 -a 0 -i 0 -k RTR 
- -t 0.000000000 -s 2 -d -1 -p AODV -e 44 -c 2 -a 0 -i 0 -k RTR
h -t 0.000000000 -s 2 -d -1 -p AODV -e 44 -c 2 -a 0 -i 0 -k RTR
+ -t 0.000000000 -s 3 -d -1 -p AODV -e 44 -c 2 -a 0 -i 0 -k RTR 
- -t 0.000000000 -s 3 -d -1 -p AODV -e 44 -c 2 -a 0 -i 0 -k RTR
h -t 0.000000000 -s 3 -d -1 -p AODV -e 44 -c 2 -a 0 -i 0 -k RTR
+ -t 0.000000000 -s 4 -d -1 -p AODV -e 44 -c 2 -a 0 -i 0 -k RTR 
- -t 0.000000000 -s 4 -d -1 -p AODV -e 44 -c 2 -a 0 -i 0 -k RTR
h -t 0.000000000 -s 4 -d -1 -p AODV -e 44 -c 2 -a 0 -i 0 -k RTR
+ -t 0.000000000 -s 5 -d -1 -p AODV -e 44 -c 2 -a 0 -i 0 -k RTR 
- -t 0.000000000 -s 5 -d -1 -p AODV -e 44 -c 2 -a 0 -i 0 -k RTR
h -t 0.000000000 -s 5 -d -1 -p AODV -e 44 -c 2 -a 0 -i 0 -k RTR
+ -t 0.000000000 -s 6 -d -1 -p AODV -e 44 -c 2 -a 0 -i 0 -k RTR 
- -t 0.000000000 -s 6 -d -1 -p AODV -e 44 -c 2 -a 0 -i 0 -k RTR
h -t 0.000000000 -s 6 -d -1 -p AODV -e 44 -c 2 -a 0 -i 0 -k RTR
+ -t 0.000000000 -s 7 -d -1 -p AODV -e 44 -c 2 -a 0 -i 0 -k RTR 
- -t 0.000000000 -s 7 -d -1 -p AODV -e 44 -c 2 -a 0 -i 0 -k RTR
h -t 0.000000000 -s 7 -d -1 -p AODV -e 44 -c 2 -a 0 -i 0 -k RTR
+ -t 0.000000000 -s 8 -d -1 -p AODV -e 44 -c 2 -a 0 -i 0 -k RTR 
- -t 0.000000000 -s 8 -d -1 -p AODV -e 44 -c 2 -a 0 -i 0 -k RTR
h -t 0.000000000 -s 8 -d -1 -p AODV -e 44 -c 2 -a 0 -i 0 -k RTR
+ -t 0.000000000 -s 9 -d -1 -p AODV -e 44 -c 2 -a 0 -i 0 -k RTR 
- -t 0.000000000 -s 9 -d -1 -p AODV -e 44 -c 2 -a 0 -i 0 -k RTR
h -t 0.000000000 -s 9 -d -1 -p AODV -e 44 -c 2 -a 0 -i 0 -k RTR
+ -t 0.000000000 -s 10 -d -1 -p AODV -e 44 -c 2 -a 0 -i 0 -k RTR 
- -t 0.000000000 -s 10 -d -1 -p AODV -e 44 -c 2 -a 0 -i 0 -k RTR
h -t 0.000000000 -s 10 -d -1 -p AODV -e 44 -c 2 -a 0 -i 0 -k RTR
+ -t 0.000000000 -s 11 -d -1 -p AODV -e 44 -c 2 -a 0 -i 0 -k RTR 
- -t 0.000000000 -s 11 -d -1 -p AODV -e 44 -c 2 -a 0 -i 0 -k RTR
h -t 0.000000000 -s 11 -d -1 -p AODV -e 44 -c 2 -a 0 -i 0 -k RTR
+ -t 0.000000000 -s 12 -d -1 -p AODV -e 44 -c 2 -a 0 -i 0 -k RTR 
- -t 0.000000000 -s 12 -d -1 -p AODV -e 44 -c 2 -a 0 -i 0 -k RTR
h -t 0.000000000 -s 12 -d -1 -p AODV -e 44 -c 2 -a 0 -i 0 -k RTR
+ -t 0.000000000 -s 13 -d -1 -p AODV -e 44 -c 2 -a 0 -i 0 -k RTR 
- -t 0.000000000 -s 13 -d -1 -p AODV -e 44 -c 2 -a 0 -i 0 -k RTR
h -t 0.000000000 -s 13 -d -1 -p AODV -e 44 -c 2 -a 0 -i 0 -k RTR
+ -t 0.000000000 -s 14 -d -1 -p AODV -e 44 -c 2 -a 0 -i 0 -k RTR 
- -t 0.000000000 -s 14 -d -1 -p AODV -e 44 -c 2 -a 0 -i 0 -k RTR
h -t 0.000000000 -s 14 -d -1 -p AODV -e 44 -c 2 -a 0 -i 0 -k RTR
+ -t 0.000000000 -s 15 -d -1 -p AODV -e 44 -c 2 -a 0 -i 0 -k RTR 
- -t 0.000000000 -s 15 -d -1 -p AODV -e 44 -c 2 -a 0 -i 0 -k RTR
h -t 0.000000000 -s 15 -d -1 -p AODV -e 44 -c 2 -a 0 -i 0 -k RTR
+ -t 0.000000000 -s 16 -d -1 -p AODV -e 44 -c 2 -a 0 -i 0 -k RTR 
- -t 0.000000000 -s 16 -d -1 -p AODV -e 44 -c 2 -a 0 -i 0 -k RTR
h -t 0.000000000 -s 16 -d -1 -p AODV -e 44 -c 2 -a 0 -i 0 -k RTR
+ -t 0.000000000 -s 17 -d -1 -p AODV -e 44 -c 2 -a 0 -i 0 -k RTR 
- -t 0.000000000 -s 17 -d -1 -p AODV -e 44 -c 2 -a 0 -i 0 -k RTR
h -t 0.000000000 -s 17 -d -1 -p AODV -e 44 -c 2 -a 0 -i 0 -k RTR
+ -t 0.000000000 -s 18 -d -1 -p AODV -e 44 -c 2 -a 0 -i 0 -k RTR 
- -t 0.000000000 -s 18 -d -1 -p AODV -e 44 -c 2 -a 0 -i 0 -k RTR
h -t 0.000000000 -s 18 -d -1 -p AODV -e 44 -c 2 -a 0 -i 0 -k RTR
+ -t 0.000000000 -s 19 -d -1 -p AODV -e 44 -c 2 -a 0 -i 0 -k RTR 
- -t 0.000000000 -s 19 -d -1 -p AODV -e 44 -c 2 -a 0 -i 0 -k RTR
h -t 0.000000000 -s 19 -d -1 -p AODV -e 44 -c 2 -a 0 -i 0 -k RTR
+ -t 0.000000000 -s 20 -d -1 -p AODV -e 44 -c 2 -a 0 -i 0 -k RTR 
- -t 0.000000000 -s 20 -d -1 -p AODV -e 44 -c 2 -a 0 -i 0 -k RTR
h -t 0.000000000 -s 20 -d -1 -p AODV -e 44 -c 2 -a 0 -i 0 -k RTR
+ -t 0.000000000 -s 21 -d -1 -p AODV -e 44 -c 2 -a 0 -i 0 -k RTR 
- -t 0.000000000 -s 21 -d -1 -p AODV -e 44 -c 2 -a 0 -i 0 -k RTR
h -t 0.000000000 -s 21 -d -1 -p AODV -e 44 -c 2 -a 0 -i 0 -k RTR
+ -t 0.000000000 -s 22 -d -1 -p AODV -e 44 -c 2 -a 0 -i 0 -k RTR 
- -t 0.000000000 -s 22 -d -1 -p AODV -e 44 -c 2 -a 0 -i 0 -k RTR
h -t 0.000000000 -s 22 -d -1 -p AODV -e 44 -c 2 -a 0 -i 0 -k RTR
+ -t 0.000000000 -s 23 -d -1 -p AODV -e 44 -c 2 -a 0 -i 0 -k RTR 
- -t 0.000000000 -s 23 -d -1 -p AODV -e 44 -c 2 -a 0 -i 0 -k RTR
h -t 0.000000000 -s 23 -d -1 -p AODV -e 44 -c 2 -a 0 -i 0 -k RTR
+ -t 0.000000000 -s 24 -d -1 -p AODV -e 44 -c 2 -a 0 -i 0 -k RTR 
- -t 0.000000000 -s 24 -d -1 -p AODV -e 44 -c 2 -a 0 -i 0 -k RTR
h -t 0.000000000 -s 24 -d -1 -p AODV -e 44 -c 2 -a 0 -i 0 -k RTR
+ -t 2.250509366 -s 0 -d -1 -p AODV -e 44 -c 2 -a 0 -i 0 -k RTR 
- -t 2.250509366 -s 0 -d -1 -p AODV -e 44 -c 2 -a 0 -i 0 -k RTR
h -t 2.250509366 -s 0 -d -1 -p AODV -e 44 -c 2 -a 0 -i 0 -k RTR
+ -t 2.271306991 -s 2 -d -1 -p AODV -e 44 -c 2 -a 0 -i 0 -k RTR 
- -t 2.271306991 -s 2 -d -1 -p AODV -e 44 -c 2 -a 0 -i 0 -k RTR
h -t 2.271306991 -s 2 -d -1 -p AODV -e 44 -c 2 -a 0 -i 0 -k RTR
r -t 2.274409667 -s 1 -d -1 -p AODV -e 44 -c 2 -a 0 -i 0 -k RTR
r -t 2.274409667 -s 5 -d -1 -p AODV -e 44 -c 2 -a 0 -i 0 -k RTR
r -t 2.274409667 -s 3 -d -1 -p AODV -e 44 -c 2 -a 0 -i 0 -k RTR
r -t 2.274409667 -s 7 -d -1 -p AODV -e 44 -c 2 -a 0 -i 0 -k RTR
+ -t 2.314191837 -s 13 -d -1 -p AODV -e 44 -c 2 -a 0 -i 0 -k RTR 
- -t 2.314191837 -s 13 -d -1 -p AODV -e 44 -c 2 -a 0 -i 0 -k RTR
h -t 2.314191837 -s 13 -d -1 -p AODV -e 44 -c 2 -a 0 -i 0 -k RTR
r -t 2.316409667 -s 12 -d -1 -p AODV -e 44 -c 2 -a 0 -i 0 -k RTR
r -t 2.316409667 -s 8 -d -1 -p AODV -e 44 -c 2 -a 0 -i 0 -k RTR
r -t 2.316409667 -s 14 -d -1 -p AODV -e 44 -c 2 -a 0 -i 0 -k RTR
r -t 2.316409667 -s 18 -d -1 -p AODV -e 44 -c 2 -a 0 -i 0 -k RTR
+ -t 2.382184007 -s 3 -d -1 -p AODV -e 44 -c 2 -a 0 -i 0 -k RTR 
- -t 2.382184007 -s 3 -d -1 -p AODV -e 44 -c 2 -a 0 -i 0 -k RTR
h -t 2.382184007 -s 3 -d -1 -p AODV -e 44 -c 2 -a 0 -i 0 -k RTR
+ -t 2.391208282 -s 19 -d -1 -p AODV -e 44 -c 2 -a 0 -i 0 -k RTR 
- -t 2.391208282 -s 19 -d -1 -p AODV -e 44 -c 2 -a 0 -i 0 -k RTR
h -t 2.391208282 -s 19 -d -1 -p AODV -e 44 -c 2 -a 0 -i 0 -k RTR
r -t 2.400409667 -s 2 -d -1 -p AODV -e 44 -c 2 -a 0 -i 0 -k RTR
r -t 2.400409667 -s 4 -d -1 -p AODV -e 44 -c 2 -a 0 -i 0 -k RTR
r -t 2.400409667 -s 8 -d -1 -p AODV -e 44 -c 2 -a 0 -i 0 -k RTR
r -t 2.400409667 -s 18 -d -1 -p AODV -e 44 -c 2 -a 0 -i 0 -k RTR
r -t 2.400409667 -s 14 -d -1 -p AODV -e 44 -c 2 -a 0 -i 0 -k RTR
r -t 2.400409667 -s 24 -d -1 -p AODV -e 44 -c 2 -a 0 -i 0 -k RTR
+ -t 2.420712373 -s 15 -d -1 -p AODV -e 44 -c 2 -a 0 -i 0 -k RTR 
- -t 2.420712373 -s 15 -d -1 -p AODV -e 44 -c 2 -a 0 -i 0 -k RTR
h -t 2.420712373 -s 15 -d -1 -p AODV -e 44 -c 2 -a 0 -i 0 -k RTR
r -t 2.442409667 -s 10 -d -1 -p AODV -e 44 -c 2 -a 0 -i 0 -k RTR
r -t 2.442409667 -s 16 -d -1 -p AODV -e 44 -c 2 -a 0 -i 0 -k RTR
r -t 2.442409667 -s 20 -d -1 -p AODV -e 44 -c 2 -a 0 -i 0 -k RTR
+ -t 2.496218110 -s 12 -d -1 -p AODV -e 44 -c 2 -a 0 -i 0 -k RTR 
- -t 2.496218110 -s 12 -d -1 -p AODV -e 44 -c 2 -a 0 -i 0 -k RTR
h -t 2.496218110 -s 12 -d -1 -p AODV -e 44 -c 2 -a 0 -i 0 -k RTR
+ -t 2.512207881 -s 18 -d -1 -p AODV -e 44 -c 2 -a 0 -i 0 -k RTR 
- -t 2.512207881 -s 18 -d -1 -p AODV -e 44 -c 2 -a 0 -i 0 -k RTR
h -t 2.512207881 -s 18 -d -1 -p AODV -e 44 -c 2 -a 0 -i 0 -k RTR
r -t 2.526409667 -s 11 -d -1 -p AODV -e 44 -c 2 -a 0 -i 0 -k RTR
r -t 2.526409667 -s 7 -d -1 -p AODV -e 44 -c 2 -a 0 -i 0 -k RTR
r -t 2.526409667 -s 13 -d -1 -p AODV -e 44 -c 2 -a 0 -i 0 -k RTR
r -t 2.526409667 -s 17 -d -1 -p AODV -e 44 -c 2 -a 0 -i 0 -k RTR
r -t 2.526409667 -s 19 -d -1 -p AODV -e 44 -c 2 -a 0 -i 0 -k RTR
r -t 2.526409667 -s 23 -d -1 -p AODV -e 44 -c 2 -a 0 -i 0 -k RTR
+ -t 2.601902628 -s 8 -d -1 -p AODV -e 44 -c 2 -a 0 -i 0 -k RTR 
- -t 2.601902628 -s 8 -d -1 -p AODV -e 44 -c 2 -a 0 -i 0 -k RTR
h -t 2.601902628 -s 8 -d -1 -p AODV -e 44 -c 2 -a 0 -i 0 -k RTR
r -t 2.610409667 -s 7 -d -1 -p AODV -e 44 -c 2 -a 0 -i 0 -k RTR
r -t 2.610409667 -s 3 -d -1 -p AODV -e 44 -c 2 -a 0 -i 0 -k RTR
r -t 2.610409667 -s 9 -d -1 -p AODV -e 44 -c 2 -a 0 -i 0 -k RTR
r -t 2.610409667 -s 13 -d -1 -p AODV -e 44 -c 2 -a 0 -i 0 -k RTR
+ -t 2.637131923 -s 22 -d -1 -p AODV -e 44 -c 2 -a 0 -i 0 -k RTR 
- -t 2.637131923 -s 22 -d -1 -p AODV -e 44 -c 2 -a 0 -i 0 -k RTR
h -t 2.637131923 -s 22 -d -1 -p AODV -e 44 -c 2 -a 0 -i 0 -k RTR
r -t 2.652409667 -s 21 -d -1 -p AODV -e 44 -c 2 -a 0 -i 0 -k RTR
r -t 2.652409667 -s 17 -d -1 -p AODV -e 44 -c 2 -a 0 -i 0 -k RTR
r -t 2.652409667 -s 23 -d -1 -p AODV -e 44 -c 2 -a 0 -i 0 -k RTR
+ -t 2.713618587 -s 10 -d -1 -p AODV -e 44 -c 2 -a 0 -i 0 -k RTR 
- -t 2.713618587 -s 10 -d -1 -p AODV -e 44 -c 2 -a 0 -i 0 -k RTR
h -t 2.713618587 -s 10 -d -1 -p AODV -e 44 -c 2 -a 0 -i 0 -k RTR
+ -t 2.719442657 -s 6 -d -1 -p AODV -e 44 -c 2 -a 0 -i 0 -k RTR 
- -t 2.719442657 -s 6 -d -1 -p AODV -e 44 -c 2 -a 0 -i 0 -k RTR
h -t 2.719442657 -s 6 -d -1 -p AODV -e 44 -c 2 -a 0 -i 0 -k RTR
r -t 2.736409667 -s 5 -d -1 -p AODV -e 44 -c 2 -a 0 -i 0 -k RTR
r -t 2.736409667 -s 1 -d -1 -p AODV -e 44 -c 2 -a 0 -i 0 -k RTR
r -t 2.736409667 -s 7 -d -1 -p AODV -e 44 -c 2 -a 0 -i 0 -k RTR
r -t 2.736409667 -s 11 -d -1 -p AODV -e 44 -c 2 -a 0 -i 0 -k RTR
r -t 2.736409667 -s 15 -d -1 -p AODV -e 44 -c 2 -a 0 -i 0 -k RTR
+ -t 2.773111538 -s 21 -d -1 -p AODV -e 44 -c 2 -a 0 -i 0 -k RTR 
- -t 2.773111538 -s 21 -d -1 -p AODV -e 44 -c 2 -a 0 -i 0 -k RTR
h -t 2.773111538 -s 21 -d -1 -p AODV -e 44 -c 2 -a 0 -i 0 -k RTR
r -t 2.778409667 -s 20 -d -1 -p AODV -e 44 -c 2 -a 0 -i 0 -k RTR
r -t 2.778409667 -s 16 -d -1 -p AODV -e 44 -c 2 -a 0 -i 0 -k RTR
r -t 2.778409667 -s 22 -d -1 -p AODV -e 44 -c 2 -a 0 -i 0 -k RTR
+ -t 2.863028514 -s 23 -d -1 -p AODV -e 44 -c 2 -a 0 -i 0 -k RTR 
- -t 2.863028514 -s 23 -d -1 -p AODV -e 44 -c 2 -a 0 -i 0 -k RTR
h -t 2.863028514 -s 23 -d -1 -p AODV -e 44 -c 2 -a 0 -i 0 -k RTR
r -t 2.868409667 -s 22 -d -1 -p AODV -e 44 -c 2 -a 0 -i 0 -k RTR
r -t 2.868409667 -s 18 -d -1 -p AODV -e 44 -c 2 -a 0 -i 0 -k RTR
r -t 2.868409667 -s 24 -d -1 -p AODV -e 44 -c 2 -a 0 -i 0 -k RTR
+ -t 2.885485104 -s 17 -d -1 -p AODV -e 44 -c 2 -a 0 -i 0 -k RTR 
- -t 2.885485104 -s 17 -d -1 -p AODV -e 44 -c 2 -a 0 -i 0 -k RTR
h -t 2.885485104 -s 17 -d -1 -p AODV -e 44 -c 2 -a 0 -i 0 -k RTR
r -t 2.904409667 -s 16 -d -1 -p AODV -e 44 -c 2 -a 0 -i 0 -k RTR
r -t 2.904409667 -s 12 -d -1 -p AODV -e 44 -c 2 -a 0 -i 0 -k RTR
r -t 2.904409667 -s 18 -d -1 -p AODV -e 44 -c 2 -a 0 -i 0 -k RTR
r -t 2.904409667 -s 22 -d -1 -p AODV -e 44 -c 2 -a 0 -i 0 -k RTR
+ -t 2.911760073 -s 4 -d -1 -p AODV -e 44 -c 2 -a 0 -i 0 -k RTR 
- -t 2.911760073 -s 4 -d -1 -p AODV -e 44 -c 2 -a 0 -i 0 -k RTR
h -t 2.911760073 -s 4 -d -1 -p AODV -e 44 -c 2 -a 0 -i 0 -k RTR
r -t 2.946409667 -s 3 -d -1 -p AODV -e 44 -c 2 -a 0 -i 0 -k RTR
r -t 2.946409667 -s 9 -d -1 -p AODV -e 44 -c 2 -a 0 -i 0 -k RTR
+ -t 3.027973192 -s 24 -d -1 -p AODV -e 44 -c 2 -a 0 -i 0 -k RTR 
- -t 3.027973192 -s 24 -d -1 -p AODV -e 44 -c 2 -a 0 -i 0 -k RTR
h -t 3.027973192 -s 24 -d -1 -p AODV -e 44 -c 2 -a 0 -i 0 -k RTR
r -t 3.030409667 -s 23 -d -1 -p AODV -e 44 -c 2 -a 0 -i 0 -k RTR
r -t 3.030409667 -s 19 -d -1 -p AODV -e 44 -c 2 -a 0 -i 0 -k RTR
+ -t 3.083821074 -s 1 -d -1 -p AODV -e 44 -c 2 -a 0 -i 0 -k RTR 
- -t 3.083821074 -s 1 -d -1 -p AODV -e 44 -c 2 -a 0 -i 0 -k RTR
h -t 3.083821074 -s 1 -d -1 -p AODV -e 44 -c 2 -a 0 -i 0 -k RTR
r -t 3.114409667 -s 0 -d -1 -p AODV -e 44 -c 2 -a 0 -i 0 -k RTR
r -t 3.114409667 -s 2 -d -1 -p AODV -e 44 -c 2 -a 0 -i 0 -k RTR
r -t 3.114409667 -s 6 -d -1 -p AODV -e 44 -c 2 -a 0 -i 0 -k RTR
+ -t 3.208297715 -s 9 -d -1 -p AODV -e 44 -c 2 -a 0 -i 0 -k RTR 
- -t 3.208297715 -s 9 -d -1 -p AODV -e 44 -c 2 -a 0 -i 0 -k RTR
h -t 3.208297715 -s 9 -d -1 -p AODV -e 44 -c 2 -a 0 -i 0 -k RTR
+ -t 3.210101489 -s 14 -d -1 -p AODV -e 44 -c 2 -a 0 -i 0 -k RTR 
- -t 3.210101489 -s 14 -d -1 -p AODV -e 44 -c 2 -a 0 -i 0 -k RTR
h -t 3.210101489 -s 14 -d -1 -p AODV -e 44 -c 2 -a 0 -i 0 -k RTR
r -t 3.240409667 -s 8 -d -1 -p AODV -e 44 -c 2 -a 0 -i 0 -k RTR
r -t 3.240409667 -s 4 -d -1 -p AODV -e 44 -c 2 -a 0 -i 0 -k RTR
r -t 3.240409667 -s 13 -d -1 -p AODV -e 44 -c 2 -a 0 -i 0 -k RTR
r -t 3.240409667 -s 19 -d -1 -p AODV -e 44 -c 2 -a 0 -i 0 -k RTR
+ -t 3.448733180 -s 5 -d -1 -p AODV -e 44 -c 2 -a 0 -i 0 -k RTR 
- -t 3.448733180 -s 5 -d -1 -p AODV -e 44 -c 2 -a 0 -i 0 -k RTR
h -t 3.448733180 -s 5 -d -1 -p AODV -e 44 -c 2 -a 0 -i 0 -k RTR
r -t 3.450409667 -s 0 -d -1 -p AODV -e 44 -c 2 -a 0 -i 0 -k RTR
r -t 3.450409667 -s 6 -d -1 -p AODV -e 44 -c 2 -a 0 -i 0 -k RTR
r -t 3.450409667 -s 10 -d -1 -p AODV -e 44 -c 2 -a 0 -i 0 -k RTR
+ -t 3.460542830 -s 20 -d -1 -p AODV -e 44 -c 2 -a 0 -i 0 -k RTR 
- -t 3.460542830 -s 20 -d -1 -p AODV -e 44 -c 2 -a 0 -i 0 -k RTR
h -t 3.460542830 -s 20 -d -1 -p AODV -e 44 -c 2 -a 0 -i 0 -k RTR
+ -t 3.474714077 -s 7 -d -1 -p AODV -e 44 -c 2 -a 0 -i 0 -k RTR 
- -t 3.474714077 -s 7 -d -1 -p AODV -e 44 -c 2 -a 0 -i 0 -k RTR
h -t 3.474714077 -s 7 -d -1 -p AODV -e 44 -c 2 -a 0 -i 0 -k RTR
r -t 3.492409667 -s 6 -d -1 -p AODV -e 44 -c 2 -a 0 -i 0 -k RTR
r -t 3.492409667 -s 2 -d -1 -p AODV -e 44 -c 2 -a 0 -i 0 -k RTR
r -t 3.492409667 -s 8 -d -1 -p AODV -e 44 -c 2 -a 0 -i 0 -k RTR
r -t 3.492409667 -s 12 -d -1 -p AODV -e 44 -c 2 -a 0 -i 0 -k RTR
r -t 3.492409667 -s 15 -d -1 -p AODV -e 44 -c 2 -a 0 -i 0 -k RTR
r -t 3.492409667 -s 21 -d -1 -p AODV -e 44 -c 2 -a 0 -i 0 -k RTR
+ -t 3.504485305 -s 11 -d -1 -p AODV -e 44 -c 2 -a 0 -i 0 -k RTR 
- -t 3.504485305 -s 11 -d -1 -p AODV -e 44 -c 2 -a 0 -i 0 -k RTR
h -t 3.504485305 -s 11 -d -1 -p AODV -e 44 -c 2 -a 0 -i 0 -k RTR
r -t 3.534409667 -s 10 -d -1 -p AODV -e 44 -c 2 -a 0 -i 0 -k RTR
r -t 3.534409667 -s 6 -d -1 -p AODV -e 44 -c 2 -a 0 -i 0 -k RTR
r -t 3.534409667 -s 12 -d -1 -p AODV -e 44 -c 2 -a 0 -i 0 -k RTR
r -t 3.534409667 -s 16 -d -1 -p AODV -e 44 -c 2 -a 0 -i 0 -k RTR
+ -t 3.539591546 -s 16 -d -1 -p AODV -e 44 -c 2 -a 0 -i 0 -k RTR 
- -t 3.539591546 -s 16 -d -1 -p AODV -e 44 -c 2 -a 0 -i 0 -k RTR
h -t 3.539591546 -s 16 -d -1 -p AODV -e 44 -c 2 -a 0 -i 0 -k RTR
r -t 3.540409667 -s 15 -d -1 -p AODV -e 44 -c 2 -a 0 -i 0 -k RTR
r -t 3.540409667 -s 11 -d -1 -p AODV -e 44 -c 2 -a 0 -i 0 -k RTR
r -t 3.540409667 -s 17 -d -1 -p AODV -e 44 -c 2 -a 0 -i 0 -k RTR
r -t 3.540409667 -s 21 -d -1 -p AODV -e 44 -c 2 -a 0 -i 0 -k RTR
+ -t 4.966947471 -s 19 -d -1 -p AODV -e 44 -c 2 -a 0 -i 0 -k RTR 
- -t 4.966947471 -s 19 -d -1 -p AODV -e 44 -c 2 -a 0 -i 0 -k RTR
h -t 4.966947471 -s 19 -d -1 -p AODV -e 44 -c 2 -a 0 -i 0 -k RTR
r -t 4.968409667 -s 18 -d -1 -p AODV -e 44 -c 2 -a 0 -i 0 -k RTR
r -t 4.968409667 -s 14 -d -1 -p AODV -e 44 -c 2 -a 0 -i 0 -k RTR
r -t 4.968409667 -s 24 -d -1 -p AODV -e 44 -c 2 -a 0 -i 0 -k RTR
+ -t 5.032550815 -s 15 -d -1 -p AODV -e 44 -c 2 -a 0 -i 0 -k RTR 
- -t 5.032550815 -s 15 -d -1 -p AODV -e 44 -c 2 -a 0 -i 0 -k RTR
h -t 5.032550815 -s 15 -d -1 -p AODV -e 44 -c 2 -a 0 -i 0 -k RTR
r -t 5.046409667 -s 10 -d -1 -p AODV -e 44 -c 2 -a 0 -i 0 -k RTR
r -t 5.046409667 -s 16 -d -1 -p AODV -e 44 -c 2 -a 0 -i 0 -k RTR
r -t 5.046409667 -s 20 -d -1 -p AODV -e 44 -c 2 -a 0 -i 0 -k RTR
+ -t 5.133240365 -s 6 -d -1 -p AODV -e 44 -c 2 -a 0 -i 0 -k RTR 
- -t 5.133240365 -s 6 -d -1 -p AODV -e 44 -c 2 -a 0 -i 0 -k RTR
h -t 5.133240365 -s 6 -d -1 -p AODV -e 44 -c 2 -a 0 -i 0 -k RTR
r -t 5.136409667 -s 5 -d -1 -p AODV -e 44 -c 2 -a 0 -i 0 -k RTR
r -t 5.136409667 -s 1 -d -1 -p AODV -e 44 -c 2 -a 0 -i 0 -k RTR
r -t 5.136409667 -s 7 -d -1 -p AODV -e 44 -c 2 -a 0 -i 0 -k RTR
r -t 5.136409667 -s 11 -d -1 -p AODV -e 44 -c 2 -a 0 -i 0 -k RTR
+ -t 5.199683270 -s 0 -d -1 -p AODV -e 44 -c 2 -a 0 -i 0 -k RTR 
- -t 5.199683270 -s 0 -d -1 -p AODV -e 44 -c 2 -a 0 -i 0 -k RTR
h -t 5.199683270 -s 0 -d -1 -p AODV -e 44 -c 2 -a 0 -i 0 -k RTR
r -t 5.214409667 -s 1 -d -1 -p AODV -e 44 -c 2 -a 0 -i 0 -k RTR
r -t 5.214409667 -s 5 -d -1 -p AODV -e 44 -c 2 -a 0 -i 0 -k RTR
+ -t 5.394076377 -s 23 -d -1 -p AODV -e 44 -c 2 -a 0 -i 0 -k RTR 
- -t 5.394076377 -s 23 -d -1 -p AODV -e 44 -c 2 -a 0 -i 0 -k RTR
h -t 5.394076377 -s 23 -d -1 -p AODV -e 44 -c 2 -a 0 -i 0 -k RTR
r -t 5.424409667 -s 22 -d -1 -p AODV -e 44 -c 2 -a 0 -i 0 -k RTR
r -t 5.424409667 -s 18 -d -1 -p AODV -e 44 -c 2 -a 0 -i 0 -k RTR
r -t 5.424409667 -s 24 -d -1 -p AODV -e 44 -c 2 -a 0 -i 0 -k RTR
+ -t 5.476313996 -s 14 -d -1 -p AODV -e 44 -c 2 -a 0 -i 0 -k RTR 
- -t 5.476313996 -s 14 -d -1 -p AODV -e 44 -c 2 -a 0 -i 0 -k RTR
h -t 5.476313996 -s 14 -d -1 -p AODV -e 44 -c 2 -a 0 -i 0 -k RTR
+ -t 5.501868048 -s 1 -d -1 -p AODV -e 44 -c 2 -a 0 -i 0 -k RTR 
- -t 5.501868048 -s 1 -d -1 -p AODV -e 44 -c 2 -a 0 -i 0 -k RTR
h -t 5.501868048 -s 1 -d -1 -p AODV -e 44 -c 2 -a 0 -i 0 -k RTR
r -t 5.508409667 -s 0 -d -1 -p AODV -e 44 -c 2 -a 0 -i 0 -k RTR
r -t 5.508409667 -s 2 -d -1 -p AODV -e 44 -c 2 -a 0 -i 0 -k RTR
r -t 5.508409667 -s 6 -d -1 -p AODV -e 44 -c 2 -a 0 -i 0 -k RTR
r -t 5.508409667 -s 13 -d -1 -p AODV -e 44 -c 2 -a 0 -i 0 -k RTR
r -t 5.508409667 -s 9 -d -1 -p AODV -e 44 -c 2 -a 0 -i 0 -k RTR
r -t 5.508409667 -s 19 -d -1 -p AODV -e 44 -c 2 -a 0 -i 0 -k RTR
+ -t 5.545901656 -s 9 -d -1 -p AODV -e 44 -c 2 -a 0 -i 0 -k RTR 
- -t 5.545901656 -s 9 -d -1 -p AODV -e 44 -c 2 -a 0 -i 0 -k RTR
h -t 5.545901656 -s 9 -d -1 -p AODV -e 44 -c 2 -a 0 -i 0 -k RTR
r -t 5.550409667 -s 8 -d -1 -p AODV -e 44 -c 2 -a 0 -i 0 -k RTR
r -t 5.550409667 -s 4 -d -1 -p AODV -e 44 -c 2 -a 0 -i 0 -k RTR
r -t 5.550409667 -s 14 -d -1 -p AODV -e 44 -c 2 -a 0 -i 0 -k RTR
+ -t 5.559767240 -s 2 -d -1 -p AODV -e 44 -c 2 -a 0 -i 0 -k RTR 
- -t 5.559767240 -s 2 -d -1 -p AODV -e 44 -c 2 -a 0 -i 0 -k RTR
h -t 5.559767240 -s 2 -d -1 -p AODV -e 44 -c 2 -a 0 -i 0 -k RTR
+ -t 5.571897203 -s 10 -d -1 -p AODV -e 44 -c 2 -a 0 -i 0 -k RTR 
- -t 5.571897203 -s 10 -d -1 -p AODV -e 44 -c 2 -a 0 -i 0 -k RTR
h -t 5.571897203 -s 10 -d -1 -p AODV -e 44 -c 2 -a 0 -i 0 -k RTR
r -t 5.592409667 -s 1 -d -1 -p AODV -e 44 -c 2 -a 0 -i 0 -k RTR
r -t 5.592409667 -s 3 -d -1 -p AODV -e 44 -c 2 -a 0 -i 0 -k RTR
r -t 5.592409667 -s 7 -d -1 -p AODV -e 44 -c 2 -a 0 -i 0 -k RTR
r -t 5.592409667 -s 5 -d -1 -p AODV -e 44 -c 2 -a 0 -i 0 -k RTR
r -t 5.592409667 -s 11 -d -1 -p AODV -e 44 -c 2 -a 0 -i 0 -k RTR
r -t 5.592409667 -s 15 -d -1 -p AODV -e 44 -c 2 -a 0 -i 0 -k RTR
+ -t 5.629422831 -s 21 -d -1 -p AODV -e 44 -c 2 -a 0 -i 0 -k RTR 
- -t 5.629422831 -s 21 -d -1 -p AODV -e 44 -c 2 -a 0 -i 0 -k RTR
h -t 5.629422831 -s 21 -d -1 -p AODV -e 44 -c 2 -a 0 -i 0 -k RTR
r -t 5.634409667 -s 20 -d -1 -p AODV -e 44 -c 2 -a 0 -i 0 -k RTR
r -t 5.634409667 -s 16 -d -1 -p AODV -e 44 -c 2 -a 0 -i 0 -k RTR
r -t 5.634409667 -s 22 -d -1 -p AODV -e 44 -c 2 -a 0 -i 0 -k RTR
+ -t 5.778231295 -s 18 -d -1 -p AODV -e 44 -c 2 -a 0 -i 0 -k RTR 
- -t 5.778231295 -s 18 -d -1 -p AODV -e 44 -c 2 -a 0 -i 0 -k RTR
h -t 5.778231295 -s 18 -d -1 -p AODV -e 44 -c 2 -a 0 -i 0 -k RTR
r -t 5.802409667 -s 17 -d -1 -p AODV -e 44 -c 2 -a 0 -i 0 -k RTR
r -t 5.802409667 -s 13 -d -1 -p AODV -e 44 -c 2 -a 0 -i 0 -k RTR
r -t 5.802409667 -s 19 -d -1 -p AODV -e 44 -c 2 -a 0 -i 0 -k RTR
r -t 5.802409667 -s 23 -d -1 -p AODV -e 44 -c 2 -a 0 -i 0 -k RTR
+ -t 5.857292758 -s 13 -d -1 -p AODV -e 44 -c 2 -a 0 -i 0 -k RTR 
- -t 5.857292758 -s 13 -d -1 -p AODV -e 44 -c 2 -a 0 -i 0 -k RTR
h -t 5.857292758 -s 13 -d -1 -p AODV -e 44 -c 2 -a 0 -i 0 -k RTR
r -t 5.886409667 -s 12 -d -1 -p AODV -e 44 -c 2 -a 0 -i 0 -k RTR
r -t 5.886409667 -s 8 -d -1 -p AODV -e 44 -c 2 -a 0 -i 0 -k RTR
r -t 5.886409667 -s 14 -d -1 -p AODV -e 44 -c 2 -a 0 -i 0 -k RTR
r -t 5.886409667 -s 18 -d -1 -p AODV -e 44 -c 2 -a 0 -i 0 -k RTR
+ -t 5.891921811 -s 3 -d -1 -p AODV -e 44 -c 2 -a 0 -i 0 -k RTR 
- -t 5.891921811 -s 3 -d -1 -p AODV -e 44 -c 2 -a 0 -i 0 -k RTR
h -t 5.891921811 -s 3 -d -1 -p AODV -e 44 -c 2 -a 0 -i 0 -k RTR
r -t 5.892409667 -s 2 -d -1 -p AODV -e 44 -c 2 -a 0 -i 0 -k RTR
r -t 5.892409667 -s 4 -d -1 -p AODV -e 44 -c 2 -a 0 -i 0 -k RTR
r -t 5.892409667 -s 8 -d -1 -p AODV -e 44 -c 2 -a 0 -i 0 -k RTR
+ -t 5.909369321 -s 7 -d -1 -p AODV -e 44 -c 2 -a 0 -i 0 -k RTR 
- -t 5.909369321 -s 7 -d -1 -p AODV -e 44 -c 2 -a 0 -i 0 -k RTR
h -t 5.909369321 -s 7 -d -1 -p AODV -e 44 -c 2 -a 0 -i 0 -k RTR
r -t 5.928409667 -s 6 -d -1 -p AODV -e 44 -c 2 -a 0 -i 0 -k RTR
r -t 5.928409667 -s 2 -d -1 -p AODV -e 44 -c 2 -a 0 -i 0 -k RTR
r -t 5.928409667 -s 8 -d -1 -p AODV -e 44 -c 2 -a 0 -i 0 -k RTR
r -t 5.928409667 -s 12 -d -1 -p AODV -e 44 -c 2 -a 0 -i 0 -k RTR
+ -t 5.995250467 -s 8 -d -1 -p AODV -e 44 -c 2 -a 0 -i 0 -k RTR 
- -t 5.995250467 -s 8 -d -1 -p AODV -e 44 -c 2 -a 0 -i 0 -k RTR
h -t 5.995250467 -s 8 -d -1 -p AODV -e 44 -c 2 -a 0 -i 0 -k RTR
r -t 6.012409667 -s 7 -d -1 -p AODV -e 44 -c 2 -a 0 -i 0 -k RTR
r -t 6.012409667 -s 3 -d -1 -p AODV -e 44 -c 2 -a 0 -i 0 -k RTR
r -t 6.012409667 -s 9 -d -1 -p AODV -e 44 -c 2 -a 0 -i 0 -k RTR
r -t 6.012409667 -s 13 -d -1 -p AODV -e 44 -c 2 -a 0 -i 0 -k RTR
+ -t 6.022877938 -s 12 -d -1 -p AODV -e 44 -c 2 -a 0 -i 0 -k RTR 
- -t 6.022877938 -s 12 -d -1 -p AODV -e 44 -c 2 -a 0 -i 0 -k RTR
h -t 6.022877938 -s 12 -d -1 -p AODV -e 44 -c 2 -a 0 -i 0 -k RTR
r -t 6.054409667 -s 11 -d -1 -p AODV -e 44 -c 2 -a 0 -i 0 -k RTR
r -t 6.054409667 -s 7 -d -1 -p AODV -e 44 -c 2 -a 0 -i 0 -k RTR
r -t 6.054409667 -s 13 -d -1 -p AODV -e 44 -c 2 -a 0 -i 0 -k RTR
r -t 6.054409667 -s 17 -d -1 -p AODV -e 44 -c 2 -a 0 -i 0 -k RTR
+ -t 6.175082155 -s 16 -d -1 -p AODV -e 44 -c 2 -a 0 -i 0 -k RTR 
- -t 6.175082155 -s 16 -d -1 -p AODV -e 44 -c 2 -a 0 -i 0 -k RTR
h -t 6.175082155 -s 16 -d -1 -p AODV -e 44 -c 2 -a 0 -i 0 -k RTR
r -t 6.180409667 -s 15 -d -1 -p AODV -e 44 -c 2 -a 0 -i 0 -k RTR
r -t 6.180409667 -s 11 -d -1 -p AODV -e 44 -c 2 -a 0 -i 0 -k RTR
r -t 6.180409667 -s 17 -d -1 -p AODV -e 44 -c 2 -a 0 -i 0 -k RTR
r -t 6.180409667 -s 21 -d -1 -p AODV -e 44 -c 2 -a 0 -i 0 -k RTR
+ -t 6.214036968 -s 20 -d -1 -p AODV -e 44 -c 2 -a 0 -i 0 -k RTR 
- -t 6.214036968 -s 20 -d -1 -p AODV -e 44 -c 2 -a 0 -i 0 -k RTR
h -t 6.214036968 -s 20 -d -1 -p AODV -e 44 -c 2 -a 0 -i 0 -k RTR
r -t 6.222409667 -s 15 -d -1 -p AODV -e 44 -c 2 -a 0 -i 0 -k RTR
r -t 6.222409667 -s 21 -d -1 -p AODV -e 44 -c 2 -a 0 -i 0 -k RTR
+ -t 6.244550127 -s 22 -d -1 -p AODV -e 44 -c 2 -a 0 -i 0 -k RTR 
- -t 6.244550127 -s 22 -d -1 -p AODV -e 44 -c 2 -a 0 -i 0 -k RTR
h -t 6.244550127 -s 22 -d -1 -p AODV -e 44 -c 2 -a 0 -i 0 -k RTR
r -t 6.264409667 -s 21 -d -1 -p AODV -e 44 -c 2 -a 0 -i 0 -k RTR
r -t 6.264409667 -s 17 -d -1 -p AODV -e 44 -c 2 -a 0 -i 0 -k RTR
r -t 6.264409667 -s 23 -d -1 -p AODV -e 44 -c 2 -a 0 -i 0 -k RTR
+ -t 6.466650424 -s 17 -d -1 -p AODV -e 44 -c 2 -a 0 -i 0 -k RTR 
- -t 6.466650424 -s 17 -d -1 -p AODV -e 44 -c 2 -a 0 -i 0 -k RTR
h -t 6.466650424 -s 17 -d -1 -p AODV -e 44 -c 2 -a 0 -i 0 -k RTR
r -t 6.474409667 -s 16 -d -1 -p AODV -e 44 -c 2 -a 0 -i 0 -k RTR
r -t 6.474409667 -s 12 -d -1 -p AODV -e 44 -c 2 -a 0 -i 0 -k RTR
r -t 6.474409667 -s 18 -d -1 -p AODV -e 44 -c 2 -a 0 -i 0 -k RTR
r -t 6.474409667 -s 22 -d -1 -p AODV -e 44 -c 2 -a 0 -i 0 -k RTR
+ -t 6.581157503 -s 4 -d -1 -p AODV -e 44 -c 2 -a 0 -i 0 -k RTR 
- -t 6.581157503 -s 4 -d -1 -p AODV -e 44 -c 2 -a 0 -i 0 -k RTR
h -t 6.581157503 -s 4 -d -1 -p AODV -e 44 -c 2 -a 0 -i 0 -k RTR
+ -t 6.591274262 -s 5 -d -1 -p AODV -e 44 -c 2 -a 0 -i 0 -k RTR 
- -t 6.591274262 -s 5 -d -1 -p AODV -e 44 -c 2 -a 0 -i 0 -k RTR
h -t 6.591274262 -s 5 -d -1 -p AODV -e 44 -c 2 -a 0 -i 0 -k RTR
r -t 6.600409667 -s 3 -d -1 -p AODV -e 44 -c 2 -a 0 -i 0 -k RTR
r -t 6.600409667 -s 9 -d -1 -p AODV -e 44 -c 2 -a 0 -i 0 -k RTR
r -t 6.600409667 -s 0 -d -1 -p AODV -e 44 -c 2 -a 0 -i 0 -k RTR
r -t 6.600409667 -s 6 -d -1 -p AODV -e 44 -c 2 -a 0 -i 0 -k RTR
r -t 6.600409667 -s 10 -d -1 -p AODV -e 44 -c 2 -a 0 -i 0 -k RTR
+ -t 6.614994924 -s 24 -d -1 -p AODV -e 44 -c 2 -a 0 -i 0 -k RTR 
- -t 6.614994924 -s 24 -d -1 -p AODV -e 44 -c 2 -a 0 -i 0 -k RTR
h -t 6.614994924 -s 24 -d -1 -p AODV -e 44 -c 2 -a 0 -i 0 -k RTR
r -t 6.642409667 -s 23 -d -1 -p AODV -e 44 -c 2 -a 0 -i 0 -k RTR
r -t 6.642409667 -s 19 -d -1 -p AODV -e 44 -c 2 -a 0 -i 0 -k RTR
+ -t 6.757421145 -s 11 -d -1 -p AODV -e 44 -c 2 -a 0 -i 0 -k RTR 
- -t 6.757421145 -s 11 -d -1 -p AODV -e 44 -c 2 -a 0 -i 0 -k RTR
h -t 6.757421145 -s 11 -d -1 -p AODV -e 44 -c 2 -a 0 -i 0 -k RTR
r -t 6.768409667 -s 10 -d -1 -p AODV -e 44 -c 2 -a 0 -i 0 -k RTR
r -t 6.768409667 -s 6 -d -1 -p AODV -e 44 -c 2 -a 0 -i 0 -k RTR
r -t 6.768409667 -s 12 -d -1 -p AODV -e 44 -c 2 -a 0 -i 0 -k RTR
r -t 6.768409667 -s 16 -d -1 -p AODV -e 44 -c 2 -a 0 -i 0 -k RTR
+ -t 7.793204256 -s 1 -d -1 -p AODV -e 44 -c 2 -a 0 -i 0 -k RTR 
- -t 7.793204256 -s 1 -d -1 -p AODV -e 44 -c 2 -a 0 -i 0 -k RTR
h -t 7.793204256 -s 1 -d -1 -p AODV -e 44 -c 2 -a 0 -i 0 -k RTR
r -t 7.818409667 -s 0 -d -1 -p AODV -e 44 -c 2 -a 0 -i 0 -k RTR
r -t 7.818409667 -s 2 -d -1 -p AODV -e 44 -c 2 -a 0 -i 0 -k RTR
r -t 7.818409667 -s 6 -d -1 -p AODV -e 44 -c 2 -a 0 -i 0 -k RTR
+ -t 7.842419491 -s 0 -d -1 -p AODV -e 44 -c 2 -a 0 -i 0 -k RTR 
- -t 7.842419491 -s 0 -d -1 -p AODV -e 44 -c 2 -a 0 -i 0 -k RTR
h -t 7.842419491 -s 0 -d -1 -p AODV -e 44 -c 2 -a 0 -i 0 -k RTR
r -t 7.860409667 -s 1 -d -1 -p AODV -e 44 -c 2 -a 0 -i 0 -k RTR
r -t 7.860409667 -s 5 -d -1 -p AODV -e 44 -c 2 -a 0 -i 0 -k RTR
+ -t 8.089088620 -s 2 -d -1 -p AODV -e 44 -c 2 -a 0 -i 0 -k RTR 
- -t 8.089088620 -s 2 -d -1 -p AODV -e 44 -c 2 -a 0 -i 0 -k RTR
h -t 8.089088620 -s 2 -d -1 -p AODV -e 44 -c 2 -a 0 -i 0 -k RTR
+ -t 8.099783765 -s 15 -d -1 -p AODV -e 44 -c 2 -a 0 -i 0 -k RTR 
- -t 8.099783765 -s 15 -d -1 -p AODV -e 44 -c 2 -a 0 -i 0 -k RTR
h -t 8.099783765 -s 15 -d -1 -p AODV -e 44 -c 2 -a 0 -i 0 -k RTR
r -t 8.112409667 -s 1 -d -1 -p AODV -e 44 -c 2 -a 0 -i 0 -k RTR
r -t 8.112409667 -s 3 -d -1 -p AODV -e 44 -c 2 -a 0 -i 0 -k RTR
r -t 8.112409667 -s 7 -d -1 -p AODV -e 44 -c 2 -a 0 -i 0 -k RTR
r -t 8.112409667 -s 10 -d -1 -p AODV -e 44 -c 2 -a 0 -i 0 -k RTR
r -t 8.112409667 -s 16 -d -1 -p AODV -e 44 -c 2 -a 0 -i 0 -k RTR
r -t 8.112409667 -s 20 -d -1 -p AODV -e 44 -c 2 -a 0 -i 0 -k RTR
+ -t 8.264957311 -s 19 -d -1 -p AODV -e 44 -c 2 -a 0 -i 0 -k RTR 
- -t 8.264957311 -s 19 -d -1 -p AODV -e 44 -c 2 -a 0 -i 0 -k RTR
h -t 8.264957311 -s 19 -d -1 -p AODV -e 44 -c 2 -a 0 -i 0 -k RTR
r -t 8.280409667 -s 18 -d -1 -p AODV -e 44 -c 2 -a 0 -i 0 -k RTR
r -t 8.280409667 -s 14 -d -1 -p AODV -e 44 -c 2 -a 0 -i 0 -k RTR
r -t 8.280409667 -s 24 -d -1 -p AODV -e 44 -c 2 -a 0 -i 0 -k RTR
+ -t 8.286877155 -s 9 -d -1 -p AODV -e 44 -c 2 -a 0 -i 0 -k RTR 
- -t 8.286877155 -s 9 -d -1 -p AODV -e 44 -c 2 -a 0 -i 0 -k RTR
h -t 8.286877155 -s 9 -d -1 -p AODV -e 44 -c 2 -a 0 -i 0 -k RTR
r -t 8.322409667 -s 8 -d -1 -p AODV -e 44 -c 2 -a 0 -i 0 -k RTR
r -t 8.322409667 -s 4 -d -1 -p AODV -e 44 -c 2 -a 0 -i 0 -k RTR
r -t 8.322409667 -s 14 -d -1 -p AODV -e 44 -c 2 -a 0 -i 0 -k RTR
+ -t 8.364844913 -s 14 -d -1 -p AODV -e 44 -c 2 -a 0 -i 0 -k RTR 
- -t 8.364844913 -s 14 -d -1 -p AODV -e 44 -c 2 -a 0 -i 0 -k RTR
h -t 8.364844913 -s 14 -d -1 -p AODV -e 44 -c 2 -a 0 -i 0 -k RTR
r -t 8.370409667 -s 13 -d -1 -p AODV -e 44 -c 2 -a 0 -i 0 -k RTR
r -t 8.370409667 -s 9 -d -1 -p AODV -e 44 -c 2 -a 0 -i 0 -k RTR
r -t 8.370409667 -s 19 -d -1 -p AODV -e 44 -c 2 -a 0 -i 0 -k RTR
+ -t 8.409913312 -s 12 -d -1 -p AODV -e 44 -c 2 -a 0 -i 0 -k RTR 
- -t 8.409913312 -s 12 -d -1 -p AODV -e 44 -c 2 -a 0 -i 0 -k RTR
h -t 8.409913312 -s 12 -d -1 -p AODV -e 44 -c 2 -a 0 -i 0 -k RTR
r -t 8.412409667 -s 11 -d -1 -p AODV -e 44 -c 2 -a 0 -i 0 -k RTR
r -t 8.412409667 -s 7 -d -1 -p AODV -e 44 -c 2 -a 0 -i 0 -k RTR
r -t 8.412409667 -s 13 -d -1 -p AODV -e 44 -c 2 -a 0 -i 0 -k RTR
r -t 8.412409667 -s 17 -d -1 -p AODV -e 44 -c 2 -a 0 -i 0 -k RTR
+ -t 8.417393801 -s 13 -d -1 -p AODV -e 44 -c 2 -a 0 -i 0 -k RTR 
- -t 8.417393801 -s 13 -d -1 -p AODV -e 44 -c 2 -a 0 -i 0 -k RTR
h -t 8.417393801 -s 13 -d -1 -p AODV -e 44 -c 2 -a 0 -i 0 -k RTR
+ -t 8.427461096 -s 7 -d -1 -p AODV -e 44 -c 2 -a 0 -i 0 -k RTR 
- -t 8.427461096 -s 7 -d -1 -p AODV -e 44 -c 2 -a 0 -i 0 -k RTR
h -t 8.427461096 -s 7 -d -1 -p AODV -e 44 -c 2 -a 0 -i 0 -k RTR
r -t 8.448409667 -s 6 -d -1 -p AODV -e 44 -c 2 -a 0 -i 0 -k RTR
r -t 8.448409667 -s 2 -d -1 -p AODV -e 44 -c 2 -a 0 -i 0 -k RTR
r -t 8.448409667 -s 8 -d -1 -p AODV -e 44 -c 2 -a 0 -i 0 -k RTR
r -t 8.448409667 -s 12 -d -1 -p AODV -e 44 -c 2 -a 0 -i 0 -k RTR
r -t 8.448409667 -s 14 -d -1 -p AODV -e 44 -c 2 -a 0 -i 0 -k RTR
r -t 8.448409667 -s 18 -d -1 -p AODV -e 44 -c 2 -a 0 -i 0 -k RTR