s 0.000000000 _0_ AGT  --- 0 cbr 210 [0 0 0 0] ------- [0:0 8:0 32 0] [0] 0 0
s 0.000000000 _6_ AGT  --- 1 cbr 210 [0 0 0 0] ------- [6:0 2:0 32 0] [0] 0 0
s 0.056000000 _0_ AGT  --- 2 cbr 210 [0 0 0 0] ------- [0:0 8:0 32 0] [1] 0 0
s 0.056000000 _6_ AGT  --- 3 cbr 210 [0 0 0 0] ------- [6:0 2:0 32 0] [1] 0 0
r 0.081669582 _8_ AGT  --- 0 cbr 230 [13a 8 7 800] ------- [0:0 8:0 27 8] [0] 4 0
r 0.092794196 _2_ AGT  --- 1 cbr 230 [13a 2 1 800] ------- [6:0 2:0 27 2] [0] 4 0
r 0.103094362 _8_ AGT  --- 2 cbr 230 [13a 8 7 800] ------- [0:0 8:0 27 8] [1] 4 0
s 0.112000000 _0_ AGT  --- 4 cbr 210 [0 0 0 0] ------- [0:0 8:0 32 0] [2] 0 0
s 0.112000000 _6_ AGT  --- 5 cbr 210 [0 0 0 0] ------- [6:0 2:0 32 0] [2] 0 0
r 0.114378976 _2_ AGT  --- 3 cbr 230 [13a 2 1 800] ------- [6:0 2:0 27 2] [1] 4 0
r 0.135707724 _8_ AGT  --- 4 cbr 230 [13a 8 7 800] ------- [0:0 8:0 27 8] [2] 4 0
r 0.142531271 _2_ AGT  --- 5 cbr 230 [13a 2 1 800] ------- [6:0 2:0 27 2] [2] 4 0
s 0.168000000 _0_ AGT  --- 6 cbr 210 [0 0 0 0] ------- [0:0 8:0 32 0] [3] 0 0
s 0.168000000 _6_ AGT  --- 7 cbr 210 [0 0 0 0] ------- [6:0 2:0 32 0] [3] 0 0
r 0.189005333 _8_ AGT  --- 6 cbr 230 [13a 8 7 800] ------- [0:0 8:0 27 8] [3] 4 0
r 0.196648881 _2_ AGT  --- 7 cbr 230 [13a 2 1 800] ------- [6:0 2:0 27 2] [3] 4 0
s 0.224000000 _0_ AGT  --- 8 cbr 210 [0 0 0 0] ------- [0:0 8:0 32 0] [4] 0 0
s 0.224000000 _6_ AGT  --- 9 cbr 210 [0 0 0 0] ------- [6:0 2:0 32 0] [4] 0 0
r 0.241438267 _2_ AGT  --- 9 cbr 230 [13a 2 1 800] ------- [6:0 2:0 27 2] [4] 4 0
r 0.252862881 _8_ AGT  --- 8 cbr 230 [13a 8 7 800] ------- [0:0 8:0 27 8] [4] 4 0
s 0.280000000 _0_ AGT  --- 10 cbr 210 [0 0 0 0] ------- [0:0 8:0 32 0] [5] 0 0
s 0.280000000 _6_ AGT  --- 11 cbr 210 [0 0 0 0] ------- [6:0 2:0 32 0] [5] 0 0
r 0.303251333 _8_ AGT  --- 10 cbr 230 [13a 8 7 800] ------- [0:0 8:0 27 8] [5] 4 0
r 0.310394881 _2_ AGT  --- 11 cbr 230 [13a 2 1 800] ------- [6:0 2:0 27 2] [5] 4 0
s 0.336000000 _0_ AGT  --- 12 cbr 210 [0 0 0 0] ------- [0:0 8:0 32 0] [6] 0 0
s 0.336000000 _6_ AGT  --- 13 cbr 210 [0 0 0 0] ------- [6:0 2:0 32 0] [6] 0 0
r 0.354042902 _8_ AGT  --- 12 cbr 230 [13a 8 7 800] ------- [0:0 8:0 27 8] [6] 4 0
r 0.365627516 _2_ AGT  --- 13 cbr 230 [13a 2 1 800] ------- [6:0 2:0 27 2] [6] 4 0
s 0.392000000 _0_ AGT  --- 14 cbr 210 [0 0 0 0] ------- [0:0 8:0 32 0] [7] 0 0
s 0.392000000 _6_ AGT  --- 15 cbr 210 [0 0 0 0] ------- [6:0 2:0 32 0] [7] 0 0
r 0.405921200 _8_ AGT  --- 14 cbr 230 [13a 8 7 800] ------- [0:0 8:0 27 8] [7] 4 0
r 0.420051933 _2_ AGT  --- 15 cbr 230 [13a 2 1 800] ------- [6:0 2:0 27 2] [7] 4 0
s 0.448000000 _0_ AGT  --- 16 cbr 210 [0 0 0 0] ------- [0:0 8:0 32 0] [8] 0 0
s 0.448000000 _6_ AGT  --- 17 cbr 210 [0 0 0 0] ------- [6:0 2:0 32 0] [8] 0 0
r 0.465308267 _2_ AGT  --- 17 cbr 230 [13a 2 1 800] ------- [6:0 2:0 27 2] [8] 4 0
r 0.476712881 _8_ AGT  --- 16 cbr 230 [13a 8 7 800] ------- [0:0 8:0 27 8] [8] 4 0
s 0.504000000 _0_ AGT  --- 18 cbr 210 [0 0 0 0] ------- [0:0 8:0 32 0] [9] 0 0
s 0.504000000 _6_ AGT  --- 19 cbr 210 [0 0 0 0] ------- [6:0 2:0 32 0] [9] 0 0
r 0.525293800 _8_ AGT  --- 18 cbr 230 [13a 8 7 800] ------- [0:0 8:0 27 8] [9] 4 0
r 0.532337348 _2_ AGT  --- 19 cbr 230 [13a 2 1 800] ------- [6:0 2:0 27 2] [9] 4 0
s 0.560000000 _0_ AGT  --- 20 cbr 210 [0 0 0 0] ------- [0:0 8:0 32 0] [10] 0 0
s 0.560000000 _6_ AGT  --- 21 cbr 210 [0 0 0 0] ------- [6:0 2:0 32 0] [10] 0 0
r 0.584661951 _8_ AGT  --- 20 cbr 230 [13a 8 7 800] ------- [0:0 8:0 27 8] [10] 4 0
r 0.588773965 _2_ AGT  --- 21 cbr 230 [13a 2 1 800] ------- [6:0 2:0 27 2] [10] 4 0
s 0.616000000 _0_ AGT  --- 22 cbr 210 [0 0 0 0] ------- [0:0 8:0 32 0] [11] 0 0
s 0.616000000 _6_ AGT  --- 23 cbr 210 [0 0 0 0] ------- [6:0 2:0 32 0] [11] 0 0
r 0.633998267 _2_ AGT  --- 23 cbr 230 [13a 2 1 800] ------- [6:0 2:0 27 2] [11] 4 0
r 0.645142881 _8_ AGT  --- 22 cbr 230 [13a 8 7 800] ------- [0:0 8:0 27 8] [11] 4 0
s 0.672000000 _0_ AGT  --- 24 cbr 210 [0 0 0 0] ------- [0:0 8:0 32 0] [12] 0 0
s 0.672000000 _6_ AGT  --- 25 cbr 210 [0 0 0 0] ------- [6:0 2:0 32 0] [12] 0 0
r 0.692813800 _8_ AGT  --- 24 cbr 230 [13a 8 7 800] ------- [0:0 8:0 27 8] [12] 4 0
r 0.699997348 _2_ AGT  --- 25 cbr 230 [13a 2 1 800] ------- [6:0 2:0 27 2] [12] 4 0
s 0.728000000 _0_ AGT  --- 26 cbr 210 [0 0 0 0] ------- [0:0 8:0 32 0] [13] 0 0
s 0.728000000 _6_ AGT  --- 27 cbr 210 [0 0 0 0] ------- [6:0 2:0 32 0] [13] 0 0
r 0.749325333 _8_ AGT  --- 26 cbr 230 [13a 8 7 800] ------- [0:0 8:0 27 8] [13] 4 0
r 0.756788881 _2_ AGT  --- 27 cbr 230 [13a 2 1 800] ------- [6:0 2:0 27 2] [13] 4 0
s 0.784000000 _0_ AGT  --- 28 cbr 210 [0 0 0 0] ------- [0:0 8:0 32 0] [14] 0 0
s 0.784000000 _6_ AGT  --- 29 cbr 210 [0 0 0 0] ------- [6:0 2:0 32 0] [14] 0 0
r 0.801798267 _2_ AGT  --- 29 cbr 230 [13a 2 1 800] ------- [6:0 2:0 27 2] [14] 4 0
r 0.812962881 _8_ AGT  --- 28 cbr 230 [13a 8 7 800] ------- [0:0 8:0 27 8] [14] 4 0
s 0.840000000 _0_ AGT  --- 30 cbr 210 [0 0 0 0] ------- [0:0 8:0 32 0] [15] 0 0
s 0.840000000 _6_ AGT  --- 31 cbr 210 [0 0 0 0] ------- [6:0 2:0 32 0] [15] 0 0
r 0.857378267 _2_ AGT  --- 31 cbr 230 [13a 2 1 800] ------- [6:0 2:0 27 2] [15] 4 0
r 0.868642881 _8_ AGT  --- 30 cbr 230 [13a 8 7 800] ------- [0:0 8:0 27 8] [15] 4 0
s 0.896000000 _0_ AGT  --- 32 cbr 210 [0 0 0 0] ------- [0:0 8:0 32 0] [16] 0 0
s 0.896000000 _6_ AGT  --- 33 cbr 210 [0 0 0 0] ------- [6:0 2:0 32 0] [16] 0 0
r 0.913518267 _8_ AGT  --- 32 cbr 230 [13a 8 7 800] ------- [0:0 8:0 27 8] [16] 4 0
r 0.924502881 _2_ AGT  --- 33 cbr 230 [13a 2 1 800] ------- [6:0 2:0 27 2] [16] 4 0
s 0.952000000 _0_ AGT  --- 34 cbr 210 [0 0 0 0] ------- [0:0 8:0 32 0] [17] 0 0
s 0.952000000 _6_ AGT  --- 35 cbr 210 [0 0 0 0] ------- [6:0 2:0 32 0] [17] 0 0
r 0.972745333 _8_ AGT  --- 34 cbr 230 [13a 8 7 800] ------- [0:0 8:0 27 8] [17] 4 0
r 0.980088881 _2_ AGT  --- 35 cbr 230 [13a 2 1 800] ------- [6:0 2:0 27 2] [17] 4 0
