s 0.000000000 _0_ RTR  --- 0 AODV 44 [0 0 0 0] ------- [0:255 -1:255 1 0] [0x1 1 [0 2] 4.000000] (HELLO)
s 0.000000000 _1_ RTR  --- 0 AODV 44 [0 0 0 0] ------- [1:255 -1:255 1 0] [0x1 1 [1 2] 4.000000] (HELLO)
s 0.000000000 _2_ RTR  --- 0 AODV 44 [0 0 0 0] ------- [2:255 -1:255 1 0] [0x1 1 [2 2] 4.000000] (HELLO)
s 0.000000000 _3_ RTR  --- 0 AODV 44 [0 0 0 0] ------- [3:255 -1:255 1 0] [0x1 1 [3 2] 4.000000] (HELLO)
s 0.000000000 _4_ RTR  --- 0 AODV 44 [0 0 0 0] ------- [4:255 -1:255 1 0] [0x1 1 [4 2] 4.000000] (HELLO)
s 0.000000000 _5_ RTR  --- 0 AODV 44 [0 0 0 0] ------- [5:255 -1:255 1 0] [0x1 1 [5 2] 4.000000] (HELLO)
r 0.100000000 _0_ RTR  --- 0 cbr 210 [0 0 0 0] ------- [0:0 5:0 32 0] [0] 0 0
s 0.100000000 _0_ RTR  --- 0 AODV 48 [0 0 0 0] ------- [0:255 -1:255 30 0] [0x2 1 1 [5 0] [0 4]] (REQUEST)
r 0.132425767 _1_ RTR  --- 0 AODV 48 [0 ffffffff 0 0] ------- [0:255 -1:255 30 0] [0x2 1 1 [5 0] [0 4]] (REQUEST)
s 0.135555384 _1_ RTR  --- 0 AODV 48 [0 ffffffff 0 0] ------- [1:255 -1:255 29 0] [0x2 2 1 [5 0] [0 4]] (REQUEST)
r 0.138425767 _0_ RTR  --- 0 AODV 48 [0 ffffffff 1 0] ------- [1:255 -1:255 29 0] [0x2 2 1 [5 0] [0 4]] (REQUEST)
r 0.138425767 _2_ RTR  --- 0 AODV 48 [0 ffffffff 1 0] ------- [1:255 -1:255 29 0] [0x2 2 1 [5 0] [0 4]] (REQUEST)
r 0.138425792 _3_ RTR  --- 0 AODV 48 [0 ffffffff 1 0] ------- [1:255 -1:255 29 0] [0x2 2 1 [5 0] [0 4]] (REQUEST)
s 0.140771810 _3_ RTR  --- 0 AODV 48 [0 ffffffff 1 0] ------- [3:255 -1:255 28 0] [0x2 3 1 [5 0] [0 4]] (REQUEST)
s 0.146590527 _2_ RTR  --- 0 AODV 48 [0 ffffffff 1 0] ------- [2:255 -1:255 28 0] [0x2 3 1 [5 0] [0 4]] (REQUEST)
r 0.156000000 _0_ RTR  --- 1 cbr 210 [0 0 0 0] ------- [0:0 5:0 32 0] [1] 0 0
r 0.174425400 _4_ RTR  --- 0 AODV 48 [0 ffffffff 3 0] ------- [3:255 -1:255 28 0] [0x2 3 1 [5 0] [0 4]] (REQUEST)
r 0.174425767 _1_ RTR  --- 0 AODV 48 [0 ffffffff 2 0] ------- [2:255 -1:255 28 0] [0x2 3 1 [5 0] [0 4]] (REQUEST)
r 0.174425767 _5_ RTR  --- 0 AODV 48 [0 ffffffff 2 0] ------- [2:255 -1:255 28 0] [0x2 3 1 [5 0] [0 4]] (REQUEST)
s 0.174425767 _5_ RTR  --- 0 AODV 44 [0 0 0 0] ------- [5:255 0:255 30 2] [0x4 1 [5 4] 10.000000] (REPLY)
s 0.180814051 _4_ RTR  --- 0 AODV 48 [0 ffffffff 3 0] ------- [4:255 -1:255 27 0] [0x2 4 1 [5 0] [0 4]] (REQUEST)
r 0.212000000 _0_ RTR  --- 2 cbr 210 [0 0 0 0] ------- [0:0 5:0 32 0] [2] 0 0
r 0.216425400 _3_ RTR  --- 0 AODV 48 [0 ffffffff 4 0] ------- [4:255 -1:255 27 0] [0x2 4 1 [5 0] [0 4]] (REQUEST)
r 0.222409767 _2_ RTR  --- 0 AODV 44 [5 2 5 0] ------- [5:255 0:255 30 2] [0x4 1 [5 4] 10.000000] (REPLY)
f 0.222409767 _2_ RTR  --- 0 AODV 44 [5 2 5 0] ------- [5:255 0:255 29 1] [0x4 2 [5 4] 10.000000] (REPLY)
r 0.264409767 _1_ RTR  --- 0 AODV 44 [5 1 2 0] ------- [5:255 0:255 29 1] [0x4 2 [5 4] 10.000000] (REPLY)
f 0.264409767 _1_ RTR  --- 0 AODV 44 [5 1 2 0] ------- [5:255 0:255 28 0] [0x4 3 [5 4] 10.000000] (REPLY)
r 0.268000000 _0_ RTR  --- 3 cbr 210 [0 0 0 0] ------- [0:0 5:0 32 0] [3] 0 0
r 0.324000000 _0_ RTR  --- 4 cbr 210 [0 0 0 0] ------- [0:0 5:0 32 0] [4] 0 0
r 0.380000000 _0_ RTR  --- 5 cbr 210 [0 0 0 0] ------- [0:0 5:0 32 0] [5] 0 0
r 0.436000000 _0_ RTR  --- 6 cbr 210 [0 0 0 0] ------- [0:0 5:0 32 0] [6] 0 0
r 0.492000000 _0_ RTR  --- 7 cbr 210 [0 0 0 0] ------- [0:0 5:0 32 0] [7] 0 0
r 0.548000000 _0_ RTR  --- 8 cbr 210 [0 0 0 0] ------- [0:0 5:0 32 0] [8] 0 0
r 0.604000000 _0_ RTR  --- 9 cbr 210 [0 0 0 0] ------- [0:0 5:0 32 0] [9] 0 0
r 0.660000000 _0_ RTR  --- 10 cbr 210 [0 0 0 0] ------- [0:0 5:0 32 0] [10] 0 0
r 0.716000000 _0_ RTR  --- 11 cbr 210 [0 0 0 0] ------- [0:0 5:0 32 0] [11] 0 0
s 0.750169789 _0_ RTR  --- 0 AODV 44 [0 0 0 0] ------- [0:255 -1:255 1 0] [0x1 1 [0 4] 4.000000] (HELLO)
s 0.757102330 _2_ RTR  --- 0 AODV 44 [0 0 0 0] ------- [2:255 -1:255 1 0] [0x1 1 [2 2] 4.000000] (HELLO)
r 0.762409767 _1_ RTR  --- 0 AODV 44 [0 ffffffff 0 0] ------- [0:255 -1:255 1 0] [0x1 1 [0 4] 4.000000] (HELLO)
r 0.762409767 _5_ RTR  --- 0 AODV 44 [0 ffffffff 2 0] ------- [2:255 -1:255 1 0] [0x1 1 [2 2] 4.000000] (HELLO)
r 0.772000000 _0_ RTR  --- 12 cbr 210 [0 0 0 0] ------- [0:0 5:0 32 0] [12] 0 0
s 0.794061336 _3_ RTR  --- 0 AODV 44 [0 0 0 0] ------- [3:255 -1:255 1 0] [0x1 1 [3 2] 4.000000] (HELLO)
r 0.804409400 _4_ RTR  --- 0 AODV 44 [0 ffffffff 3 0] ------- [3:255 -1:255 1 0] [0x1 1 [3 2] 4.000000] (HELLO)
r 0.804409792 _1_ RTR  --- 0 AODV 44 [0 ffffffff 3 0] ------- [3:255 -1:255 1 0] [0x1 1 [3 2] 4.000000] (HELLO)
r 0.828000000 _0_ RTR  --- 13 cbr 210 [0 0 0 0] ------- [0:0 5:0 32 0] [13] 0 0
r 0.884000000 _0_ RTR  --- 14 cbr 210 [0 0 0 0] ------- [0:0 5:0 32 0] [14] 0 0
r 0.940000000 _0_ RTR  --- 15 cbr 210 [0 0 0 0] ------- [0:0 5:0 32 0] [15] 0 0
s 0.970586691 _4_ RTR  --- 0 AODV 44 [0 0 0 0] ------- [4:255 -1:255 1 0] [0x1 1 [4 4] 4.000000] (HELLO)
r 0.972409400 _3_ RTR  --- 0 AODV 44 [0 ffffffff 4 0] ------- [4:255 -1:255 1 0] [0x1 1 [4 4] 4.000000] (HELLO)
r 0.996000000 _0_ RTR  --- 16 cbr 210 [0 0 0 0] ------- [0:0 5:0 32 0] [16] 0 0
s 1.027940358 _1_ RTR  --- 0 AODV 44 [0 0 0 0] ------- [1:255 -1:255 1 0] [0x1 1 [1 6] 4.000000] (HELLO)
r 1.052000000 _0_ RTR  --- 17 cbr 210 [0 0 0 0] ------- [0:0 5:0 32 0] [17] 0 0
r 1.056409767 _0_ RTR  --- 0 AODV 44 [0 ffffffff 1 0] ------- [1:255 -1:255 1 0] [0x1 1 [1 6] 4.000000] (HELLO)
r 1.056409767 _2_ RTR  --- 0 AODV 44 [0 ffffffff 1 0] ------- [1:255 -1:255 1 0] [0x1 1 [1 6] 4.000000] (HELLO)
r 1.056409792 _3_ RTR  --- 0 AODV 44 [0 ffffffff 1 0] ------- [1:255 -1:255 1 0] [0x1 1 [1 6] 4.000000] (HELLO)
r 1.108000000 _0_ RTR  --- 18 cbr 210 [0 0 0 0] ------- [0:0 5:0 32 0] [18] 0 0
s 1.149577727 _5_ RTR  --- 0 AODV 44 [0 0 0 0] ------- [5:255 -1:255 1 0] [0x1 1 [5 6] 4.000000] (HELLO)
r 1.164000000 _0_ RTR  --- 19 cbr 210 [0 0 0 0] ------- [0:0 5:0 32 0] [19] 0 0
r 1.182409767 _2_ RTR  --- 0 AODV 44 [0 ffffffff 5 0] ------- [5:255 -1:255 1 0] [0x1 1 [5 6] 4.000000] (HELLO)
r 1.220000000 _0_ RTR  --- 20 cbr 210 [0 0 0 0] ------- [0:0 5:0 32 0] [20] 0 0
r 1.276000000 _0_ RTR  --- 21 cbr 210 [0 0 0 0] ------- [0:0 5:0 32 0] [21] 0 0
r 1.332000000 _0_ RTR  --- 22 cbr 210 [0 0 0 0] ------- [0:0 5:0 32 0] [22] 0 0
r 1.388000000 _0_ RTR  --- 23 cbr 210 [0 0 0 0] ------- [0:0 5:0 32 0] [23] 0 0
r 1.444000000 _0_ RTR  --- 24 cbr 210 [0 0 0 0] ------- [0:0 5:0 32 0] [24] 0 0
r 1.500000000 _0_ RTR  --- 25 cbr 210 [0 0 0 0] ------- [0:0 5:0 32 0] [25] 0 0
r 1.556000000 _0_ RTR  --- 26 cbr 210 [0 0 0 0] ------- [0:0 5:0 32 0] [26] 0 0
r 1.612000000 _0_ RTR  --- 27 cbr 210 [0 0 0 0] ------- [0:0 5:0 32 0] [27] 0 0
s 1.626134039 _3_ RTR  --- 0 AODV 44 [0 0 0 0] ------- [3:255 -1:255 1 0] [0x1 1 [3 6] 4.000000] (HELLO)
r 1.644409400 _4_ RTR  --- 0 AODV 44 [0 ffffffff 3 0] ------- [3:255 -1:255 1 0] [0x1 1 [3 6] 4.000000] (HELLO)
r 1.644409792 _1_ RTR  --- 0 AODV 44 [0 ffffffff 3 0] ------- [3:255 -1:255 1 0] [0x1 1 [3 6] 4.000000] (HELLO)
s 1.654709318 _0_ RTR  --- 0 AODV 44 [0 0 0 0] ------- [0:255 -1:255 1 0] [0x1 1 [0 6] 4.000000] (HELLO)
r 1.668000000 _0_ RTR  --- 28 cbr 210 [0 0 0 0] ------- [0:0 5:0 32 0] [28] 0 0
r 1.686409767 _1_ RTR  --- 0 AODV 44 [0 ffffffff 0 0] ------- [0:255 -1:255 1 0] [0x1 1 [0 6] 4.000000] (HELLO)
r 1.724000000 _0_ RTR  --- 29 cbr 210 [0 0 0 0] ------- [0:0 5:0 32 0] [29] 0 0
s 1.741983970 _4_ RTR  --- 0 AODV 44 [0 0 0 0] ------- [4:255 -1:255 1 0] [0x1 1 [4 4] 4.000000] (HELLO)
r 1.770409400 _3_ RTR  --- 0 AODV 44 [0 ffffffff 4 0] ------- [4:255 -1:255 1 0] [0x1 1 [4 4] 4.000000] (HELLO)
r 1.780000000 _0_ RTR  --- 30 cbr 210 [0 0 0 0] ------- [0:0 5:0 32 0] [30] 0 0
r 1.836000000 _0_ RTR  --- 31 cbr 210 [0 0 0 0] ------- [0:0 5:0 32 0] [31] 0 0
r 1.892000000 _0_ RTR  --- 32 cbr 210 [0 0 0 0] ------- [0:0 5:0 32 0] [32] 0 0
s 1.925264099 _2_ RTR  --- 0 AODV 44 [0 0 0 0] ------- [2:255 -1:255 1 0] [0x1 1 [2 6] 4.000000] (HELLO)
r 1.938409767 _1_ RTR  --- 0 AODV 44 [0 ffffffff 2 0] ------- [2:255 -1:255 1 0] [0x1 1 [2 6] 4.000000] (HELLO)
r 1.938409767 _5_ RTR  --- 0 AODV 44 [0 ffffffff 2 0] ------- [2:255 -1:255 1 0] [0x1 1 [2 6] 4.000000] (HELLO)
r 1.948000000 _0_ RTR  --- 33 cbr 210 [0 0 0 0] ------- [0:0 5:0 32 0] [33] 0 0
s 1.948000000 _0_ RTR  --- 0 AODV 48 [0 0 0 0] ------- [0:255 -1:255 30 0] [0x2 1 2 [5 0] [0 8]] (REQUEST)
s 1.956481851 _5_ RTR  --- 0 AODV 44 [0 0 0 0] ------- [5:255 -1:255 1 0] [0x1 1 [5 6] 4.000000] (HELLO)
r 1.980409767 _2_ RTR  --- 0 AODV 44 [0 ffffffff 5 0] ------- [5:255 -1:255 1 0] [0x1 1 [5 6] 4.000000] (HELLO)
r 1.980425767 _1_ RTR  --- 0 AODV 48 [0 ffffffff 0 0] ------- [0:255 -1:255 30 0] [0x2 1 2 [5 0] [0 8]] (REQUEST)
s 1.983913177 _1_ RTR  --- 0 AODV 48 [0 ffffffff 0 0] ------- [1:255 -1:255 29 0] [0x2 2 2 [5 4] [0 8]] (REQUEST)
r 1.986425767 _0_ RTR  --- 0 AODV 48 [0 ffffffff 1 0] ------- [1:255 -1:255 29 0] [0x2 2 2 [5 4] [0 8]] (REQUEST)
r 1.986425767 _2_ RTR  --- 0 AODV 48 [0 ffffffff 1 0] ------- [1:255 -1:255 29 0] [0x2 2 2 [5 4] [0 8]] (REQUEST)
r 1.986425792 _3_ RTR  --- 0 AODV 48 [0 ffffffff 1 0] ------- [1:255 -1:255 29 0] [0x2 2 2 [5 4] [0 8]] (REQUEST)
s 1.989006646 _2_ RTR  --- 0 AODV 48 [0 ffffffff 1 0] ------- [2:255 -1:255 28 0] [0x2 3 2 [5 4] [0 8]] (REQUEST)
s 1.990512649 _3_ RTR  --- 0 AODV 48 [0 ffffffff 1 0] ------- [3:255 -1:255 28 0] [0x2 3 2 [5 4] [0 8]] (REQUEST)
r 2.004000000 _0_ RTR  --- 34 cbr 210 [0 0 0 0] ------- [0:0 5:0 32 0] [34] 0 0
r 2.022425400 _4_ RTR  --- 0 AODV 48 [0 ffffffff 3 0] ------- [3:255 -1:255 28 0] [0x2 3 2 [5 4] [0 8]] (REQUEST)
r 2.022425767 _1_ RTR  --- 0 AODV 48 [0 ffffffff 2 0] ------- [2:255 -1:255 28 0] [0x2 3 2 [5 4] [0 8]] (REQUEST)
r 2.022425767 _5_ RTR  --- 0 AODV 48 [0 ffffffff 2 0] ------- [2:255 -1:255 28 0] [0x2 3 2 [5 4] [0 8]] (REQUEST)
s 2.022425767 _5_ RTR  --- 0 AODV 44 [0 0 0 0] ------- [5:255 0:255 30 2] [0x4 1 [5 8] 10.000000] (REPLY)
s 2.027611888 _4_ RTR  --- 0 AODV 48 [0 ffffffff 3 0] ------- [4:255 -1:255 27 0] [0x2 4 2 [5 4] [0 8]] (REQUEST)
r 2.028409767 _2_ RTR  --- 0 AODV 44 [5 2 5 0] ------- [5:255 0:255 30 2] [0x4 1 [5 8] 10.000000] (REPLY)
f 2.028409767 _2_ RTR  --- 0 AODV 44 [5 2 5 0] ------- [5:255 0:255 29 1] [0x4 2 [5 8] 10.000000] (REPLY)
r 2.028425400 _3_ RTR  --- 0 AODV 48 [0 ffffffff 4 0] ------- [4:255 -1:255 27 0] [0x2 4 2 [5 4] [0 8]] (REQUEST)
r 2.060000000 _0_ RTR  --- 35 cbr 210 [0 0 0 0] ------- [0:0 5:0 32 0] [35] 0 0
r 2.064409767 _1_ RTR  --- 0 AODV 44 [5 1 2 0] ------- [5:255 0:255 29 1] [0x4 2 [5 8] 10.000000] (REPLY)
f 2.064409767 _1_ RTR  --- 0 AODV 44 [5 1 2 0] ------- [5:255 0:255 28 0] [0x4 3 [5 8] 10.000000] (REPLY)
D 2.064409767 _1_ IFQ  ARP 0 AODV 44 [5 1 1 0] ------- [5:255 0:255 28 0] [0x4 3 [5 4] 10.000000] (REPLY)
s 2.097974188 _1_ RTR  --- 0 AODV 44 [0 0 0 0] ------- [1:255 -1:255 1 0] [0x1 1 [1 8] 4.000000] (HELLO)
r 2.106409767 _2_ RTR  --- 0 AODV 44 [0 ffffffff 1 0] ------- [1:255 -1:255 1 0] [0x1 1 [1 8] 4.000000] (HELLO)
r 2.106409792 _3_ RTR  --- 0 AODV 44 [0 ffffffff 1 0] ------- [1:255 -1:255 1 0] [0x1 1 [1 8] 4.000000] (HELLO)
r 2.112409767 _0_ RTR  --- 0 AODV 44 [5 0 1 0] ------- [5:255 0:255 28 0] [0x4 3 [5 8] 10.000000] (REPLY)
s 2.112409767 _0_ RTR  --- 0 cbr 230 [0 0 0 0] ------- [0:0 5:0 30 1] [0] 0 0
r 2.116000000 _0_ RTR  --- 36 cbr 210 [0 0 0 0] ------- [0:0 5:0 32 0] [36] 0 0
s 2.116000000 _0_ RTR  --- 36 cbr 230 [0 0 0 0] ------- [0:0 5:0 30 1] [36] 0 0
s 2.122409767 _0_ RTR  --- 1 cbr 230 [0 0 0 0] ------- [0:0 5:0 30 1] [1] 0 0
r 2.131153767 _1_ RTR  --- 0 cbr 230 [5 1 0 0] ------- [0:0 5:0 30 1] [0] 1 0
f 2.131153767 _1_ RTR  --- 0 cbr 230 [5 1 0 0] ------- [0:0 5:0 29 2] [0] 1 0
s 2.132409767 _0_ RTR  --- 2 cbr 230 [0 0 0 0] ------- [0:0 5:0 30 1] [2] 0 0
r 2.137153767 _2_ RTR  --- 0 cbr 230 [5 2 1 0] ------- [0:0 5:0 29 2] [0] 2 0
f 2.137153767 _2_ RTR  --- 0 cbr 230 [5 2 1 0] ------- [0:0 5:0 28 5] [0] 2 0
s 2.142409767 _0_ RTR  --- 3 cbr 230 [0 0 0 0] ------- [0:0 5:0 30 1] [3] 0 0
s 2.152409767 _0_ RTR  --- 4 cbr 230 [0 0 0 0] ------- [0:0 5:0 30 1] [4] 0 0
s 2.162409767 _0_ RTR  --- 5 cbr 230 [0 0 0 0] ------- [0:0 5:0 30 1] [5] 0 0
r 2.172000000 _0_ RTR  --- 37 cbr 210 [0 0 0 0] ------- [0:0 5:0 32 0] [37] 0 0
s 2.172000000 _0_ RTR  --- 37 cbr 230 [0 0 0 0] ------- [0:0 5:0 30 1] [37] 0 0
s 2.172409767 _0_ RTR  --- 6 cbr 230 [0 0 0 0] ------- [0:0 5:0 30 1] [6] 0 0
r 2.173153767 _1_ RTR  --- 36 cbr 230 [5 1 0 0] ------- [0:0 5:0 30 1] [36] 1 0
f 2.173153767 _1_ RTR  --- 36 cbr 230 [5 1 0 0] ------- [0:0 5:0 29 2] [36] 1 0
r 2.179153767 _2_ RTR  --- 36 cbr 230 [5 2 1 0] ------- [0:0 5:0 29 2] [36] 2 0
f 2.179153767 _2_ RTR  --- 36 cbr 230 [5 2 1 0] ------- [0:0 5:0 28 5] [36] 2 0
s 2.182409767 _0_ RTR  --- 7 cbr 230 [0 0 0 0] ------- [0:0 5:0 30 1] [7] 0 0
s 2.192409767 _0_ RTR  --- 8 cbr 230 [0 0 0 0] ------- [0:0 5:0 30 1] [8] 0 0
s 2.202409767 _0_ RTR  --- 9 cbr 230 [0 0 0 0] ------- [0:0 5:0 30 1] [9] 0 0
s 2.212409767 _0_ RTR  --- 10 cbr 230 [0 0 0 0] ------- [0:0 5:0 30 1] [10] 0 0
r 2.215153767 _1_ RTR  --- 1 cbr 230 [5 1 0 0] ------- [0:0 5:0 30 1] [1] 1 0
f 2.215153767 _1_ RTR  --- 1 cbr 230 [5 1 0 0] ------- [0:0 5:0 29 2] [1] 1 0
r 2.221153767 _2_ RTR  --- 1 cbr 230 [5 2 1 0] ------- [0:0 5:0 29 2] [1] 2 0
f 2.221153767 _2_ RTR  --- 1 cbr 230 [5 2 1 0] ------- [0:0 5:0 28 5] [1] 2 0
s 2.222409767 _0_ RTR  --- 11 cbr 230 [0 0 0 0] ------- [0:0 5:0 30 1] [11] 0 0
r 2.228000000 _0_ RTR  --- 38 cbr 210 [0 0 0 0] ------- [0:0 5:0 32 0] [38] 0 0
s 2.228000000 _0_ RTR  --- 38 cbr 230 [0 0 0 0] ------- [0:0 5:0 30 1] [38] 0 0
s 2.232409767 _0_ RTR  --- 12 cbr 230 [0 0 0 0] ------- [0:0 5:0 30 1] [12] 0 0
s 2.242409767 _0_ RTR  --- 13 cbr 230 [0 0 0 0] ------- [0:0 5:0 30 1] [13] 0 0
s 2.252409767 _0_ RTR  --- 14 cbr 230 [0 0 0 0] ------- [0:0 5:0 30 1] [14] 0 0
r 2.257153767 _1_ RTR  --- 2 cbr 230 [5 1 0 0] ------- [0:0 5:0 30 1] [2] 1 0
f 2.257153767 _1_ RTR  --- 2 cbr 230 [5 1 0 0] ------- [0:0 5:0 29 2] [2] 1 0
s 2.262409767 _0_ RTR  --- 15 cbr 230 [0 0 0 0] ------- [0:0 5:0 30 1] [15] 0 0
r 2.263153767 _2_ RTR  --- 2 cbr 230 [5 2 1 0] ------- [0:0 5:0 29 2] [2] 2 0
f 2.263153767 _2_ RTR  --- 2 cbr 230 [5 2 1 0] ------- [0:0 5:0 28 5] [2] 2 0
s 2.272409767 _0_ RTR  --- 16 cbr 230 [0 0 0 0] ------- [0:0 5:0 30 1] [16] 0 0
s 2.282409767 _0_ RTR  --- 17 cbr 230 [0 0 0 0] ------- [0:0 5:0 30 1] [17] 0 0
r 2.284000000 _0_ RTR  --- 39 cbr 210 [0 0 0 0] ------- [0:0 5:0 32 0] [39] 0 0
s 2.284000000 _0_ RTR  --- 39 cbr 230 [0 0 0 0] ------- [0:0 5:0 30 1] [39] 0 0
s 2.292409767 _0_ RTR  --- 18 cbr 230 [0 0 0 0] ------- [0:0 5:0 30 1] [18] 0 0
r 2.299153767 _1_ RTR  --- 3 cbr 230 [5 1 0 0] ------- [0:0 5:0 30 1] [3] 1 0
f 2.299153767 _1_ RTR  --- 3 cbr 230 [5 1 0 0] ------- [0:0 5:0 29 2] [3] 1 0
s 2.302409767 _0_ RTR  --- 19 cbr 230 [0 0 0 0] ------- [0:0 5:0 30 1] [19] 0 0
r 2.305153767 _2_ RTR  --- 3 cbr 230 [5 2 1 0] ------- [0:0 5:0 29 2] [3] 2 0
f 2.305153767 _2_ RTR  --- 3 cbr 230 [5 2 1 0] ------- [0:0 5:0 28 5] [3] 2 0
s 2.312409767 _0_ RTR  --- 20 cbr 230 [0 0 0 0] ------- [0:0 5:0 30 1] [20] 0 0
s 2.322409767 _0_ RTR  --- 21 cbr 230 [0 0 0 0] ------- [0:0 5:0 30 1] [21] 0 0
s 2.332409767 _0_ RTR  --- 22 cbr 230 [0 0 0 0] ------- [0:0 5:0 30 1] [22] 0 0
r 2.340000000 _0_ RTR  --- 40 cbr 210 [0 0 0 0] ------- [0:0 5:0 32 0] [40] 0 0
s 2.340000000 _0_ RTR  --- 40 cbr 230 [0 0 0 0] ------- [0:0 5:0 30 1] [40] 0 0
r 2.341153767 _1_ RTR  --- 4 cbr 230 [5 1 0 0] ------- [0:0 5:0 30 1] [4] 1 0
f 2.341153767 _1_ RTR  --- 4 cbr 230 [5 1 0 0] ------- [0:0 5:0 29 2] [4] 1 0
s 2.342409767 _0_ RTR  --- 23 cbr 230 [0 0 0 0] ------- [0:0 5:0 30 1] [23] 0 0
r 2.347153767 _2_ RTR  --- 4 cbr 230 [5 2 1 0] ------- [0:0 5:0 29 2] [4] 2 0
f 2.347153767 _2_ RTR  --- 4 cbr 230 [5 2 1 0] ------- [0:0 5:0 28 5] [4] 2 0
s 2.352409767 _0_ RTR  --- 24 cbr 230 [0 0 0 0] ------- [0:0 5:0 30 1] [24] 0 0
s 2.362409767 _0_ RTR  --- 25 cbr 230 [0 0 0 0] ------- [0:0 5:0 30 1] [25] 0 0
s 2.372409767 _0_ RTR  --- 26 cbr 230 [0 0 0 0] ------- [0:0 5:0 30 1] [26] 0 0
s 2.382409767 _0_ RTR  --- 27 cbr 230 [0 0 0 0] ------- [0:0 5:0 30 1] [27] 0 0
r 2.383153767 _1_ RTR  --- 5 cbr 230 [5 1 0 0] ------- [0:0 5:0 30 1] [5] 1 0
f 2.383153767 _1_ RTR  --- 5 cbr 230 [5 1 0 0] ------- [0:0 5:0 29 2] [5] 1 0
r 2.389153767 _2_ RTR  --- 5 cbr 230 [5 2 1 0] ------- [0:0 5:0 29 2] [5] 2 0
f 2.389153767 _2_ RTR  --- 5 cbr 230 [5 2 1 0] ------- [0:0 5:0 28 5] [5] 2 0
s 2.392409767 _0_ RTR  --- 28 cbr 230 [0 0 0 0] ------- [0:0 5:0 30 1] [28] 0 0
r 2.396000000 _0_ RTR  --- 41 cbr 210 [0 0 0 0] ------- [0:0 5:0 32 0] [41] 0 0
s 2.396000000 _0_ RTR  --- 41 cbr 230 [0 0 0 0] ------- [0:0 5:0 30 1] [41] 0 0
s 2.402409767 _0_ RTR  --- 29 cbr 230 [0 0 0 0] ------- [0:0 5:0 30 1] [29] 0 0
s 2.412409767 _0_ RTR  --- 30 cbr 230 [0 0 0 0] ------- [0:0 5:0 30 1] [30] 0 0
s 2.422409767 _0_ RTR  --- 31 cbr 230 [0 0 0 0] ------- [0:0 5:0 30 1] [31] 0 0
r 2.425153767 _1_ RTR  --- 37 cbr 230 [5 1 0 0] ------- [0:0 5:0 30 1] [37] 1 0
f 2.425153767 _1_ RTR  --- 37 cbr 230 [5 1 0 0] ------- [0:0 5:0 29 2] [37] 1 0
r 2.431153767 _2_ RTR  --- 37 cbr 230 [5 2 1 0] ------- [0:0 5:0 29 2] [37] 2 0
f 2.431153767 _2_ RTR  --- 37 cbr 230 [5 2 1 0] ------- [0:0 5:0 28 5] [37] 2 0
s 2.432409767 _0_ RTR  --- 32 cbr 230 [0 0 0 0] ------- [0:0 5:0 30 1] [32] 0 0
s 2.442409767 _0_ RTR  --- 33 cbr 230 [0 0 0 0] ------- [0:0 5:0 30 1] [33] 0 0
r 2.452000000 _0_ RTR  --- 42 cbr 210 [0 0 0 0] ------- [0:0 5:0 32 0] [42] 0 0
s 2.452000000 _0_ RTR  --- 42 cbr 230 [0 0 0 0] ------- [0:0 5:0 30 1] [42] 0 0
s 2.452409767 _0_ RTR  --- 34 cbr 230 [0 0 0 0] ------- [0:0 5:0 30 1] [34] 0 0
s 2.462409767 _0_ RTR  --- 35 cbr 230 [0 0 0 0] ------- [0:0 5:0 30 1] [35] 0 0
r 2.467153767 _1_ RTR  --- 6 cbr 230 [5 1 0 0] ------- [0:0 5:0 30 1] [6] 1 0
f 2.467153767 _1_ RTR  --- 6 cbr 230 [5 1 0 0] ------- [0:0 5:0 29 2] [6] 1 0
r 2.473153767 _2_ RTR  --- 6 cbr 230 [5 2 1 0] ------- [0:0 5:0 29 2] [6] 2 0
f 2.473153767 _2_ RTR  --- 6 cbr 230 [5 2 1 0] ------- [0:0 5:0 28 5] [6] 2 0
r 2.508000000 _0_ RTR  --- 43 cbr 210 [0 0 0 0] ------- [0:0 5:0 32 0] [43] 0 0
s 2.508000000 _0_ RTR  --- 43 cbr 230 [0 0 0 0] ------- [0:0 5:0 30 1] [43] 0 0
r 2.509153767 _1_ RTR  --- 7 cbr 230 [5 1 0 0] ------- [0:0 5:0 30 1] [7] 1 0
f 2.509153767 _1_ RTR  --- 7 cbr 230 [5 1 0 0] ------- [0:0 5:0 29 2] [7] 1 0
r 2.515153767 _2_ RTR  --- 7 cbr 230 [5 2 1 0] ------- [0:0 5:0 29 2] [7] 2 0
f 2.515153767 _2_ RTR  --- 7 cbr 230 [5 2 1 0] ------- [0:0 5:0 28 5] [7] 2 0
r 2.551153767 _1_ RTR  --- 8 cbr 230 [5 1 0 0] ------- [0:0 5:0 30 1] [8] 1 0
f 2.551153767 _1_ RTR  --- 8 cbr 230 [5 1 0 0] ------- [0:0 5:0 29 2] [8] 1 0
r 2.557153767 _2_ RTR  --- 8 cbr 230 [5 2 1 0] ------- [0:0 5:0 29 2] [8] 2 0
f 2.557153767 _2_ RTR  --- 8 cbr 230 [5 2 1 0] ------- [0:0 5:0 28 5] [8] 2 0
r 2.564000000 _0_ RTR  --- 44 cbr 210 [0 0 0 0] ------- [0:0 5:0 32 0] [44] 0 0
s 2.564000000 _0_ RTR  --- 44 cbr 230 [0 0 0 0] ------- [0:0 5:0 30 1] [44] 0 0
s 2.579386597 _4_ RTR  --- 0 AODV 44 [0 0 0 0] ------- [4:255 -1:255 1 0] [0x1 1 [4 4] 4.000000] (HELLO)
r 2.593153767 _1_ RTR  --- 9 cbr 230 [5 1 0 0] ------- [0:0 5:0 30 1] [9] 1 0
f 2.593153767 _1_ RTR  --- 9 cbr 230 [5 1 0 0] ------- [0:0 5:0 29 2] [9] 1 0
r 2.599153767 _2_ RTR  --- 9 cbr 230 [5 2 1 0] ------- [0:0 5:0 29 2] [9] 2 0
f 2.599153767 _2_ RTR  --- 9 cbr 230 [5 2 1 0] ------- [0:0 5:0 28 5] [9] 2 0
r 2.610409400 _3_ RTR  --- 0 AODV 44 [0 ffffffff 4 0] ------- [4:255 -1:255 1 0] [0x1 1 [4 4] 4.000000] (HELLO)
s 2.616537686 _0_ RTR  --- 0 AODV 44 [0 0 0 0] ------- [0:255 -1:255 1 0] [0x1 1 [0 8] 4.000000] (HELLO)
r 2.620000000 _0_ RTR  --- 45 cbr 210 [0 0 0 0] ------- [0:0 5:0 32 0] [45] 0 0
s 2.620000000 _0_ RTR  --- 45 cbr 230 [0 0 0 0] ------- [0:0 5:0 30 1] [45] 0 0
r 2.635153767 _1_ RTR  --- 10 cbr 230 [5 1 0 0] ------- [0:0 5:0 30 1] [10] 1 0
f 2.635153767 _1_ RTR  --- 10 cbr 230 [5 1 0 0] ------- [0:0 5:0 29 2] [10] 1 0
r 2.641153767 _2_ RTR  --- 10 cbr 230 [5 2 1 0] ------- [0:0 5:0 29 2] [10] 2 0
f 2.641153767 _2_ RTR  --- 10 cbr 230 [5 2 1 0] ------- [0:0 5:0 28 5] [10] 2 0
r 2.652409767 _1_ RTR  --- 0 AODV 44 [0 ffffffff 0 0] ------- [0:255 -1:255 1 0] [0x1 1 [0 8] 4.000000] (HELLO)
r 2.676000000 _0_ RTR  --- 46 cbr 210 [0 0 0 0] ------- [0:0 5:0 32 0] [46] 0 0
s 2.676000000 _0_ RTR  --- 46 cbr 230 [0 0 0 0] ------- [0:0 5:0 30 1] [46] 0 0
r 2.677153767 _1_ RTR  --- 11 cbr 230 [5 1 0 0] ------- [0:0 5:0 30 1] [11] 1 0
f 2.677153767 _1_ RTR  --- 11 cbr 230 [5 1 0 0] ------- [0:0 5:0 29 2] [11] 1 0
r 2.683153767 _2_ RTR  --- 11 cbr 230 [5 2 1 0] ------- [0:0 5:0 29 2] [11] 2 0
f 2.683153767 _2_ RTR  --- 11 cbr 230 [5 2 1 0] ------- [0:0 5:0 28 5] [11] 2 0
r 2.719153767 _1_ RTR  --- 38 cbr 230 [5 1 0 0] ------- [0:0 5:0 30 1] [38] 1 0
f 2.719153767 _1_ RTR  --- 38 cbr 230 [5 1 0 0] ------- [0:0 5:0 29 2] [38] 1 0
s 2.722333526 _2_ RTR  --- 0 AODV 44 [0 0 0 0] ------- [2:255 -1:255 1 0] [0x1 1 [2 6] 4.000000] (HELLO)
r 2.725153767 _2_ RTR  --- 38 cbr 230 [5 2 1 0] ------- [0:0 5:0 29 2] [38] 2 0
f 2.725153767 _2_ RTR  --- 38 cbr 230 [5 2 1 0] ------- [0:0 5:0 28 5] [38] 2 0
r 2.732000000 _0_ RTR  --- 47 cbr 210 [0 0 0 0] ------- [0:0 5:0 32 0] [47] 0 0
s 2.732000000 _0_ RTR  --- 47 cbr 230 [0 0 0 0] ------- [0:0 5:0 30 1] [47] 0 0
r 2.736409767 _1_ RTR  --- 0 AODV 44 [0 ffffffff 2 0] ------- [2:255 -1:255 1 0] [0x1 1 [2 6] 4.000000] (HELLO)
r 2.736409767 _5_ RTR  --- 0 AODV 44 [0 ffffffff 2 0] ------- [2:255 -1:255 1 0] [0x1 1 [2 6] 4.000000] (HELLO)
r 2.761153767 _1_ RTR  --- 12 cbr 230 [5 1 0 0] ------- [0:0 5:0 30 1] [12] 1 0
f 2.761153767 _1_ RTR  --- 12 cbr 230 [5 1 0 0] ------- [0:0 5:0 29 2] [12] 1 0
r 2.767153767 _2_ RTR  --- 12 cbr 230 [5 2 1 0] ------- [0:0 5:0 29 2] [12] 2 0
f 2.767153767 _2_ RTR  --- 12 cbr 230 [5 2 1 0] ------- [0:0 5:0 28 5] [12] 2 0
r 2.788000000 _0_ RTR  --- 48 cbr 210 [0 0 0 0] ------- [0:0 5:0 32 0] [48] 0 0
s 2.788000000 _0_ RTR  --- 48 cbr 230 [0 0 0 0] ------- [0:0 5:0 30 1] [48] 0 0
r 2.803153767 _1_ RTR  --- 13 cbr 230 [5 1 0 0] ------- [0:0 5:0 30 1] [13] 1 0
f 2.803153767 _1_ RTR  --- 13 cbr 230 [5 1 0 0] ------- [0:0 5:0 29 2] [13] 1 0
s 2.805997888 _3_ RTR  --- 0 AODV 44 [0 0 0 0] ------- [3:255 -1:255 1 0] [0x1 1 [3 6] 4.000000] (HELLO)
r 2.809153767 _2_ RTR  --- 13 cbr 230 [5 2 1 0] ------- [0:0 5:0 29 2] [13] 2 0
f 2.809153767 _2_ RTR  --- 13 cbr 230 [5 2 1 0] ------- [0:0 5:0 28 5] [13] 2 0
r 2.820409400 _4_ RTR  --- 0 AODV 44 [0 ffffffff 3 0] ------- [3:255 -1:255 1 0] [0x1 1 [3 6] 4.000000] (HELLO)
r 2.820409792 _1_ RTR  --- 0 AODV 44 [0 ffffffff 3 0] ------- [3:255 -1:255 1 0] [0x1 1 [3 6] 4.000000] (HELLO)
r 2.844000000 _0_ RTR  --- 49 cbr 210 [0 0 0 0] ------- [0:0 5:0 32 0] [49] 0 0
s 2.844000000 _0_ RTR  --- 49 cbr 230 [0 0 0 0] ------- [0:0 5:0 30 1] [49] 0 0
r 2.845153767 _1_ RTR  --- 14 cbr 230 [5 1 0 0] ------- [0:0 5:0 30 1] [14] 1 0
f 2.845153767 _1_ RTR  --- 14 cbr 230 [5 1 0 0] ------- [0:0 5:0 29 2] [14] 1 0
r 2.851153767 _2_ RTR  --- 14 cbr 230 [5 2 1 0] ------- [0:0 5:0 29 2] [14] 2 0
f 2.851153767 _2_ RTR  --- 14 cbr 230 [5 2 1 0] ------- [0:0 5:0 28 5] [14] 2 0
r 2.887153767 _1_ RTR  --- 15 cbr 230 [5 1 0 0] ------- [0:0 5:0 30 1] [15] 1 0
f 2.887153767 _1_ RTR  --- 15 cbr 230 [5 1 0 0] ------- [0:0 5:0 29 2] [15] 1 0
r 2.893153767 _2_ RTR  --- 15 cbr 230 [5 2 1 0] ------- [0:0 5:0 29 2] [15] 2 0
f 2.893153767 _2_ RTR  --- 15 cbr 230 [5 2 1 0] ------- [0:0 5:0 28 5] [15] 2 0
r 2.900000000 _0_ RTR  --- 50 cbr 210 [0 0 0 0] ------- [0:0 5:0 32 0] [50] 0 0
s 2.900000000 _0_ RTR  --- 50 cbr 230 [0 0 0 0] ------- [0:0 5:0 30 1] [50] 0 0
r 2.929153767 _1_ RTR  --- 16 cbr 230 [5 1 0 0] ------- [0:0 5:0 30 1] [16] 1 0
f 2.929153767 _1_ RTR  --- 16 cbr 230 [5 1 0 0] ------- [0:0 5:0 29 2] [16] 1 0
r 2.935153767 _2_ RTR  --- 16 cbr 230 [5 2 1 0] ------- [0:0 5:0 29 2] [16] 2 0
f 2.935153767 _2_ RTR  --- 16 cbr 230 [5 2 1 0] ------- [0:0 5:0 28 5] [16] 2 0
r 2.956000000 _0_ RTR  --- 51 cbr 210 [0 0 0 0] ------- [0:0 5:0 32 0] [51] 0 0
s 2.956000000 _0_ RTR  --- 51 cbr 230 [0 0 0 0] ------- [0:0 5:0 30 1] [51] 0 0
r 2.971153767 _1_ RTR  --- 17 cbr 230 [5 1 0 0] ------- [0:0 5:0 30 1] [17] 1 0
f 2.971153767 _1_ RTR  --- 17 cbr 230 [5 1 0 0] ------- [0:0 5:0 29 2] [17] 1 0
r 2.977153767 _2_ RTR  --- 17 cbr 230 [5 2 1 0] ------- [0:0 5:0 29 2] [17] 2 0
f 2.977153767 _2_ RTR  --- 17 cbr 230 [5 2 1 0] ------- [0:0 5:0 28 5] [17] 2 0
r 3.012000000 _0_ RTR  --- 52 cbr 210 [0 0 0 0] ------- [0:0 5:0 32 0] [52] 0 0
s 3.012000000 _0_ RTR  --- 52 cbr 230 [0 0 0 0] ------- [0:0 5:0 30 1] [52] 0 0
r 3.013153767 _1_ RTR  --- 39 cbr 230 [5 1 0 0] ------- [0:0 5:0 30 1] [39] 1 0
f 3.013153767 _1_ RTR  --- 39 cbr 230 [5 1 0 0] ------- [0:0 5:0 29 2] [39] 1 0
r 3.019153767 _2_ RTR  --- 39 cbr 230 [5 2 1 0] ------- [0:0 5:0 29 2] [39] 2 0
f 3.019153767 _2_ RTR  --- 39 cbr 230 [5 2 1 0] ------- [0:0 5:0 28 5] [39] 2 0
r 3.055153767 _1_ RTR  --- 18 cbr 230 [5 1 0 0] ------- [0:0 5:0 30 1] [18] 1 0
f 3.055153767 _1_ RTR  --- 18 cbr 230 [5 1 0 0] ------- [0:0 5:0 29 2] [18] 1 0
r 3.061153767 _2_ RTR  --- 18 cbr 230 [5 2 1 0] ------- [0:0 5:0 29 2] [18] 2 0
f 3.061153767 _2_ RTR  --- 18 cbr 230 [5 2 1 0] ------- [0:0 5:0 28 5] [18] 2 0
r 3.068000000 _0_ RTR  --- 53 cbr 210 [0 0 0 0] ------- [0:0 5:0 32 0] [53] 0 0
s 3.068000000 _0_ RTR  --- 53 cbr 230 [0 0 0 0] ------- [0:0 5:0 30 1] [53] 0 0
s 3.081032156 _1_ RTR  --- 0 AODV 44 [0 0 0 0] ------- [1:255 -1:255 1 0] [0x1 1 [1 8] 4.000000] (HELLO)
r 3.097153767 _1_ RTR  --- 19 cbr 230 [5 1 0 0] ------- [0:0 5:0 30 1] [19] 1 0
f 3.097153767 _1_ RTR  --- 19 cbr 230 [5 1 0 0] ------- [0:0 5:0 29 2] [19] 1 0
s 3.109996128 _5_ RTR  --- 0 AODV 44 [0 0 0 0] ------- [5:255 -1:255 1 0] [0x1 1 [5 8] 4.000000] (HELLO)
r 3.114409767 _0_ RTR  --- 0 AODV 44 [0 ffffffff 1 0] ------- [1:255 -1:255 1 0] [0x1 1 [1 8] 4.000000] (HELLO)
r 3.114409767 _2_ RTR  --- 0 AODV 44 [0 ffffffff 1 0] ------- [1:255 -1:255 1 0] [0x1 1 [1 8] 4.000000] (HELLO)
r 3.114409792 _3_ RTR  --- 0 AODV 44 [0 ffffffff 1 0] ------- [1:255 -1:255 1 0] [0x1 1 [1 8] 4.000000] (HELLO)
r 3.124000000 _0_ RTR  --- 54 cbr 210 [0 0 0 0] ------- [0:0 5:0 32 0] [54] 0 0
s 3.124000000 _0_ RTR  --- 54 cbr 230 [0 0 0 0] ------- [0:0 5:0 30 1] [54] 0 0
r 3.133153767 _2_ RTR  --- 19 cbr 230 [5 2 1 0] ------- [0:0 5:0 29 2] [19] 2 0
f 3.133153767 _2_ RTR  --- 19 cbr 230 [5 2 1 0] ------- [0:0 5:0 28 5] [19] 2 0
r 3.139153767 _1_ RTR  --- 20 cbr 230 [5 1 0 0] ------- [0:0 5:0 30 1] [20] 1 0
f 3.139153767 _1_ RTR  --- 20 cbr 230 [5 1 0 0] ------- [0:0 5:0 29 2] [20] 1 0
r 3.145153767 _2_ RTR  --- 20 cbr 230 [5 2 1 0] ------- [0:0 5:0 29 2] [20] 2 0
f 3.145153767 _2_ RTR  --- 20 cbr 230 [5 2 1 0] ------- [0:0 5:0 28 5] [20] 2 0
r 3.180000000 _0_ RTR  --- 55 cbr 210 [0 0 0 0] ------- [0:0 5:0 32 0] [55] 0 0
s 3.180000000 _0_ RTR  --- 55 cbr 230 [0 0 0 0] ------- [0:0 5:0 30 1] [55] 0 0
r 3.181153767 _1_ RTR  --- 21 cbr 230 [5 1 0 0] ------- [0:0 5:0 30 1] [21] 1 0
f 3.181153767 _1_ RTR  --- 21 cbr 230 [5 1 0 0] ------- [0:0 5:0 29 2] [21] 1 0
r 3.187153767 _2_ RTR  --- 21 cbr 230 [5 2 1 0] ------- [0:0 5:0 29 2] [21] 2 0
f 3.187153767 _2_ RTR  --- 21 cbr 230 [5 2 1 0] ------- [0:0 5:0 28 5] [21] 2 0
r 3.223153767 _1_ RTR  --- 22 cbr 230 [5 1 0 0] ------- [0:0 5:0 30 1] [22] 1 0
f 3.223153767 _1_ RTR  --- 22 cbr 230 [5 1 0 0] ------- [0:0 5:0 29 2] [22] 1 0
r 3.229153767 _2_ RTR  --- 22 cbr 230 [5 2 1 0] ------- [0:0 5:0 29 2] [22] 2 0
f 3.229153767 _2_ RTR  --- 22 cbr 230 [5 2 1 0] ------- [0:0 5:0 28 5] [22] 2 0
r 3.236000000 _0_ RTR  --- 56 cbr 210 [0 0 0 0] ------- [0:0 5:0 32 0] [56] 0 0
s 3.236000000 _0_ RTR  --- 56 cbr 230 [0 0 0 0] ------- [0:0 5:0 30 1] [56] 0 0
r 3.265153767 _1_ RTR  --- 40 cbr 230 [5 1 0 0] ------- [0:0 5:0 30 1] [40] 1 0
f 3.265153767 _1_ RTR  --- 40 cbr 230 [5 1 0 0] ------- [0:0 5:0 29 2] [40] 1 0
r 3.271153767 _2_ RTR  --- 40 cbr 230 [5 2 1 0] ------- [0:0 5:0 29 2] [40] 2 0
f 3.271153767 _2_ RTR  --- 40 cbr 230 [5 2 1 0] ------- [0:0 5:0 28 5] [40] 2 0
r 3.292000000 _0_ RTR  --- 57 cbr 210 [0 0 0 0] ------- [0:0 5:0 32 0] [57] 0 0
s 3.292000000 _0_ RTR  --- 57 cbr 230 [0 0 0 0] ------- [0:0 5:0 30 1] [57] 0 0
r 3.307153767 _1_ RTR  --- 23 cbr 230 [5 1 0 0] ------- [0:0 5:0 30 1] [23] 1 0
f 3.307153767 _1_ RTR  --- 23 cbr 230 [5 1 0 0] ------- [0:0 5:0 29 2] [23] 1 0
r 3.313153767 _2_ RTR  --- 23 cbr 230 [5 2 1 0] ------- [0:0 5:0 29 2] [23] 2 0
f 3.313153767 _2_ RTR  --- 23 cbr 230 [5 2 1 0] ------- [0:0 5:0 28 5] [23] 2 0
r 3.348000000 _0_ RTR  --- 58 cbr 210 [0 0 0 0] ------- [0:0 5:0 32 0] [58] 0 0
s 3.348000000 _0_ RTR  --- 58 cbr 230 [0 0 0 0] ------- [0:0 5:0 30 1] [58] 0 0
r 3.349153767 _1_ RTR  --- 24 cbr 230 [5 1 0 0] ------- [0:0 5:0 30 1] [24] 1 0
f 3.349153767 _1_ RTR  --- 24 cbr 230 [5 1 0 0] ------- [0:0 5:0 29 2] [24] 1 0
r 3.355153767 _2_ RTR  --- 24 cbr 230 [5 2 1 0] ------- [0:0 5:0 29 2] [24] 2 0
f 3.355153767 _2_ RTR  --- 24 cbr 230 [5 2 1 0] ------- [0:0 5:0 28 5] [24] 2 0
r 3.391153767 _1_ RTR  --- 25 cbr 230 [5 1 0 0] ------- [0:0 5:0 30 1] [25] 1 0
f 3.391153767 _1_ RTR  --- 25 cbr 230 [5 1 0 0] ------- [0:0 5:0 29 2] [25] 1 0
r 3.397153767 _2_ RTR  --- 25 cbr 230 [5 2 1 0] ------- [0:0 5:0 29 2] [25] 2 0
f 3.397153767 _2_ RTR  --- 25 cbr 230 [5 2 1 0] ------- [0:0 5:0 28 5] [25] 2 0
r 3.404000000 _0_ RTR  --- 59 cbr 210 [0 0 0 0] ------- [0:0 5:0 32 0] [59] 0 0
s 3.404000000 _0_ RTR  --- 59 cbr 230 [0 0 0 0] ------- [0:0 5:0 30 1] [59] 0 0
r 3.433153767 _1_ RTR  --- 26 cbr 230 [5 1 0 0] ------- [0:0 5:0 30 1] [26] 1 0
f 3.433153767 _1_ RTR  --- 26 cbr 230 [5 1 0 0] ------- [0:0 5:0 29 2] [26] 1 0
r 3.439153767 _2_ RTR  --- 26 cbr 230 [5 2 1 0] ------- [0:0 5:0 29 2] [26] 2 0
f 3.439153767 _2_ RTR  --- 26 cbr 230 [5 2 1 0] ------- [0:0 5:0 28 5] [26] 2 0
r 3.460000000 _0_ RTR  --- 60 cbr 210 [0 0 0 0] ------- [0:0 5:0 32 0] [60] 0 0
s 3.460000000 _0_ RTR  --- 60 cbr 230 [0 0 0 0] ------- [0:0 5:0 30 1] [60] 0 0
r 3.475153767 _1_ RTR  --- 27 cbr 230 [5 1 0 0] ------- [0:0 5:0 30 1] [27] 1 0
f 3.475153767 _1_ RTR  --- 27 cbr 230 [5 1 0 0] ------- [0:0 5:0 29 2] [27] 1 0
r 3.481153767 _2_ RTR  --- 27 cbr 230 [5 2 1 0] ------- [0:0 5:0 29 2] [27] 2 0
f 3.481153767 _2_ RTR  --- 27 cbr 230 [5 2 1 0] ------- [0:0 5:0 28 5] [27] 2 0