s 0.012000000 _0_ MAC  --- 0 AODV 100 [0 ffffffff 0 0] ------- [0:255 -1:255 30 0] [0x2 1 1 [2 0] [0 4]] (REQUEST)
r 0.012400767 _1_ MAC  --- 0 AODV 48 [0 ffffffff 0 0] ------- [0:255 -1:255 30 0] [0x2 1 1 [2 0] [0 4]] (REQUEST)
r 0.012400953 _3_ MAC  --- 0 AODV 48 [0 ffffffff 0 0] ------- [0:255 -1:255 30 0] [0x2 1 1 [2 0] [0 4]] (REQUEST)
r 0.012401297 _4_ MAC  --- 0 AODV 48 [0 ffffffff 0 0] ------- [0:255 -1:255 30 0] [0x2 1 1 [2 0] [0 4]] (REQUEST)
r 0.012401533 _2_ MAC  --- 0 AODV 48 [0 ffffffff 0 0] ------- [0:255 -1:255 30 0] [0x2 1 1 [2 0] [0 4]] (REQUEST)
s 0.018000000 _1_ MAC  --- 0 AODV 100 [0 ffffffff 1 0] ------- [1:255 -1:255 29 0] [0x2 2 1 [2 0] [0 4]] (REQUEST)
s 0.018000000 _3_ MAC  --- 0 AODV 100 [0 ffffffff 3 0] ------- [3:255 -1:255 30 0] [0x2 1 1 [4 0] [3 4]] (REQUEST)
r 0.018400400 _4_ MAC  --- 0 AODV 48 [0 ffffffff 3 0] ------- [3:255 -1:255 30 0] [0x2 1 1 [4 0] [3 4]] (REQUEST)
r 0.018400767 _0_ MAC  --- 0 AODV 48 [0 ffffffff 1 0] ------- [1:255 -1:255 29 0] [0x2 2 1 [2 0] [0 4]] (REQUEST)
r 0.018400767 _2_ MAC  --- 0 AODV 48 [0 ffffffff 1 0] ------- [1:255 -1:255 29 0] [0x2 2 1 [2 0] [0 4]] (REQUEST)
r 0.018400792 _3_ MAC  --- 0 AODV 48 [0 ffffffff 1 0] ------- [1:255 -1:255 29 0] [0x2 2 1 [2 0] [0 4]] (REQUEST)
r 0.018400792 _1_ MAC  --- 0 AODV 48 [0 ffffffff 3 0] ------- [3:255 -1:255 30 0] [0x2 1 1 [4 0] [3 4]] (REQUEST)
s 0.024000000 _2_ MAC  --- 0 ARP 80 [0 ffffffff 2 0] ------- [REQUEST 2/2 0/1]
s 0.024000000 _4_ MAC  --- 0 ARP 80 [0 ffffffff 4 0] ------- [REQUEST 4/4 0/3]
r 0.024320400 _3_ MAC  --- 0 ARP 28 [0 ffffffff 4 0] ------- [REQUEST 4/4 0/3]
r 0.024320767 _1_ MAC  --- 0 ARP 28 [0 ffffffff 2 0] ------- [REQUEST 2/2 0/1]
r 0.024321297 _0_ MAC  --- 0 ARP 28 [0 ffffffff 4 0] ------- [REQUEST 4/4 0/3]
r 0.024321515 _4_ MAC  --- 0 ARP 28 [0 ffffffff 2 0] ------- [REQUEST 2/2 0/1]
r 0.024321515 _2_ MAC  --- 0 ARP 28 [0 ffffffff 4 0] ------- [REQUEST 4/4 0/3]
s 0.042000000 _1_ MAC  --- 0 ARP 80 [5 2 1 0] ------- [REPLY 1/1 2/2]
s 0.042000000 _3_ MAC  --- 0 ARP 80 [5 4 3 0] ------- [REPLY 3/3 4/4]
r 0.042320400 _4_ MAC  --- 0 ARP 28 [5 4 3 0] ------- [REPLY 3/3 4/4]
D 0.042320767 _0_ MAC  --- 0 ARP 80 [5 2 1 0] ------- [REPLY 1/1 2/2]
r 0.042320767 _2_ MAC  --- 0 ARP 28 [5 2 1 0] ------- [REPLY 1/1 2/2]
D 0.042320792 _3_ MAC  --- 0 ARP 80 [5 2 1 0] ------- [REPLY 1/1 2/2]
D 0.042320792 _1_ MAC  --- 0 ARP 80 [5 4 3 0] ------- [REPLY 3/3 4/4]
s 0.048000000 _2_ MAC  --- 0 AODV 96 [5 1 2 0] ------- [2:255 0:255 30 1] [0x4 1 [2 4] 10.000000] (REPLY)
s 0.048000000 _4_ MAC  --- 0 AODV 96 [5 3 4 0] ------- [4:255 3:255 30 3] [0x4 1 [4 4] 10.000000] (REPLY)
r 0.048384400 _3_ MAC  --- 0 AODV 44 [5 3 4 0] ------- [4:255 3:255 30 3] [0x4 1 [4 4] 10.000000] (REPLY)
r 0.048384767 _1_ MAC  --- 0 AODV 44 [5 1 2 0] ------- [2:255 0:255 30 1] [0x4 1 [2 4] 10.000000] (REPLY)
D 0.048385297 _0_ MAC  --- 0 AODV 96 [5 3 4 0] ------- [4:255 3:255 30 3] [0x4 1 [4 4] 10.000000] (REPLY)
D 0.048385515 _4_ MAC  --- 0 AODV 96 [5 1 2 0] ------- [2:255 0:255 30 1] [0x4 1 [2 4] 10.000000] (REPLY)
D 0.048385515 _2_ MAC  --- 0 AODV 96 [5 3 4 0] ------- [4:255 3:255 30 3] [0x4 1 [4 4] 10.000000] (REPLY)
s 0.066000000 _1_ MAC  --- 0 ARP 80 [0 ffffffff 1 0] ------- [REQUEST 1/1 0/0]
s 0.066000000 _3_ MAC  --- 1 cbr 282 [5 4 3 0] ------- [3:0 4:0 30 4] [0] 0 0
r 0.066320767 _0_ MAC  --- 0 ARP 28 [0 ffffffff 1 0] ------- [REQUEST 1/1 0/0]
r 0.066320767 _2_ MAC  --- 0 ARP 28 [0 ffffffff 1 0] ------- [REQUEST 1/1 0/0]
r 0.066320792 _3_ MAC  --- 0 ARP 28 [0 ffffffff 1 0] ------- [REQUEST 1/1 0/0]
r 0.067128400 _4_ MAC  --- 1 cbr 230 [5 4 3 0] ------- [3:0 4:0 30 4] [0] 1 0
D 0.067128792 _1_ MAC  --- 1 cbr 282 [5 4 3 0] ------- [3:0 4:0 30 4] [0] 0 0
s 0.084000000 _0_ MAC  --- 0 ARP 80 [5 1 0 0] ------- [REPLY 0/0 1/1]
r 0.084320767 _1_ MAC  --- 0 ARP 28 [5 1 0 0] ------- [REPLY 0/0 1/1]
D 0.084320953 _3_ MAC  --- 0 ARP 80 [5 1 0 0] ------- [REPLY 0/0 1/1]
D 0.084321297 _4_ MAC  --- 0 ARP 80 [5 1 0 0] ------- [REPLY 0/0 1/1]
D 0.084321533 _2_ MAC  --- 0 ARP 80 [5 1 0 0] ------- [REPLY 0/0 1/1]
s 0.090000000 _1_ MAC  --- 0 AODV 96 [5 0 1 0] ------- [2:255 0:255 29 0] [0x4 2 [2 4] 10.000000] (REPLY)
s 0.090000000 _3_ MAC  --- 3 cbr 282 [5 4 3 0] ------- [3:0 4:0 30 4] [1] 0 0
r 0.090384767 _0_ MAC  --- 0 AODV 44 [5 0 1 0] ------- [2:255 0:255 29 0] [0x4 2 [2 4] 10.000000] (REPLY)
D 0.090384767 _2_ MAC  --- 0 AODV 96 [5 0 1 0] ------- [2:255 0:255 29 0] [0x4 2 [2 4] 10.000000] (REPLY)
D 0.090384792 _3_ MAC  --- 0 AODV 96 [5 0 1 0] ------- [2:255 0:255 29 0] [0x4 2 [2 4] 10.000000] (REPLY)
r 0.091128400 _4_ MAC  --- 3 cbr 230 [5 4 3 0] ------- [3:0 4:0 30 4] [1] 1 0
D 0.091128792 _1_ MAC  --- 3 cbr 282 [5 4 3 0] ------- [3:0 4:0 30 4] [1] 0 0
s 0.108000000 _0_ MAC  --- 0 cbr 282 [5 1 0 0] ------- [0:0 2:0 30 1] [0] 0 0
r 0.109128767 _1_ MAC  --- 0 cbr 230 [5 1 0 0] ------- [0:0 2:0 30 1] [0] 1 0
D 0.109128953 _3_ MAC  --- 0 cbr 282 [5 1 0 0] ------- [0:0 2:0 30 1] [0] 0 0
D 0.109129297 _4_ MAC  --- 0 cbr 282 [5 1 0 0] ------- [0:0 2:0 30 1] [0] 0 0
D 0.109129533 _2_ MAC  --- 0 cbr 282 [5 1 0 0] ------- [0:0 2:0 30 1] [0] 0 0
s 0.114000000 _1_ MAC  --- 0 cbr 282 [5 2 1 0] ------- [0:0 2:0 29 2] [0] 1 0
s 0.114000000 _3_ MAC  --- 5 cbr 282 [5 4 3 0] ------- [3:0 4:0 30 4] [2] 0 0
r 0.115128400 _4_ MAC  --- 5 cbr 230 [5 4 3 0] ------- [3:0 4:0 30 4] [2] 1 0
D 0.115128767 _0_ MAC  --- 0 cbr 282 [5 2 1 0] ------- [0:0 2:0 29 2] [0] 1 0
r 0.115128767 _2_ MAC  --- 0 cbr 230 [5 2 1 0] ------- [0:0 2:0 29 2] [0] 2 0
D 0.115128792 _3_ MAC  --- 0 cbr 282 [5 2 1 0] ------- [0:0 2:0 29 2] [0] 1 0
D 0.115128792 _1_ MAC  --- 5 cbr 282 [5 4 3 0] ------- [3:0 4:0 30 4] [2] 0 0
s 0.132000000 _0_ MAC  --- 2 cbr 282 [5 1 0 0] ------- [0:0 2:0 30 1] [1] 0 0
r 0.133128767 _1_ MAC  --- 2 cbr 230 [5 1 0 0] ------- [0:0 2:0 30 1] [1] 1 0
D 0.133128953 _3_ MAC  --- 2 cbr 282 [5 1 0 0] ------- [0:0 2:0 30 1] [1] 0 0
D 0.133129297 _4_ MAC  --- 2 cbr 282 [5 1 0 0] ------- [0:0 2:0 30 1] [1] 0 0
D 0.133129533 _2_ MAC  --- 2 cbr 282 [5 1 0 0] ------- [0:0 2:0 30 1] [1] 0 0
s 0.138000000 _1_ MAC  --- 2 cbr 282 [5 2 1 0] ------- [0:0 2:0 29 2] [1] 1 0
D 0.139128767 _0_ MAC  --- 2 cbr 282 [5 2 1 0] ------- [0:0 2:0 29 2] [1] 1 0
r 0.139128767 _2_ MAC  --- 2 cbr 230 [5 2 1 0] ------- [0:0 2:0 29 2] [1] 2 0
D 0.139129184 _4_ MAC  --- 2 cbr 282 [5 2 1 0] ------- [0:0 2:0 29 2] [1] 1 0
s 0.156000000 _0_ MAC  --- 4 cbr 282 [5 1 0 0] ------- [0:0 2:0 30 1] [2] 0 0
r 0.157128767 _1_ MAC  --- 4 cbr 230 [5 1 0 0] ------- [0:0 2:0 30 1] [2] 1 0
D 0.157128953 _3_ MAC  --- 4 cbr 282 [5 1 0 0] ------- [0:0 2:0 30 1] [2] 0 0
D 0.157129297 _4_ MAC  --- 4 cbr 282 [5 1 0 0] ------- [0:0 2:0 30 1] [2] 0 0
D 0.157129533 _2_ MAC  --- 4 cbr 282 [5 1 0 0] ------- [0:0 2:0 30 1] [2] 0 0
s 0.162000000 _1_ MAC  --- 4 cbr 282 [5 2 1 0] ------- [0:0 2:0 29 2] [2] 1 0
D 0.163128767 _0_ MAC  --- 4 cbr 282 [5 2 1 0] ------- [0:0 2:0 29 2] [2] 1 0
r 0.163128767 _2_ MAC  --- 4 cbr 230 [5 2 1 0] ------- [0:0 2:0 29 2] [2] 2 0
D 0.163129184 _4_ MAC  --- 4 cbr 282 [5 2 1 0] ------- [0:0 2:0 29 2] [2] 1 0
s 0.180000000 _0_ MAC  --- 6 cbr 282 [5 1 0 0] ------- [0:0 2:0 30 1] [3] 0 0
r 0.181128767 _1_ MAC  --- 6 cbr 230 [5 1 0 0] ------- [0:0 2:0 30 1] [3] 1 0
D 0.181128953 _3_ MAC  --- 6 cbr 282 [5 1 0 0] ------- [0:0 2:0 30 1] [3] 0 0
D 0.181129297 _4_ MAC  --- 6 cbr 282 [5 1 0 0] ------- [0:0 2:0 30 1] [3] 0 0
D 0.181129533 _2_ MAC  --- 6 cbr 282 [5 1 0 0] ------- [0:0 2:0 30 1] [3] 0 0
s 0.186000000 _1_ MAC  --- 6 cbr 282 [5 2 1 0] ------- [0:0 2:0 29 2] [3] 1 0
s 0.186000000 _3_ MAC  --- 7 cbr 282 [5 4 3 0] ------- [3:0 4:0 30 4] [3] 0 0
r 0.187128400 _4_ MAC  --- 7 cbr 230 [5 4 3 0] ------- [3:0 4:0 30 4] [3] 1 0
D 0.187128767 _0_ MAC  --- 6 cbr 282 [5 2 1 0] ------- [0:0 2:0 29 2] [3] 1 0
r 0.187128767 _2_ MAC  --- 6 cbr 230 [5 2 1 0] ------- [0:0 2:0 29 2] [3] 2 0
D 0.187128792 _3_ MAC  --- 6 cbr 282 [5 2 1 0] ------- [0:0 2:0 29 2] [3] 1 0
D 0.187128792 _1_ MAC  --- 7 cbr 282 [5 4 3 0] ------- [3:0 4:0 30 4] [3] 0 0
s 0.228000000 _0_ MAC  --- 8 cbr 282 [5 1 0 0] ------- [0:0 2:0 30 1] [4] 0 0
r 0.229128767 _1_ MAC  --- 8 cbr 230 [5 1 0 0] ------- [0:0 2:0 30 1] [4] 1 0
D 0.229128953 _3_ MAC  --- 8 cbr 282 [5 1 0 0] ------- [0:0 2:0 30 1] [4] 0 0
D 0.229129297 _4_ MAC  --- 8 cbr 282 [5 1 0 0] ------- [0:0 2:0 30 1] [4] 0 0
D 0.229129533 _2_ MAC  --- 8 cbr 282 [5 1 0 0] ------- [0:0 2:0 30 1] [4] 0 0
s 0.234000000 _1_ MAC  --- 8 cbr 282 [5 2 1 0] ------- [0:0 2:0 29 2] [4] 1 0
s 0.234000000 _3_ MAC  --- 9 cbr 282 [5 4 3 0] ------- [3:0 4:0 30 4] [4] 0 0
r 0.235128400 _4_ MAC  --- 9 cbr 230 [5 4 3 0] ------- [3:0 4:0 30 4] [4] 1 0
D 0.235128767 _0_ MAC  --- 8 cbr 282 [5 2 1 0] ------- [0:0 2:0 29 2] [4] 1 0
r 0.235128767 _2_ MAC  --- 8 cbr 230 [5 2 1 0] ------- [0:0 2:0 29 2] [4] 2 0
D 0.235128792 _3_ MAC  --- 8 cbr 282 [5 2 1 0] ------- [0:0 2:0 29 2] [4] 1 0
D 0.235128792 _1_ MAC  --- 9 cbr 282 [5 4 3 0] ------- [3:0 4:0 30 4] [4] 0 0
s 0.282000000 _3_ MAC  --- 11 cbr 282 [5 4 3 0] ------- [3:0 4:0 30 4] [5] 0 0
r 0.283128400 _4_ MAC  --- 11 cbr 230 [5 4 3 0] ------- [3:0 4:0 30 4] [5] 1 0
D 0.283128953 _0_ MAC  --- 11 cbr 282 [5 4 3 0] ------- [3:0 4:0 30 4] [5] 0 0
D 0.283129234 _2_ MAC  --- 11 cbr 282 [5 4 3 0] ------- [3:0 4:0 30 4] [5] 0 0
s 0.300000000 _0_ MAC  --- 10 cbr 282 [5 1 0 0] ------- [0:0 2:0 30 1] [5] 0 0
r 0.301128767 _1_ MAC  --- 10 cbr 230 [5 1 0 0] ------- [0:0 2:0 30 1] [5] 1 0
D 0.301128953 _3_ MAC  --- 10 cbr 282 [5 1 0 0] ------- [0:0 2:0 30 1] [5] 0 0
D 0.301129297 _4_ MAC  --- 10 cbr 282 [5 1 0 0] ------- [0:0 2:0 30 1] [5] 0 0
D 0.301129533 _2_ MAC  --- 10 cbr 282 [5 1 0 0] ------- [0:0 2:0 30 1] [5] 0 0
s 0.306000000 _1_ MAC  --- 10 cbr 282 [5 2 1 0] ------- [0:0 2:0 29 2] [5] 1 0
D 0.307128767 _0_ MAC  --- 10 cbr 282 [5 2 1 0] ------- [0:0 2:0 29 2] [5] 1 0
r 0.307128767 _2_ MAC  --- 10 cbr 230 [5 2 1 0] ------- [0:0 2:0 29 2] [5] 2 0
D 0.307129184 _4_ MAC  --- 10 cbr 282 [5 2 1 0] ------- [0:0 2:0 29 2] [5] 1 0
s 0.348000000 _0_ MAC  --- 12 cbr 282 [5 1 0 0] ------- [0:0 2:0 30 1] [6] 0 0
r 0.349128767 _1_ MAC  --- 12 cbr 230 [5 1 0 0] ------- [0:0 2:0 30 1] [6] 1 0
D 0.349128953 _3_ MAC  --- 12 cbr 282 [5 1 0 0] ------- [0:0 2:0 30 1] [6] 0 0
D 0.349129297 _4_ MAC  --- 12 cbr 282 [5 1 0 0] ------- [0:0 2:0 30 1] [6] 0 0
D 0.349129533 _2_ MAC  --- 12 cbr 282 [5 1 0 0] ------- [0:0 2:0 30 1] [6] 0 0
s 0.354000000 _1_ MAC  --- 12 cbr 282 [5 2 1 0] ------- [0:0 2:0 29 2] [6] 1 0
s 0.354000000 _3_ MAC  --- 13 cbr 282 [5 4 3 0] ------- [3:0 4:0 30 4] [6] 0 0
r 0.355128400 _4_ MAC  --- 13 cbr 230 [5 4 3 0] ------- [3:0 4:0 30 4] [6] 1 0
D 0.355128767 _0_ MAC  --- 12 cbr 282 [5 2 1 0] ------- [0:0 2:0 29 2] [6] 1 0
r 0.355128767 _2_ MAC  --- 12 cbr 230 [5 2 1 0] ------- [0:0 2:0 29 2] [6] 2 0
D 0.355128792 _3_ MAC  --- 12 cbr 282 [5 2 1 0] ------- [0:0 2:0 29 2] [6] 1 0
D 0.355128792 _1_ MAC  --- 13 cbr 282 [5 4 3 0] ------- [3:0 4:0 30 4] [6] 0 0
s 0.396000000 _0_ MAC  --- 14 cbr 282 [5 1 0 0] ------- [0:0 2:0 30 1] [7] 0 0
r 0.397128767 _1_ MAC  --- 14 cbr 230 [5 1 0 0] ------- [0:0 2:0 30 1] [7] 1 0
D 0.397128953 _3_ MAC  --- 14 cbr 282 [5 1 0 0] ------- [0:0 2:0 30 1] [7] 0 0
D 0.397129297 _4_ MAC  --- 14 cbr 282 [5 1 0 0] ------- [0:0 2:0 30 1] [7] 0 0
D 0.397129533 _2_ MAC  --- 14 cbr 282 [5 1 0 0] ------- [0:0 2:0 30 1] [7] 0 0
s 0.402000000 _1_ MAC  --- 14 cbr 282 [5 2 1 0] ------- [0:0 2:0 29 2] [7] 1 0
s 0.402000000 _3_ MAC  --- 15 cbr 282 [5 4 3 0] ------- [3:0 4:0 30 4] [7] 0 0
r 0.403128400 _4_ MAC  --- 15 cbr 230 [5 4 3 0] ------- [3:0 4:0 30 4] [7] 1 0
D 0.403128767 _0_ MAC  --- 14 cbr 282 [5 2 1 0] ------- [0:0 2:0 29 2] [7] 1 0
r 0.403128767 _2_ MAC  --- 14 cbr 230 [5 2 1 0] ------- [0:0 2:0 29 2] [7] 2 0
D 0.403128792 _3_ MAC  --- 14 cbr 282 [5 2 1 0] ------- [0:0 2:0 29 2] [7] 1 0
D 0.403128792 _1_ MAC  --- 15 cbr 282 [5 4 3 0] ------- [3:0 4:0 30 4] [7] 0 0
s 0.450000000 _3_ MAC  --- 17 cbr 282 [5 4 3 0] ------- [3:0 4:0 30 4] [8] 0 0
r 0.451128400 _4_ MAC  --- 17 cbr 230 [5 4 3 0] ------- [3:0 4:0 30 4] [8] 1 0
D 0.451128953 _0_ MAC  --- 17 cbr 282 [5 4 3 0] ------- [3:0 4:0 30 4] [8] 0 0
D 0.451129234 _2_ MAC  --- 17 cbr 282 [5 4 3 0] ------- [3:0 4:0 30 4] [8] 0 0
s 0.468000000 _0_ MAC  --- 16 cbr 282 [5 1 0 0] ------- [0:0 2:0 30 1] [8] 0 0
r 0.469128767 _1_ MAC  --- 16 cbr 230 [5 1 0 0] ------- [0:0 2:0 30 1] [8] 1 0
D 0.469128953 _3_ MAC  --- 16 cbr 282 [5 1 0 0] ------- [0:0 2:0 30 1] [8] 0 0
D 0.469129297 _4_ MAC  --- 16 cbr 282 [5 1 0 0] ------- [0:0 2:0 30 1] [8] 0 0
D 0.469129533 _2_ MAC  --- 16 cbr 282 [5 1 0 0] ------- [0:0 2:0 30 1] [8] 0 0
s 0.474000000 _1_ MAC  --- 16 cbr 282 [5 2 1 0] ------- [0:0 2:0 29 2] [8] 1 0
D 0.475128767 _0_ MAC  --- 16 cbr 282 [5 2 1 0] ------- [0:0 2:0 29 2] [8] 1 0
r 0.475128767 _2_ MAC  --- 16 cbr 230 [5 2 1 0] ------- [0:0 2:0 29 2] [8] 2 0
D 0.475129184 _4_ MAC  --- 16 cbr 282 [5 2 1 0] ------- [0:0 2:0 29 2] [8] 1 0
s 0.516000000 _0_ MAC  --- 18 cbr 282 [5 1 0 0] ------- [0:0 2:0 30 1] [9] 0 0
r 0.517128767 _1_ MAC  --- 18 cbr 230 [5 1 0 0] ------- [0:0 2:0 30 1] [9] 1 0
D 0.517128953 _3_ MAC  --- 18 cbr 282 [5 1 0 0] ------- [0:0 2:0 30 1] [9] 0 0
D 0.517129297 _4_ MAC  --- 18 cbr 282 [5 1 0 0] ------- [0:0 2:0 30 1] [9] 0 0
D 0.517129533 _2_ MAC  --- 18 cbr 282 [5 1 0 0] ------- [0:0 2:0 30 1] [9] 0 0
s 0.522000000 _1_ MAC  --- 18 cbr 282 [5 2 1 0] ------- [0:0 2:0 29 2] [9] 1 0
s 0.522000000 _3_ MAC  --- 19 cbr 282 [5 4 3 0] ------- [3:0 4:0 30 4] [9] 0 0
r 0.523128400 _4_ MAC  --- 19 cbr 230 [5 4 3 0] ------- [3:0 4:0 30 4] [9] 1 0
D 0.523128767 _0_ MAC  --- 18 cbr 282 [5 2 1 0] ------- [0:0 2:0 29 2] [9] 1 0
r 0.523128767 _2_ MAC  --- 18 cbr 230 [5 2 1 0] ------- [0:0 2:0 29 2] [9] 2 0
D 0.523128792 _3_ MAC  --- 18 cbr 282 [5 2 1 0] ------- [0:0 2:0 29 2] [9] 1 0
D 0.523128792 _1_ MAC  --- 19 cbr 282 [5 4 3 0] ------- [3:0 4:0 30 4] [9] 0 0
s 0.564000000 _0_ MAC  --- 20 cbr 282 [5 1 0 0] ------- [0:0 2:0 30 1] [10] 0 0
r 0.565128767 _1_ MAC  --- 20 cbr 230 [5 1 0 0] ------- [0:0 2:0 30 1] [10] 1 0
D 0.565128953 _3_ MAC  --- 20 cbr 282 [5 1 0 0] ------- [0:0 2:0 30 1] [10] 0 0
D 0.565129297 _4_ MAC  --- 20 cbr 282 [5 1 0 0] ------- [0:0 2:0 30 1] [10] 0 0
D 0.565129533 _2_ MAC  --- 20 cbr 282 [5 1 0 0] ------- [0:0 2:0 30 1] [10] 0 0
s 0.570000000 _1_ MAC  --- 20 cbr 282 [5 2 1 0] ------- [0:0 2:0 29 2] [10] 1 0
s 0.570000000 _3_ MAC  --- 21 cbr 282 [5 4 3 0] ------- [3:0 4:0 30 4] [10] 0 0
r 0.571128400 _4_ MAC  --- 21 cbr 230 [5 4 3 0] ------- [3:0 4:0 30 4] [10] 1 0
D 0.571128767 _0_ MAC  --- 20 cbr 282 [5 2 1 0] ------- [0:0 2:0 29 2] [10] 1 0
r 0.571128767 _2_ MAC  --- 20 cbr 230 [5 2 1 0] ------- [0:0 2:0 29 2] [10] 2 0
D 0.571128792 _3_ MAC  --- 20 cbr 282 [5 2 1 0] ------- [0:0 2:0 29 2] [10] 1 0
D 0.571128792 _1_ MAC  --- 21 cbr 282 [5 4 3 0] ------- [3:0 4:0 30 4] [10] 0 0
s 0.618000000 _3_ MAC  --- 23 cbr 282 [5 4 3 0] ------- [3:0 4:0 30 4] [11] 0 0
r 0.619128400 _4_ MAC  --- 23 cbr 230 [5 4 3 0] ------- [3:0 4:0 30 4] [11] 1 0
D 0.619128953 _0_ MAC  --- 23 cbr 282 [5 4 3 0] ------- [3:0 4:0 30 4] [11] 0 0
D 0.619129234 _2_ MAC  --- 23 cbr 282 [5 4 3 0] ------- [3:0 4:0 30 4] [11] 0 0
s 0.636000000 _0_ MAC  --- 22 cbr 282 [5 1 0 0] ------- [0:0 2:0 30 1] [11] 0 0
r 0.637128767 _1_ MAC  --- 22 cbr 230 [5 1 0 0] ------- [0:0 2:0 30 1] [11] 1 0
D 0.637128953 _3_ MAC  --- 22 cbr 282 [5 1 0 0] ------- [0:0 2:0 30 1] [11] 0 0
D 0.637129297 _4_ MAC  --- 22 cbr 282 [5 1 0 0] ------- [0:0 2:0 30 1] [11] 0 0
D 0.637129533 _2_ MAC  --- 22 cbr 282 [5 1 0 0] ------- [0:0 2:0 30 1] [11] 0 0
s 0.642000000 _1_ MAC  --- 22 cbr 282 [5 2 1 0] ------- [0:0 2:0 29 2] [11] 1 0
D 0.643128767 _0_ MAC  --- 22 cbr 282 [5 2 1 0] ------- [0:0 2:0 29 2] [11] 1 0
r 0.643128767 _2_ MAC  --- 22 cbr 230 [5 2 1 0] ------- [0:0 2:0 29 2] [11] 2 0
D 0.643129184 _4_ MAC  --- 22 cbr 282 [5 2 1 0] ------- [0:0 2:0 29 2] [11] 1 0
s 0.684000000 _0_ MAC  --- 24 cbr 282 [5 1 0 0] ------- [0:0 2:0 30 1] [12] 0 0
r 0.685128767 _1_ MAC  --- 24 cbr 230 [5 1 0 0] ------- [0:0 2:0 30 1] [12] 1 0
D 0.685128953 _3_ MAC  --- 24 cbr 282 [5 1 0 0] ------- [0:0 2:0 30 1] [12] 0 0
D 0.685129297 _4_ MAC  --- 24 cbr 282 [5 1 0 0] ------- [0:0 2:0 30 1] [12] 0 0
D 0.685129533 _2_ MAC  --- 24 cbr 282 [5 1 0 0] ------- [0:0 2:0 30 1] [12] 0 0
s 0.690000000 _1_ MAC  --- 24 cbr 282 [5 2 1 0] ------- [0:0 2:0 29 2] [12] 1 0
s 0.690000000 _3_ MAC  --- 25 cbr 282 [5 4 3 0] ------- [3:0 4:0 30 4] [12] 0 0
r 0.691128400 _4_ MAC  --- 25 cbr 230 [5 4 3 0] ------- [3:0 4:0 30 4] [12] 1 0
D 0.691128767 _0_ MAC  --- 24 cbr 282 [5 2 1 0] ------- [0:0 2:0 29 2] [12] 1 0
r 0.691128767 _2_ MAC  --- 24 cbr 230 [5 2 1 0] ------- [0:0 2:0 29 2] [12] 2 0
D 0.691128792 _3_ MAC  --- 24 cbr 282 [5 2 1 0] ------- [0:0 2:0 29 2] [12] 1 0
D 0.691128792 _1_ MAC  --- 25 cbr 282 [5 4 3 0] ------- [3:0 4:0 30 4] [12] 0 0
s 0.732000000 _0_ MAC  --- 26 cbr 282 [5 1 0 0] ------- [0:0 2:0 30 1] [13] 0 0
r 0.733128767 _1_ MAC  --- 26 cbr 230 [5 1 0 0] ------- [0:0 2:0 30 1] [13] 1 0
D 0.733128953 _3_ MAC  --- 26 cbr 282 [5 1 0 0] ------- [0:0 2:0 30 1] [13] 0 0
D 0.733129297 _4_ MAC  --- 26 cbr 282 [5 1 0 0] ------- [0:0 2:0 30 1] [13] 0 0
D 0.733129533 _2_ MAC  --- 26 cbr 282 [5 1 0 0] ------- [0:0 2:0 30 1] [13] 0 0
s 0.738000000 _1_ MAC  --- 26 cbr 282 [5 2 1 0] ------- [0:0 2:0 29 2] [13] 1 0
s 0.738000000 _3_ MAC  --- 27 cbr 282 [5 4 3 0] ------- [3:0 4:0 30 4] [13] 0 0
r 0.739128400 _4_ MAC  --- 27 cbr 230 [5 4 3 0] ------- [3:0 4:0 30 4] [13] 1 0
D 0.739128767 _0_ MAC  --- 26 cbr 282 [5 2 1 0] ------- [0:0 2:0 29 2] [13] 1 0
r 0.739128767 _2_ MAC  --- 26 cbr 230 [5 2 1 0] ------- [0:0 2:0 29 2] [13] 2 0
D 0.739128792 _3_ MAC  --- 26 cbr 282 [5 2 1 0] ------- [0:0 2:0 29 2] [13] 1 0
D 0.739128792 _1_ MAC  --- 27 cbr 282 [5 4 3 0] ------- [3:0 4:0 30 4] [13] 0 0
s 0.786000000 _3_ MAC  --- 29 cbr 282 [5 4 3 0] ------- [3:0 4:0 30 4] [14] 0 0
r 0.787128400 _4_ MAC  --- 29 cbr 230 [5 4 3 0] ------- [3:0 4:0 30 4] [14] 1 0
D 0.787128953 _0_ MAC  --- 29 cbr 282 [5 4 3 0] ------- [3:0 4:0 30 4] [14] 0 0
D 0.787129234 _2_ MAC  --- 29 cbr 282 [5 4 3 0] ------- [3:0 4:0 30 4] [14] 0 0
s 0.804000000 _0_ MAC  --- 28 cbr 282 [5 1 0 0] ------- [0:0 2:0 30 1] [14] 0 0
r 0.805128767 _1_ MAC  --- 28 cbr 230 [5 1 0 0] ------- [0:0 2:0 30 1] [14] 1 0
D 0.805128953 _3_ MAC  --- 28 cbr 282 [5 1 0 0] ------- [0:0 2:0 30 1] [14] 0 0
D 0.805129297 _4_ MAC  --- 28 cbr 282 [5 1 0 0] ------- [0:0 2:0 30 1] [14] 0 0
D 0.805129533 _2_ MAC  --- 28 cbr 282 [5 1 0 0] ------- [0:0 2:0 30 1] [14] 0 0
s 0.810000000 _1_ MAC  --- 28 cbr 282 [5 2 1 0] ------- [0:0 2:0 29 2] [14] 1 0
D 0.811128767 _0_ MAC  --- 28 cbr 282 [5 2 1 0] ------- [0:0 2:0 29 2] [14] 1 0
r 0.811128767 _2_ MAC  --- 28 cbr 230 [5 2 1 0] ------- [0:0 2:0 29 2] [14] 2 0
D 0.811129184 _4_ MAC  --- 28 cbr 282 [5 2 1 0] ------- [0:0 2:0 29 2] [14] 1 0
s 0.852000000 _0_ MAC  --- 30 cbr 282 [5 1 0 0] ------- [0:0 2:0 30 1] [15] 0 0
r 0.853128767 _1_ MAC  --- 30 cbr 230 [5 1 0 0] ------- [0:0 2:0 30 1] [15] 1 0
D 0.853128953 _3_ MAC  --- 30 cbr 282 [5 1 0 0] ------- [0:0 2:0 30 1] [15] 0 0
D 0.853129297 _4_ MAC  --- 30 cbr 282 [5 1 0 0] ------- [0:0 2:0 30 1] [15] 0 0
D 0.853129533 _2_ MAC  --- 30 cbr 282 [5 1 0 0] ------- [0:0 2:0 30 1] [15] 0 0
s 0.858000000 _1_ MAC  --- 30 cbr 282 [5 2 1 0] ------- [0:0 2:0 29 2] [15] 1 0
s 0.858000000 _3_ MAC  --- 31 cbr 282 [5 4 3 0] ------- [3:0 4:0 30 4] [15] 0 0
r 0.859128400 _4_ MAC  --- 31 cbr 230 [5 4 3 0] ------- [3:0 4:0 30 4] [15] 1 0
D 0.859128767 _0_ MAC  --- 30 cbr 282 [5 2 1 0] ------- [0:0 2:0 29 2] [15] 1 0
r 0.859128767 _2_ MAC  --- 30 cbr 230 [5 2 1 0] ------- [0:0 2:0 29 2] [15] 2 0
D 0.859128792 _3_ MAC  --- 30 cbr 282 [5 2 1 0] ------- [0:0 2:0 29 2] [15] 1 0
D 0.859128792 _1_ MAC  --- 31 cbr 282 [5 4 3 0] ------- [3:0 4:0 30 4] [15] 0 0
s 0.900000000 _0_ MAC  --- 32 cbr 282 [5 1 0 0] ------- [0:0 2:0 30 1] [16] 0 0
r 0.901128767 _1_ MAC  --- 32 cbr 230 [5 1 0 0] ------- [0:0 2:0 30 1] [16] 1 0
D 0.901128953 _3_ MAC  --- 32 cbr 282 [5 1 0 0] ------- [0:0 2:0 30 1] [16] 0 0
D 0.901129297 _4_ MAC  --- 32 cbr 282 [5 1 0 0] ------- [0:0 2:0 30 1] [16] 0 0
D 0.901129533 _2_ MAC  --- 32 cbr 282 [5 1 0 0] ------- [0:0 2:0 30 1] [16] 0 0
s 0.906000000 _1_ MAC  --- 32 cbr 282 [5 2 1 0] ------- [0:0 2:0 29 2] [16] 1 0
s 0.906000000 _3_ MAC  --- 33 cbr 282 [5 4 3 0] ------- [3:0 4:0 30 4] [16] 0 0
r 0.907128400 _4_ MAC  --- 33 cbr 230 [5 4 3 0] ------- [3:0 4:0 30 4] [16] 1 0
D 0.907128767 _0_ MAC  --- 32 cbr 282 [5 2 1 0] ------- [0:0 2:0 29 2] [16] 1 0
r 0.907128767 _2_ MAC  --- 32 cbr 230 [5 2 1 0] ------- [0:0 2:0 29 2] [16] 2 0
D 0.907128792 _3_ MAC  --- 32 cbr 282 [5 2 1 0] ------- [0:0 2:0 29 2] [16] 1 0
D 0.907128792 _1_ MAC  --- 33 cbr 282 [5 4 3 0] ------- [3:0 4:0 30 4] [16] 0 0
s 0.954000000 _3_ MAC  --- 35 cbr 282 [5 4 3 0] ------- [3:0 4:0 30 4] [17] 0 0
r 0.955128400 _4_ MAC  --- 35 cbr 230 [5 4 3 0] ------- [3:0 4:0 30 4] [17] 1 0
D 0.955128953 _0_ MAC  --- 35 cbr 282 [5 4 3 0] ------- [3:0 4:0 30 4] [17] 0 0
D 0.955129234 _2_ MAC  --- 35 cbr 282 [5 4 3 0] ------- [3:0 4:0 30 4] [17] 0 0
s 0.972000000 _0_ MAC  --- 34 cbr 282 [5 1 0 0] ------- [0:0 2:0 30 1] [17] 0 0
r 0.973128767 _1_ MAC  --- 34 cbr 230 [5 1 0 0] ------- [0:0 2:0 30 1] [17] 1 0
D 0.973128953 _3_ MAC  --- 34 cbr 282 [5 1 0 0] ------- [0:0 2:0 30 1] [17] 0 0
D 0.973129297 _4_ MAC  --- 34 cbr 282 [5 1 0 0] ------- [0:0 2:0 30 1] [17] 0 0
D 0.973129533 _2_ MAC  --- 34 cbr 282 [5 1 0 0] ------- [0:0 2:0 30 1] [17] 0 0
s 0.978000000 _1_ MAC  --- 34 cbr 282 [5 2 1 0] ------- [0:0 2:0 29 2] [17] 1 0
D 0.979128767 _0_ MAC  --- 34 cbr 282 [5 2 1 0] ------- [0:0 2:0 29 2] [17] 1 0
r 0.979128767 _2_ MAC  --- 34 cbr 230 [5 2 1 0] ------- [0:0 2:0 29 2] [17] 2 0
D 0.979129184 _4_ MAC  --- 34 cbr 282 [5 2 1 0] ------- [0:0 2:0 29 2] [17] 1 0
s 1.020000000 _0_ MAC  --- 36 cbr 282 [5 1 0 0] ------- [0:0 2:0 30 1] [18] 0 0
r 1.021128767 _1_ MAC  --- 36 cbr 230 [5 1 0 0] ------- [0:0 2:0 30 1] [18] 1 0
D 1.021128953 _3_ MAC  --- 36 cbr 282 [5 1 0 0] ------- [0:0 2:0 30 1] [18] 0 0
D 1.021129297 _4_ MAC  --- 36 cbr 282 [5 1 0 0] ------- [0:0 2:0 30 1] [18] 0 0
D 1.021129533 _2_ MAC  --- 36 cbr 282 [5 1 0 0] ------- [0:0 2:0 30 1] [18] 0 0
s 1.026000000 _1_ MAC  --- 36 cbr 282 [5 2 1 0] ------- [0:0 2:0 29 2] [18] 1 0
s 1.026000000 _3_ MAC  --- 37 cbr 282 [5 4 3 0] ------- [3:0 4:0 30 4] [18] 0 0
r 1.027128400 _4_ MAC  --- 37 cbr 230 [5 4 3 0] ------- [3:0 4:0 30 4] [18] 1 0
D 1.027128767 _0_ MAC  --- 36 cbr 282 [5 2 1 0] ------- [0:0 2:0 29 2] [18] 1 0
r 1.027128767 _2_ MAC  --- 36 cbr 230 [5 2 1 0] ------- [0:0 2:0 29 2] [18] 2 0
D 1.027128792 _3_ MAC  --- 36 cbr 282 [5 2 1 0] ------- [0:0 2:0 29 2] [18] 1 0
D 1.027128792 _1_ MAC  --- 37 cbr 282 [5 4 3 0] ------- [3:0 4:0 30 4] [18] 0 0
s 1.068000000 _0_ MAC  --- 38 cbr 282 [5 1 0 0] ------- [0:0 2:0 30 1] [19] 0 0
r 1.069128767 _1_ MAC  --- 38 cbr 230 [5 1 0 0] ------- [0:0 2:0 30 1] [19] 1 0
D 1.069128953 _3_ MAC  --- 38 cbr 282 [5 1 0 0] ------- [0:0 2:0 30 1] [19] 0 0
D 1.069129297 _4_ MAC  --- 38 cbr 282 [5 1 0 0] ------- [0:0 2:0 30 1] [19] 0 0
D 1.069129533 _2_ MAC  --- 38 cbr 282 [5 1 0 0] ------- [0:0 2:0 30 1] [19] 0 0
s 1.074000000 _1_ MAC  --- 38 cbr 282 [5 2 1 0] ------- [0:0 2:0 29 2] [19] 1 0
s 1.074000000 _3_ MAC  --- 39 cbr 282 [5 4 3 0] ------- [3:0 4:0 30 4] [19] 0 0
r 1.075128400 _4_ MAC  --- 39 cbr 230 [5 4 3 0] ------- [3:0 4:0 30 4] [19] 1 0
D 1.075128767 _0_ MAC  --- 38 cbr 282 [5 2 1 0] ------- [0:0 2:0 29 2] [19] 1 0
r 1.075128767 _2_ MAC  --- 38 cbr 230 [5 2 1 0] ------- [0:0 2:0 29 2] [19] 2 0
D 1.075128792 _3_ MAC  --- 38 cbr 282 [5 2 1 0] ------- [0:0 2:0 29 2] [19] 1 0
D 1.075128792 _1_ MAC  --- 39 cbr 282 [5 4 3 0] ------- [3:0 4:0 30 4] [19] 0 0
s 1.122000000 _3_ MAC  --- 41 cbr 282 [5 4 3 0] ------- [3:0 4:0 30 4] [20] 0 0
r 1.123128400 _4_ MAC  --- 41 cbr 230 [5 4 3 0] ------- [3:0 4:0 30 4] [20] 1 0
D 1.123128953 _0_ MAC  --- 41 cbr 282 [5 4 3 0] ------- [3:0 4:0 30 4] [20] 0 0
D 1.123129234 _2_ MAC  --- 41 cbr 282 [5 4 3 0] ------- [3:0 4:0 30 4] [20] 0 0
s 1.140000000 _0_ MAC  --- 40 cbr 282 [5 1 0 0] ------- [0:0 2:0 30 1] [20] 0 0
r 1.141128767 _1_ MAC  --- 40 cbr 230 [5 1 0 0] ------- [0:0 2:0 30 1] [20] 1 0
D 1.141128953 _3_ MAC  --- 40 cbr 282 [5 1 0 0] ------- [0:0 2:0 30 1] [20] 0 0
D 1.141129297 _4_ MAC  --- 40 cbr 282 [5 1 0 0] ------- [0:0 2:0 30 1] [20] 0 0
D 1.141129533 _2_ MAC  --- 40 cbr 282 [5 1 0 0] ------- [0:0 2:0 30 1] [20] 0 0
s 1.146000000 _1_ MAC  --- 40 cbr 282 [5 2 1 0] ------- [0:0 2:0 29 2] [20] 1 0
D 1.147128767 _0_ MAC  --- 40 cbr 282 [5 2 1 0] ------- [0:0 2:0 29 2] [20] 1 0
r 1.147128767 _2_ MAC  --- 40 cbr 230 [5 2 1 0] ------- [0:0 2:0 29 2] [20] 2 0
D 1.147129184 _4_ MAC  --- 40 cbr 282 [5 2 1 0] ------- [0:0 2:0 29 2] [20] 1 0
s 1.188000000 _0_ MAC  --- 42 cbr 282 [5 1 0 0] ------- [0:0 2:0 30 1] [21] 0 0
r 1.189128767 _1_ MAC  --- 42 cbr 230 [5 1 0 0] ------- [0:0 2:0 30 1] [21] 1 0
D 1.189128953 _3_ MAC  --- 42 cbr 282 [5 1 0 0] ------- [0:0 2:0 30 1] [21] 0 0
D 1.189129297 _4_ MAC  --- 42 cbr 282 [5 1 0 0] ------- [0:0 2:0 30 1] [21] 0 0
D 1.189129533 _2_ MAC  --- 42 cbr 282 [5 1 0 0] ------- [0:0 2:0 30 1] [21] 0 0
s 1.194000000 _1_ MAC  --- 42 cbr 282 [5 2 1 0] ------- [0:0 2:0 29 2] [21] 1 0
s 1.194000000 _3_ MAC  --- 43 cbr 282 [5 4 3 0] ------- [3:0 4:0 30 4] [21] 0 0
r 1.195128400 _4_ MAC  --- 43 cbr 230 [5 4 3 0] ------- [3:0 4:0 30 4] [21] 1 0
D 1.195128767 _0_ MAC  --- 42 cbr 282 [5 2 1 0] ------- [0:0 2:0 29 2] [21] 1 0
r 1.195128767 _2_ MAC  --- 42 cbr 230 [5 2 1 0] ------- [0:0 2:0 29 2] [21] 2 0
D 1.195128792 _3_ MAC  --- 42 cbr 282 [5 2 1 0] ------- [0:0 2:0 29 2] [21] 1 0
D 1.195128792 _1_ MAC  --- 43 cbr 282 [5 4 3 0] ------- [3:0 4:0 30 4] [21] 0 0
s 1.236000000 _0_ MAC  --- 44 cbr 282 [5 1 0 0] ------- [0:0 2:0 30 1] [22] 0 0
r 1.237128767 _1_ MAC  --- 44 cbr 230 [5 1 0 0] ------- [0:0 2:0 30 1] [22] 1 0
D 1.237128953 _3_ MAC  --- 44 cbr 282 [5 1 0 0] ------- [0:0 2:0 30 1] [22] 0 0
D 1.237129297 _4_ MAC  --- 44 cbr 282 [5 1 0 0] ------- [0:0 2:0 30 1] [22] 0 0
D 1.237129533 _2_ MAC  --- 44 cbr 282 [5 1 0 0] ------- [0:0 2:0 30 1] [22] 0 0
s 1.242000000 _1_ MAC  --- 44 cbr 282 [5 2 1 0] ------- [0:0 2:0 29 2] [22] 1 0
s 1.242000000 _3_ MAC  --- 45 cbr 282 [5 4 3 0] ------- [3:0 4:0 30 4] [22] 0 0
r 1.243128400 _4_ MAC  --- 45 cbr 230 [5 4 3 0] ------- [3:0 4:0 30 4] [22] 1 0
D 1.243128767 _0_ MAC  --- 44 cbr 282 [5 2 1 0] ------- [0:0 2:0 29 2] [22] 1 0
r 1.243128767 _2_ MAC  --- 44 cbr 230 [5 2 1 0] ------- [0:0 2:0 29 2] [22] 2 0
D 1.243128792 _3_ MAC  --- 44 cbr 282 [5 2 1 0] ------- [0:0 2:0 29 2] [22] 1 0
D 1.243128792 _1_ MAC  --- 45 cbr 282 [5 4 3 0] ------- [3:0 4:0 30 4] [22] 0 0
s 1.290000000 _3_ MAC  --- 47 cbr 282 [5 4 3 0] ------- [3:0 4:0 30 4] [23] 0 0
r 1.291128400 _4_ MAC  --- 47 cbr 230 [5 4 3 0] ------- [3:0 4:0 30 4] [23] 1 0
D 1.291128953 _0_ MAC  --- 47 cbr 282 [5 4 3 0] ------- [3:0 4:0 30 4] [23] 0 0
D 1.291129234 _2_ MAC  --- 47 cbr 282 [5 4 3 0] ------- [3:0 4:0 30 4] [23] 0 0
s 1.308000000 _0_ MAC  --- 46 cbr 282 [5 1 0 0] ------- [0:0 2:0 30 1] [23] 0 0
r 1.309128767 _1_ MAC  --- 46 cbr 230 [5 1 0 0] ------- [0:0 2:0 30 1] [23] 1 0
D 1.309128953 _3_ MAC  --- 46 cbr 282 [5 1 0 0] ------- [0:0 2:0 30 1] [23] 0 0
D 1.309129297 _4_ MAC  --- 46 cbr 282 [5 1 0 0] ------- [0:0 2:0 30 1] [23] 0 0
D 1.309129533 _2_ MAC  --- 46 cbr 282 [5 1 0 0] ------- [0:0 2:0 30 1] [23] 0 0
s 1.314000000 _1_ MAC  --- 46 cbr 282 [5 2 1 0] ------- [0:0 2:0 29 2] [23] 1 0
D 1.315128767 _0_ MAC  --- 46 cbr 282 [5 2 1 0] ------- [0:0 2:0 29 2] [23] 1 0
r 1.315128767 _2_ MAC  --- 46 cbr 230 [5 2 1 0] ------- [0:0 2:0 29 2] [23] 2 0
D 1.315129184 _4_ MAC  --- 46 cbr 282 [5 2 1 0] ------- [0:0 2:0 29 2] [23] 1 0
s 1.356000000 _0_ MAC  --- 48 cbr 282 [5 1 0 0] ------- [0:0 2:0 30 1] [24] 0 0
r 1.357128767 _1_ MAC  --- 48 cbr 230 [5 1 0 0] ------- [0:0 2:0 30 1] [24] 1 0
D 1.357128953 _3_ MAC  --- 48 cbr 282 [5 1 0 0] ------- [0:0 2:0 30 1] [24] 0 0
D 1.357129297 _4_ MAC  --- 48 cbr 282 [5 1 0 0] ------- [0:0 2:0 30 1] [24] 0 0
D 1.357129533 _2_ MAC  --- 48 cbr 282 [5 1 0 0] ------- [0:0 2:0 30 1] [24] 0 0
s 1.362000000 _1_ MAC  --- 48 cbr 282 [5 2 1 0] ------- [0:0 2:0 29 2] [24] 1 0
s 1.362000000 _3_ MAC  --- 49 cbr 282 [5 4 3 0] ------- [3:0 4:0 30 4] [24] 0 0
r 1.363128400 _4_ MAC  --- 49 cbr 230 [5 4 3 0] ------- [3:0 4:0 30 4] [24] 1 0
D 1.363128767 _0_ MAC  --- 48 cbr 282 [5 2 1 0] ------- [0:0 2:0 29 2] [24] 1 0
r 1.363128767 _2_ MAC  --- 48 cbr 230 [5 2 1 0] ------- [0:0 2:0 29 2] [24] 2 0
D 1.363128792 _3_ MAC  --- 48 cbr 282 [5 2 1 0] ------- [0:0 2:0 29 2] [24] 1 0
D 1.363128792 _1_ MAC  --- 49 cbr 282 [5 4 3 0] ------- [3:0 4:0 30 4] [24] 0 0
s 1.404000000 _0_ MAC  --- 50 cbr 282 [5 1 0 0] ------- [0:0 2:0 30 1] [25] 0 0
r 1.405128767 _1_ MAC  --- 50 cbr 230 [5 1 0 0] ------- [0:0 2:0 30 1] [25] 1 0
D 1.405128953 _3_ MAC  --- 50 cbr 282 [5 1 0 0] ------- [0:0 2:0 30 1] [25] 0 0
D 1.405129297 _4_ MAC  --- 50 cbr 282 [5 1 0 0] ------- [0:0 2:0 30 1] [25] 0 0
D 1.405129533 _2_ MAC  --- 50 cbr 282 [5 1 0 0] ------- [0:0 2:0 30 1] [25] 0 0
s 1.410000000 _1_ MAC  --- 50 cbr 282 [5 2 1 0] ------- [0:0 2:0 29 2] [25] 1 0
s 1.410000000 _3_ MAC  --- 51 cbr 282 [5 4 3 0] ------- [3:0 4:0 30 4] [25] 0 0
r 1.411128400 _4_ MAC  --- 51 cbr 230 [5 4 3 0] ------- [3:0 4:0 30 4] [25] 1 0
D 1.411128767 _0_ MAC  --- 50 cbr 282 [5 2 1 0] ------- [0:0 2:0 29 2] [25] 1 0
r 1.411128767 _2_ MAC  --- 50 cbr 230 [5 2 1 0] ------- [0:0 2:0 29 2] [25] 2 0
D 1.411128792 _3_ MAC  --- 50 cbr 282 [5 2 1 0] ------- [0:0 2:0 29 2] [25] 1 0
D 1.411128792 _1_ MAC  --- 51 cbr 282 [5 4 3 0] ------- [3:0 4:0 30 4] [25] 0 0
s 1.458000000 _3_ MAC  --- 53 cbr 282 [5 4 3 0] ------- [3:0 4:0 30 4] [26] 0 0
r 1.459128400 _4_ MAC  --- 53 cbr 230 [5 4 3 0] ------- [3:0 4:0 30 4] [26] 1 0
D 1.459128953 _0_ MAC  --- 53 cbr 282 [5 4 3 0] ------- [3:0 4:0 30 4] [26] 0 0
D 1.459129234 _2_ MAC  --- 53 cbr 282 [5 4 3 0] ------- [3:0 4:0 30 4] [26] 0 0
s 1.476000000 _0_ MAC  --- 52 cbr 282 [5 1 0 0] ------- [0:0 2:0 30 1] [26] 0 0