s 0.000000000 _0_ RTR  --- 0 AODV 44 [0 0 0 0] ------- [0:255 -1:255 1 0] [0x1 1 [0 2] 12.000000] (HELLO)
s 0.000000000 _1_ RTR  --- 0 AODV 44 [0 0 0 0] ------- [1:255 -1:255 1 0] [0x1 1 [1 2] 12.000000] (HELLO)
s 0.000000000 _2_ RTR  --- 0 AODV 44 [0 0 0 0] ------- [2:255 -1:255 1 0] [0x1 1 [2 2] 12.000000] (HELLO)
s 0.000000000 _3_ RTR  --- 0 AODV 44 [0 0 0 0] ------- [3:255 -1:255 1 0] [0x1 1 [3 2] 12.000000] (HELLO)
s 0.000000000 _4_ RTR  --- 0 AODV 44 [0 0 0 0] ------- [4:255 -1:255 1 0] [0x1 1 [4 2] 12.000000] (HELLO)
s 0.000000000 _5_ RTR  --- 0 AODV 44 [0 0 0 0] ------- [5:255 -1:255 1 0] [0x1 1 [5 2] 12.000000] (HELLO)
s 0.000000000 _6_ RTR  --- 0 AODV 44 [0 0 0 0] ------- [6:255 -1:255 1 0] [0x1 1 [6 2] 12.000000] (HELLO)
s 0.000000000 _7_ RTR  --- 0 AODV 44 [0 0 0 0] ------- [7:255 -1:255 1 0] [0x1 1 [7 2] 12.000000] (HELLO)
s 0.000000000 _8_ RTR  --- 0 AODV 44 [0 0 0 0] ------- [8:255 -1:255 1 0] [0x1 1 [8 2] 12.000000] (HELLO)
s 0.000000000 _9_ RTR  --- 0 AODV 44 [0 0 0 0] ------- [9:255 -1:255 1 0] [0x1 1 [9 2] 12.000000] (HELLO)
s 0.000000000 _10_ RTR  --- 0 AODV 44 [0 0 0 0] ------- [10:255 -1:255 1 0] [0x1 1 [10 2] 12.000000] (HELLO)
s 0.000000000 _11_ RTR  --- 0 AODV 44 [0 0 0 0] ------- [11:255 -1:255 1 0] [0x1 1 [11 2] 12.000000] (HELLO)
s 0.000000000 _12_ RTR  --- 0 AODV 44 [0 0 0 0] ------- [12:255 -1:255 1 0] [0x1 1 [12 2] 12.000000] (HELLO)
s 0.000000000 _13_ RTR  --- 0 AODV 44 [0 0 0 0] ------- [13:255 -1:255 1 0] [0x1 1 [13 2] 12.000000] (HELLO)
s 0.000000000 _14_ RTR  --- 0 AODV 44 [0 0 0 0] ------- [14:255 -1:255 1 0] [0x1 1 [14 2] 12.000000] (HELLO)
s 0.000000000 _15_ RTR  --- 0 AODV 44 [0 0 0 0] ------- [15:255 -1:255 1 0] [0x1 1 [15 2] 12.000000] (HELLO)
s 0.000000000 _16_ RTR  --- 0 AODV 44 [0 0 0 0] ------- [16:255 -1:255 1 0] [0x1 1 [16 2] 12.000000] (HELLO)
s 0.000000000 _17_ RTR  --- 0 AODV 44 [0 0 0 0] ------- [17:255 -1:255 1 0] [0x1 1 [17 2] 12.000000] (HELLO)
s 0.000000000 _18_ RTR  --- 0 AODV 44 [0 0 0 0] ------- [18:255 -1:255 1 0] [0x1 1 [18 2] 12.000000] (HELLO)
s 0.000000000 _19_ RTR  --- 0 AODV 44 [0 0 0 0] ------- [19:255 -1:255 1 0] [0x1 1 [19 2] 12.000000] (HELLO)
s 0.000000000 _20_ RTR  --- 0 AODV 44 [0 0 0 0] ------- [20:255 -1:255 1 0] [0x1 1 [20 2] 12.000000] (HELLO)
s 0.000000000 _21_ RTR  --- 0 AODV 44 [0 0 0 0] ------- [21:255 -1:255 1 0] [0x1 1 [21 2] 12.000000] (HELLO)
s 0.000000000 _22_ RTR  --- 0 AODV 44 [0 0 0 0] ------- [22:255 -1:255 1 0] [0x1 1 [22 2] 12.000000] (HELLO)
s 0.000000000 _23_ RTR  --- 0 AODV 44 [0 0 0 0] ------- [23:255 -1:255 1 0] [0x1 1 [23 2] 12.000000] (HELLO)
s 0.000000000 _24_ RTR  --- 0 AODV 44 [0 0 0 0] ------- [24:255 -1:255 1 0] [0x1 1 [24 2] 12.000000] (HELLO)
s 2.250509366 _0_ RTR  --- 0 AODV 44 [0 0 0 0] ------- [0:255 -1:255 1 0] [0x1 1 [0 2] 12.000000] (HELLO)
s 2.271306991 _2_ RTR  --- 0 AODV 44 [0 0 0 0] ------- [2:255 -1:255 1 0] [0x1 1 [2 2] 12.000000] (HELLO)
r 2.274409667 _1_ RTR  --- 0 AODV 44 [0 ffffffff 0 0] ------- [0:255 -1:255 1 0] [0x1 1 [0 2] 12.000000] (HELLO)
r 2.274409667 _5_ RTR  --- 0 AODV 44 [0 ffffffff 0 0] ------- [0:255 -1:255 1 0] [0x1 1 [0 2] 12.000000] (HELLO)
r 2.274409667 _3_ RTR  --- 0 AODV 44 [0 ffffffff 2 0] ------- [2:255 -1:255 1 0] [0x1 1 [2 2] 12.000000] (HELLO)
r 2.274409667 _7_ RTR  --- 0 AODV 44 [0 ffffffff 2 0] ------- [2:255 -1:255 1 0] [0x1 1 [2 2] 12.000000] (HELLO)
s 2.314191837 _13_ RTR  --- 0 AODV 44 [0 0 0 0] ------- [13:255 -1:255 1 0] [0x1 1 [13 2] 12.000000] (HELLO)
r 2.316409667 _12_ RTR  --- 0 AODV 44 [0 ffffffff d 0] ------- [13:255 -1:255 1 0] [0x1 1 [13 2] 12.000000] (HELLO)
r 2.316409667 _8_ RTR  --- 0 AODV 44 [0 ffffffff d 0] ------- [13:255 -1:255 1 0] [0x1 1 [13 2] 12.000000] (HELLO)
r 2.316409667 _14_ RTR  --- 0 AODV 44 [0 ffffffff d 0] ------- [13:255 -1:255 1 0] [0x1 1 [13 2] 12.000000] (HELLO)
r 2.316409667 _18_ RTR  --- 0 AODV 44 [0 ffffffff d 0] ------- [13:255 -1:255 1 0] [0x1 1 [13 2] 12.000000] (HELLO)
s 2.382184007 _3_ RTR  --- 0 AODV 44 [0 0 0 0] ------- [3:255 -1:255 1 0] [0x1 1 [3 4] 12.000000] (HELLO)
s 2.391208282 _19_ RTR  --- 0 AODV 44 [0 0 0 0] ------- [19:255 -1:255 1 0] [0x1 1 [19 2] 12.000000] (HELLO)
r 2.400409667 _2_ RTR  --- 0 AODV 44 [0 ffffffff 3 0] ------- [3:255 -1:255 1 0] [0x1 1 [3 4] 12.000000] (HELLO)
r 2.400409667 _4_ RTR  --- 0 AODV 44 [0 ffffffff 3 0] ------- [3:255 -1:255 1 0] [0x1 1 [3 4] 12.000000] (HELLO)
r 2.400409667 _8_ RTR  --- 0 AODV 44 [0 ffffffff 3 0] ------- [3:255 -1:255 1 0] [0x1 1 [3 4] 12.000000] (HELLO)
r 2.400409667 _18_ RTR  --- 0 AODV 44 [0 ffffffff 13 0] ------- [19:255 -1:255 1 0] [0x1 1 [19 2] 12.000000] (HELLO)
r 2.400409667 _14_ RTR  --- 0 AODV 44 [0 ffffffff 13 0] ------- [19:255 -1:255 1 0] [0x1 1 [19 2] 12.000000] (HELLO)
r 2.400409667 _24_ RTR  --- 0 AODV 44 [0 ffffffff 13 0] ------- [19:255 -1:255 1 0] [0x1 1 [19 2] 12.000000] (HELLO)
s 2.420712373 _15_ RTR  --- 0 AODV 44 [0 0 0 0] ------- [15:255 -1:255 1 0] [0x1 1 [15 2] 12.000000] (HELLO)
r 2.442409667 _10_ RTR  --- 0 AODV 44 [0 ffffffff f 0] ------- [15:255 -1:255 1 0] [0x1 1 [15 2] 12.000000] (HELLO)
r 2.442409667 _16_ RTR  --- 0 AODV 44 [0 ffffffff f 0] ------- [15:255 -1:255 1 0] [0x1 1 [15 2] 12.000000] (HELLO)
r 2.442409667 _20_ RTR  --- 0 AODV 44 [0 ffffffff f 0] ------- [15:255 -1:255 1 0] [0x1 1 [15 2] 12.000000] (HELLO)
s 2.496218110 _12_ RTR  --- 0 AODV 44 [0 0 0 0] ------- [12:255 -1:255 1 0] [0x1 1 [12 4] 12.000000] (HELLO)
s 2.512207881 _18_ RTR  --- 0 AODV 44 [0 0 0 0] ------- [18:255 -1:255 1 0] [0x1 1 [18 6] 12.000000] (HELLO)
r 2.526409667 _11_ RTR  --- 0 AODV 44 [0 ffffffff c 0] ------- [12:255 -1:255 1 0] [0x1 1 [12 4] 12.000000] (HELLO)
r 2.526409667 _7_ RTR  --- 0 AODV 44 [0 ffffffff c 0] ------- [12:255 -1:255 1 0] [0x1 1 [12 4] 12.000000] (HELLO)
r 2.526409667 _13_ RTR  --- 0 AODV 44 [0 ffffffff c 0] ------- [12:255 -1:255 1 0] [0x1 1 [12 4] 12.000000] (HELLO)
r 2.526409667 _17_ RTR  --- 0 AODV 44 [0 ffffffff c 0] ------- [12:255 -1:255 1 0] [0x1 1 [12 4] 12.000000] (HELLO)
r 2.526409667 _19_ RTR  --- 0 AODV 44 [0 ffffffff 12 0] ------- [18:255 -1:255 1 0] [0x1 1 [18 6] 12.000000] (HELLO)
r 2.526409667 _23_ RTR  --- 0 AODV 44 [0 ffffffff 12 0] ------- [18:255 -1:255 1 0] [0x1 1 [18 6] 12.000000] (HELLO)
s 2.601902628 _8_ RTR  --- 0 AODV 44 [0 0 0 0] ------- [8:255 -1:255 1 0] [0x1 1 [8 6] 12.000000] (HELLO)
r 2.610409667 _7_ RTR  --- 0 AODV 44 [0 ffffffff 8 0] ------- [8:255 -1:255 1 0] [0x1 1 [8 6] 12.000000] (HELLO)
r 2.610409667 _3_ RTR  --- 0 AODV 44 [0 ffffffff 8 0] ------- [8:255 -1:255 1 0] [0x1 1 [8 6] 12.000000] (HELLO)
r 2.610409667 _9_ RTR  --- 0 AODV 44 [0 ffffffff 8 0] ------- [8:255 -1:255 1 0] [0x1 1 [8 6] 12.000000] (HELLO)
r 2.610409667 _13_ RTR  --- 0 AODV 44 [0 ffffffff 8 0] ------- [8:255 -1:255 1 0] [0x1 1 [8 6] 12.000000] (HELLO)
s 2.637131923 _22_ RTR  --- 0 AODV 44 [0 0 0 0] ------- [22:255 -1:255 1 0] [0x1 1 [22 2] 12.000000] (HELLO)
r 2.652409667 _21_ RTR  --- 0 AODV 44 [0 ffffffff 16 0] ------- [22:255 -1:255 1 0] [0x1 1 [22 2] 12.000000] (HELLO)
r 2.652409667 _17_ RTR  --- 0 AODV 44 [0 ffffffff 16 0] ------- [22:255 -1:255 1 0] [0x1 1 [22 2] 12.000000] (HELLO)
r 2.652409667 _23_ RTR  --- 0 AODV 44 [0 ffffffff 16 0] ------- [22:255 -1:255 1 0] [0x1 1 [22 2] 12.000000] (HELLO)
s 2.713618587 _10_ RTR  --- 0 AODV 44 [0 0 0 0] ------- [10:255 -1:255 1 0] [0x1 1 [10 4] 12.000000] (HELLO)
s 2.719442657 _6_ RTR  --- 0 AODV 44 [0 0 0 0] ------- [6:255 -1:255 1 0] [0x1 1 [6 2] 12.000000] (HELLO)
r 2.736409667 _5_ RTR  --- 0 AODV 44 [0 ffffffff 6 0] ------- [6:255 -1:255 1 0] [0x1 1 [6 2] 12.000000] (HELLO)
r 2.736409667 _1_ RTR  --- 0 AODV 44 [0 ffffffff 6 0] ------- [6:255 -1:255 1 0] [0x1 1 [6 2] 12.000000] (HELLO)
r 2.736409667 _7_ RTR  --- 0 AODV 44 [0 ffffffff 6 0] ------- [6:255 -1:255 1 0] [0x1 1 [6 2] 12.000000] (HELLO)
r 2.736409667 _11_ RTR  --- 0 AODV 44 [0 ffffffff 6 0] ------- [6:255 -1:255 1 0] [0x1 1 [6 2] 12.000000] (HELLO)
r 2.736409667 _15_ RTR  --- 0 AODV 44 [0 ffffffff a 0] ------- [10:255 -1:255 1 0] [0x1 1 [10 4] 12.000000] (HELLO)
s 2.773111538 _21_ RTR  --- 0 AODV 44 [0 0 0 0] ------- [21:255 -1:255 1 0] [0x1 1 [21 4] 12.000000] (HELLO)
r 2.778409667 _20_ RTR  --- 0 AODV 44 [0 ffffffff 15 0] ------- [21:255 -1:255 1 0] [0x1 1 [21 4] 12.000000] (HELLO)
r 2.778409667 _16_ RTR  --- 0 AODV 44 [0 ffffffff 15 0] ------- [21:255 -1:255 1 0] [0x1 1 [21 4] 12.000000] (HELLO)
r 2.778409667 _22_ RTR  --- 0 AODV 44 [0 ffffffff 15 0] ------- [21:255 -1:255 1 0] [0x1 1 [21 4] 12.000000] (HELLO)
s 2.863028514 _23_ RTR  --- 0 AODV 44 [0 0 0 0] ------- [23:255 -1:255 1 0] [0x1 1 [23 6] 12.000000] (HELLO)
r 2.868409667 _22_ RTR  --- 0 AODV 44 [0 ffffffff 17 0] ------- [23:255 -1:255 1 0] [0x1 1 [23 6] 12.000000] (HELLO)
r 2.868409667 _18_ RTR  --- 0 AODV 44 [0 ffffffff 17 0] ------- [23:255 -1:255 1 0] [0x1 1 [23 6] 12.000000] (HELLO)
r 2.868409667 _24_ RTR  --- 0 AODV 44 [0 ffffffff 17 0] ------- [23:255 -1:255 1 0] [0x1 1 [23 6] 12.000000] (HELLO)
s 2.885485104 _17_ RTR  --- 0 AODV 44 [0 0 0 0] ------- [17:255 -1:255 1 0] [0x1 1 [17 6] 12.000000] (HELLO)
r 2.904409667 _16_ RTR  --- 0 AODV 44 [0 ffffffff 11 0] ------- [17:255 -1:255 1 0] [0x1 1 [17 6] 12.000000] (HELLO)
r 2.904409667 _12_ RTR  --- 0 AODV 44 [0 ffffffff 11 0] ------- [17:255 -1:255 1 0] [0x1 1 [17 6] 12.000000] (HELLO)
r 2.904409667 _18_ RTR  --- 0 AODV 44 [0 ffffffff 11 0] ------- [17:255 -1:255 1 0] [0x1 1 [17 6] 12.000000] (HELLO)
r 2.904409667 _22_ RTR  --- 0 AODV 44 [0 ffffffff 11 0] ------- [17:255 -1:255 1 0] [0x1 1 [17 6] 12.000000] (HELLO)
s 2.911760073 _4_ RTR  --- 0 AODV 44 [0 0 0 0] ------- [4:255 -1:255 1 0] [0x1 1 [4 4] 12.000000] (HELLO)
r 2.946409667 _3_ RTR  --- 0 AODV 44 [0 ffffffff 4 0] ------- [4:255 -1:255 1 0] [0x1 1 [4 4] 12.000000] (HELLO)
r 2.946409667 _9_ RTR  --- 0 AODV 44 [0 ffffffff 4 0] ------- [4:255 -1:255 1 0] [0x1 1 [4 4] 12.000000] (HELLO)
s 3.027973192 _24_ RTR  --- 0 AODV 44 [0 0 0 0] ------- [24:255 -1:255 1 0] [0x1 1 [24 6] 12.000000] (HELLO)
r 3.030409667 _23_ RTR  --- 0 AODV 44 [0 ffffffff 18 0] ------- [24:255 -1:255 1 0] [0x1 1 [24 6] 12.000000] (HELLO)
r 3.030409667 _19_ RTR  --- 0 AODV 44 [0 ffffffff 18 0] ------- [24:255 -1:255 1 0] [0x1 1 [24 6] 12.000000] (HELLO)
s 3.083821074 _1_ RTR  --- 0 AODV 44 [0 0 0 0] ------- [1:255 -1:255 1 0] [0x1 1 [1 6] 12.000000] (HELLO)
r 3.114409667 _0_ RTR  --- 0 AODV 44 [0 ffffffff 1 0] ------- [1:255 -1:255 1 0] [0x1 1 [1 6] 12.000000] (HELLO)
r 3.114409667 _2_ RTR  --- 0 AODV 44 [0 ffffffff 1 0] ------- [1:255 -1:255 1 0] [0x1 1 [1 6] 12.000000] (HELLO)
r 3.114409667 _6_ RTR  --- 0 AODV 44 [0 ffffffff 1 0] ------- [1:255 -1:255 1 0] [0x1 1 [1 6] 12.000000] (HELLO)
s 3.208297715 _9_ RTR  --- 0 AODV 44 [0 0 0 0] ------- [9:255 -1:255 1 0] [0x1 1 [9 6] 12.000000] (HELLO)
s 3.210101489 _14_ RTR  --- 0 AODV 44 [0 0 0 0] ------- [14:255 -1:255 1 0] [0x1 1 [14 6] 12.000000] (HELLO)
r 3.240409667 _8_ RTR  --- 0 AODV 44 [0 ffffffff 9 0] ------- [9:255 -1:255 1 0] [0x1 1 [9 6] 12.000000] (HELLO)
r 3.240409667 _4_ RTR  --- 0 AODV 44 [0 ffffffff 9 0] ------- [9:255 -1:255 1 0] [0x1 1 [9 6] 12.000000] (HELLO)
r 3.240409667 _13_ RTR  --- 0 AODV 44 [0 ffffffff e 0] ------- [14:255 -1:255 1 0] [0x1 1 [14 6] 12.000000] (HELLO)
r 3.240409667 _19_ RTR  --- 0 AODV 44 [0 ffffffff e 0] ------- [14:255 -1:255 1 0] [0x1 1 [14 6] 12.000000] (HELLO)
s 3.448733180 _5_ RTR  --- 0 AODV 44 [0 0 0 0] ------- [5:255 -1:255 1 0] [0x1 1 [5 6] 12.000000] (HELLO)
r 3.450409667 _0_ RTR  --- 0 AODV 44 [0 ffffffff 5 0] ------- [5:255 -1:255 1 0] [0x1 1 [5 6] 12.000000] (HELLO)
r 3.450409667 _6_ RTR  --- 0 AODV 44 [0 ffffffff 5 0] ------- [5:255 -1:255 1 0] [0x1 1 [5 6] 12.000000] (HELLO)
r 3.450409667 _10_ RTR  --- 0 AODV 44 [0 ffffffff 5 0] ------- [5:255 -1:255 1 0] [0x1 1 [5 6] 12.000000] (HELLO)
s 3.460542830 _20_ RTR  --- 0 AODV 44 [0 0 0 0] ------- [20:255 -1:255 1 0] [0x1 1 [20 6] 12.000000] (HELLO)
s 3.474714077 _7_ RTR  --- 0 AODV 44 [0 0 0 0] ------- [7:255 -1:255 1 0] [0x1 1 [7 10] 12.000000] (HELLO)
r 3.492409667 _6_ RTR  --- 0 AODV 44 [0 ffffffff 7 0] ------- [7:255 -1:255 1 0] [0x1 1 [7 10] 12.000000] (HELLO)
r 3.492409667 _2_ RTR  --- 0 AODV 44 [0 ffffffff 7 0] ------- [7:255 -1:255 1 0] [0x1 1 [7 10] 12.000000] (HELLO)
r 3.492409667 _8_ RTR  --- 0 AODV 44 [0 ffffffff 7 0] ------- [7:255 -1:255 1 0] [0x1 1 [7 10] 12.000000] (HELLO)
r 3.492409667 _12_ RTR  --- 0 AODV 44 [0 ffffffff 7 0] ------- [7:255 -1:255 1 0] [0x1 1 [7 10] 12.000000] (HELLO)
r 3.492409667 _15_ RTR  --- 0 AODV 44 [0 ffffffff 14 0] ------- [20:255 -1:255 1 0] [0x1 1 [20 6] 12.000000] (HELLO)
r 3.492409667 _21_ RTR  --- 0 AODV 44 [0 ffffffff 14 0] ------- [20:255 -1:255 1 0] [0x1 1 [20 6] 12.000000] (HELLO)
s 3.504485305 _11_ RTR  --- 0 AODV 44 [0 0 0 0] ------- [11:255 -1:255 1 0] [0x1 1 [11 6] 12.000000] (HELLO)
r 3.534409667 _10_ RTR  --- 0 AODV 44 [0 ffffffff b 0] ------- [11:255 -1:255 1 0] [0x1 1 [11 6] 12.000000] (HELLO)
r 3.534409667 _6_ RTR  --- 0 AODV 44 [0 ffffffff b 0] ------- [11:255 -1:255 1 0] [0x1 1 [11 6] 12.000000] (HELLO)
r 3.534409667 _12_ RTR  --- 0 AODV 44 [0 ffffffff b 0] ------- [11:255 -1:255 1 0] [0x1 1 [11 6] 12.000000] (HELLO)
r 3.534409667 _16_ RTR  --- 0 AODV 44 [0 ffffffff b 0] ------- [11:255 -1:255 1 0] [0x1 1 [11 6] 12.000000] (HELLO)
s 3.539591546 _16_ RTR  --- 0 AODV 44 [0 0 0 0] ------- [16:255 -1:255 1 0] [0x1 1 [16 10] 12.000000] (HELLO)
r 3.540409667 _15_ RTR  --- 0 AODV 44 [0 ffffffff 10 0] ------- [16:255 -1:255 1 0] [0x1 1 [16 10] 12.000000] (HELLO)
r 3.540409667 _11_ RTR  --- 0 AODV 44 [0 ffffffff 10 0] ------- [16:255 -1:255 1 0] [0x1 1 [16 10] 12.000000] (HELLO)
r 3.540409667 _17_ RTR  --- 0 AODV 44 [0 ffffffff 10 0] ------- [16:255 -1:255 1 0] [0x1 1 [16 10] 12.000000] (HELLO)
r 3.540409667 _21_ RTR  --- 0 AODV 44 [0 ffffffff 10 0] ------- [16:255 -1:255 1 0] [0x1 1 [16 10] 12.000000] (HELLO)
s 4.966947471 _19_ RTR  --- 0 AODV 44 [0 0 0 0] ------- [19:255 -1:255 1 0] [0x1 1 [19 8] 12.000000] (HELLO)
r 4.968409667 _18_ RTR  --- 0 AODV 44 [0 ffffffff 13 0] ------- [19:255 -1:255 1 0] [0x1 1 [19 8] 12.000000] (HELLO)
r 4.968409667 _14_ RTR  --- 0 AODV 44 [0 ffffffff 13 0] ------- [19:255 -1:255 1 0] [0x1 1 [19 8] 12.000000] (HELLO)
r 4.968409667 _24_ RTR  --- 0 AODV 44 [0 ffffffff 13 0] ------- [19:255 -1:255 1 0] [0x1 1 [19 8] 12.000000] (HELLO)
s 5.032550815 _15_ RTR  --- 0 AODV 44 [0 0 0 0] ------- [15:255 -1:255 1 0] [0x1 1 [15 8] 12.000000] (HELLO)
r 5.046409667 _10_ RTR  --- 0 AODV 44 [0 ffffffff f 0] ------- [15:255 -1:255 1 0] [0x1 1 [15 8] 12.000000] (HELLO)
r 5.046409667 _16_ RTR  --- 0 AODV 44 [0 ffffffff f 0] ------- [15:255 -1:255 1 0] [0x1 1 [15 8] 12.000000] (HELLO)
r 5.046409667 _20_ RTR  --- 0 AODV 44 [0 ffffffff f 0] ------- [15:255 -1:255 1 0] [0x1 1 [15 8] 12.000000] (HELLO)
s 5.133240365 _6_ RTR  --- 0 AODV 44 [0 0 0 0] ------- [6:255 -1:255 1 0] [0x1 1 [6 10] 12.000000] (HELLO)
r 5.136409667 _5_ RTR  --- 0 AODV 44 [0 ffffffff 6 0] ------- [6:255 -1:255 1 0] [0x1 1 [6 10] 12.000000] (HELLO)
r 5.136409667 _1_ RTR  --- 0 AODV 44 [0 ffffffff 6 0] ------- [6:255 -1:255 1 0] [0x1 1 [6 10] 12.000000] (HELLO)
r 5.136409667 _7_ RTR  --- 0 AODV 44 [0 ffffffff 6 0] ------- [6:255 -1:255 1 0] [0x1 1 [6 10] 12.000000] (HELLO)
r 5.136409667 _11_ RTR  --- 0 AODV 44 [0 ffffffff 6 0] ------- [6:255 -1:255 1 0] [0x1 1 [6 10] 12.000000] (HELLO)
s 5.199683270 _0_ RTR  --- 0 AODV 44 [0 0 0 0] ------- [0:255 -1:255 1 0] [0x1 1 [0 6] 12.000000] (HELLO)
r 5.214409667 _1_ RTR  --- 0 AODV 44 [0 ffffffff 0 0] ------- [0:255 -1:255 1 0] [0x1 1 [0 6] 12.000000] (HELLO)
r 5.214409667 _5_ RTR  --- 0 AODV 44 [0 ffffffff 0 0] ------- [0:255 -1:255 1 0] [0x1 1 [0 6] 12.000000] (HELLO)
s 5.394076377 _23_ RTR  --- 0 AODV 44 [0 0 0 0] ------- [23:255 -1:255 1 0] [0x1 1 [23 8] 12.000000] (HELLO)
r 5.424409667 _22_ RTR  --- 0 AODV 44 [0 ffffffff 17 0] ------- [23:255 -1:255 1 0] [0x1 1 [23 8] 12.000000] (HELLO)
r 5.424409667 _18_ RTR  --- 0 AODV 44 [0 ffffffff 17 0] ------- [23:255 -1:255 1 0] [0x1 1 [23 8] 12.000000] (HELLO)
r 5.424409667 _24_ RTR  --- 0 AODV 44 [0 ffffffff 17 0] ------- [23:255 -1:255 1 0] [0x1 1 [23 8] 12.000000] (HELLO)
s 5.476313996 _14_ RTR  --- 0 AODV 44 [0 0 0 0] ------- [14:255 -1:255 1 0] [0x1 1 [14 6] 12.000000] (HELLO)
s 5.501868048 _1_ RTR  --- 0 AODV 44 [0 0 0 0] ------- [1:255 -1:255 1 0] [0x1 1 [1 6] 12.000000] (HELLO)
r 5.508409667 _0_ RTR  --- 0 AODV 44 [0 ffffffff 1 0] ------- [1:255 -1:255 1 0] [0x1 1 [1 6] 12.000000] (HELLO)
r 5.508409667 _2_ RTR  --- 0 AODV 44 [0 ffffffff 1 0] ------- [1:255 -1:255 1 0] [0x1 1 [1 6] 12.000000] (HELLO)
r 5.508409667 _6_ RTR  --- 0 AODV 44 [0 ffffffff 1 0] ------- [1:255 -1:255 1 0] [0x1 1 [1 6] 12.000000] (HELLO)
r 5.508409667 _13_ RTR  --- 0 AODV 44 [0 ffffffff e 0] ------- [14:255 -1:255 1 0] [0x1 1 [14 6] 12.000000] (HELLO)
r 5.508409667 _9_ RTR  --- 0 AODV 44 [0 ffffffff e 0] ------- [14:255 -1:255 1 0] [0x1 1 [14 6] 12.000000] (HELLO)
r 5.508409667 _19_ RTR  --- 0 AODV 44 [0 ffffffff e 0] ------- [14:255 -1:255 1 0] [0x1 1 [14 6] 12.000000] (HELLO)
s 5.545901656 _9_ RTR  --- 0 AODV 44 [0 0 0 0] ------- [9:255 -1:255 1 0] [0x1 1 [9 8] 12.000000] (HELLO)
r 5.550409667 _8_ RTR  --- 0 AODV 44 [0 ffffffff 9 0] ------- [9:255 -1:255 1 0] [0x1 1 [9 8] 12.000000] (HELLO)
r 5.550409667 _4_ RTR  --- 0 AODV 44 [0 ffffffff 9 0] ------- [9:255 -1:255 1 0] [0x1 1 [9 8] 12.000000] (HELLO)
r 5.550409667 _14_ RTR  --- 0 AODV 44 [0 ffffffff 9 0] ------- [9:255 -1:255 1 0] [0x1 1 [9 8] 12.000000] (HELLO)
s 5.559767240 _2_ RTR  --- 0 AODV 44 [0 0 0 0] ------- [2:255 -1:255 1 0] [0x1 1 [2 8] 12.000000] (HELLO)
s 5.571897203 _10_ RTR  --- 0 AODV 44 [0 0 0 0] ------- [10:255 -1:255 1 0] [0x1 1 [10 8] 12.000000] (HELLO)
r 5.592409667 _1_ RTR  --- 0 AODV 44 [0 ffffffff 2 0] ------- [2:255 -1:255 1 0] [0x1 1 [2 8] 12.000000] (HELLO)
r 5.592409667 _3_ RTR  --- 0 AODV 44 [0 ffffffff 2 0] ------- [2:255 -1:255 1 0] [0x1 1 [2 8] 12.000000] (HELLO)
r 5.592409667 _7_ RTR  --- 0 AODV 44 [0 ffffffff 2 0] ------- [2:255 -1:255 1 0] [0x1 1 [2 8] 12.000000] (HELLO)
r 5.592409667 _5_ RTR  --- 0 AODV 44 [0 ffffffff a 0] ------- [10:255 -1:255 1 0] [0x1 1 [10 8] 12.000000] (HELLO)
r 5.592409667 _11_ RTR  --- 0 AODV 44 [0 ffffffff a 0] ------- [10:255 -1:255 1 0] [0x1 1 [10 8] 12.000000] (HELLO)
r 5.592409667 _15_ RTR  --- 0 AODV 44 [0 ffffffff a 0] ------- [10:255 -1:255 1 0] [0x1 1 [10 8] 12.000000] (HELLO)
s 5.629422831 _21_ RTR  --- 0 AODV 44 [0 0 0 0] ------- [21:255 -1:255 1 0] [0x1 1 [21 8] 12.000000] (HELLO)
r 5.634409667 _20_ RTR  --- 0 AODV 44 [0 ffffffff 15 0] ------- [21:255 -1:255 1 0] [0x1 1 [21 8] 12.000000] (HELLO)
r 5.634409667 _16_ RTR  --- 0 AODV 44 [0 ffffffff 15 0] ------- [21:255 -1:255 1 0] [0x1 1 [21 8] 12.000000] (HELLO)
r 5.634409667 _22_ RTR  --- 0 AODV 44 [0 ffffffff 15 0] ------- [21:255 -1:255 1 0] [0x1 1 [21 8] 12.000000] (HELLO)
s 5.778231295 _18_ RTR  --- 0 AODV 44 [0 0 0 0] ------- [18:255 -1:255 1 0] [0x1 1 [18 10] 12.000000] (HELLO)
r 5.802409667 _17_ RTR  --- 0 AODV 44 [0 ffffffff 12 0] ------- [18:255 -1:255 1 0] [0x1 1 [18 10] 12.000000] (HELLO)
r 5.802409667 _13_ RTR  --- 0 AODV 44 [0 ffffffff 12 0] ------- [18:255 -1:255 1 0] [0x1 1 [18 10] 12.000000] (HELLO)
r 5.802409667 _19_ RTR  --- 0 AODV 44 [0 ffffffff 12 0] ------- [18:255 -1:255 1 0] [0x1 1 [18 10] 12.000000] (HELLO)
r 5.802409667 _23_ RTR  --- 0 AODV 44 [0 ffffffff 12 0] ------- [18:255 -1:255 1 0] [0x1 1 [18 10] 12.000000] (HELLO)
s 5.857292758 _13_ RTR  --- 0 AODV 44 [0 0 0 0] ------- [13:255 -1:255 1 0] [0x1 1 [13 10] 12.000000] (HELLO)
r 5.886409667 _12_ RTR  --- 0 AODV 44 [0 ffffffff d 0] ------- [13:255 -1:255 1 0] [0x1 1 [13 10] 12.000000] (HELLO)
r 5.886409667 _8_ RTR  --- 0 AODV 44 [0 ffffffff d 0] ------- [13:255 -1:255 1 0] [0x1 1 [13 10] 12.000000] (HELLO)
r 5.886409667 _14_ RTR  --- 0 AODV 44 [0 ffffffff d 0] ------- [13:255 -1:255 1 0] [0x1 1 [13 10] 12.000000] (HELLO)
r 5.886409667 _18_ RTR  --- 0 AODV 44 [0 ffffffff d 0] ------- [13:255 -1:255 1 0] [0x1 1 [13 10] 12.000000] (HELLO)
s 5.891921811 _3_ RTR  --- 0 AODV 44 [0 0 0 0] ------- [3:255 -1:255 1 0] [0x1 1 [3 8] 12.000000] (HELLO)
r 5.892409667 _2_ RTR  --- 0 AODV 44 [0 ffffffff 3 0] ------- [3:255 -1:255 1 0] [0x1 1 [3 8] 12.000000] (HELLO)
r 5.892409667 _4_ RTR  --- 0 AODV 44 [0 ffffffff 3 0] ------- [3:255 -1:255 1 0] [0x1 1 [3 8] 12.000000] (HELLO)
r 5.892409667 _8_ RTR  --- 0 AODV 44 [0 ffffffff 3 0] ------- [3:255 -1:255 1 0] [0x1 1 [3 8] 12.000000] (HELLO)
s 5.909369321 _7_ RTR  --- 0 AODV 44 [0 0 0 0] ------- [7:255 -1:255 1 0] [0x1 1 [7 10] 12.000000] (HELLO)
r 5.928409667 _6_ RTR  --- 0 AODV 44 [0 ffffffff 7 0] ------- [7:255 -1:255 1 0] [0x1 1 [7 10] 12.000000] (HELLO)
r 5.928409667 _2_ RTR  --- 0 AODV 44 [0 ffffffff 7 0] ------- [7:255 -1:255 1 0] [0x1 1 [7 10] 12.000000] (HELLO)
r 5.928409667 _8_ RTR  --- 0 AODV 44 [0 ffffffff 7 0] ------- [7:255 -1:255 1 0] [0x1 1 [7 10] 12.000000] (HELLO)
r 5.928409667 _12_ RTR  --- 0 AODV 44 [0 ffffffff 7 0] ------- [7:255 -1:255 1 0] [0x1 1 [7 10] 12.000000] (HELLO)
s 5.995250467 _8_ RTR  --- 0 AODV 44 [0 0 0 0] ------- [8:255 -1:255 1 0] [0x1 1 [8 10] 12.000000] (HELLO)
r 6.012409667 _7_ RTR  --- 0 AODV 44 [0 ffffffff 8 0] ------- [8:255 -1:255 1 0] [0x1 1 [8 10] 12.000000] (HELLO)
r 6.012409667 _3_ RTR  --- 0 AODV 44 [0 ffffffff 8 0] ------- [8:255 -1:255 1 0] [0x1 1 [8 10] 12.000000] (HELLO)
r 6.012409667 _9_ RTR  --- 0 AODV 44 [0 ffffffff 8 0] ------- [8:255 -1:255 1 0] [0x1 1 [8 10] 12.000000] (HELLO)
r 6.012409667 _13_ RTR  --- 0 AODV 44 [0 ffffffff 8 0] ------- [8:255 -1:255 1 0] [0x1 1 [8 10] 12.000000] (HELLO)
s 6.022877938 _12_ RTR  --- 0 AODV 44 [0 0 0 0] ------- [12:255 -1:255 1 0] [0x1 1 [12 10] 12.000000] (HELLO)
r 6.054409667 _11_ RTR  --- 0 AODV 44 [0 ffffffff c 0] ------- [12:255 -1:255 1 0] [0x1 1 [12 10] 12.000000] (HELLO)
r 6.054409667 _7_ RTR  --- 0 AODV 44 [0 ffffffff c 0] ------- [12:255 -1:255 1 0] [0x1 1 [12 10] 12.000000] (HELLO)
r 6.054409667 _13_ RTR  --- 0 AODV 44 [0 ffffffff c 0] ------- [12:255 -1:255 1 0] [0x1 1 [12 10] 12.000000] (HELLO)
r 6.054409667 _17_ RTR  --- 0 AODV 44 [0 ffffffff c 0] ------- [12:255 -1:255 1 0] [0x1 1 [12 10] 12.000000] (HELLO)
s 6.175082155 _16_ RTR  --- 0 AODV 44 [0 0 0 0] ------- [16:255 -1:255 1 0] [0x1 1 [16 10] 12.000000] (HELLO)
r 6.180409667 _15_ RTR  --- 0 AODV 44 [0 ffffffff 10 0] ------- [16:255 -1:255 1 0] [0x1 1 [16 10] 12.000000] (HELLO)
r 6.180409667 _11_ RTR  --- 0 AODV 44 [0 ffffffff 10 0] ------- [16:255 -1:255 1 0] [0x1 1 [16 10] 12.000000] (HELLO)
r 6.180409667 _17_ RTR  --- 0 AODV 44 [0 ffffffff 10 0] ------- [16:255 -1:255 1 0] [0x1 1 [16 10] 12.000000] (HELLO)
r 6.180409667 _21_ RTR  --- 0 AODV 44 [0 ffffffff 10 0] ------- [16:255 -1:255 1 0] [0x1 1 [16 10] 12.000000] (HELLO)
s 6.214036968 _20_ RTR  --- 0 AODV 44 [0 0 0 0] ------- [20:255 -1:255 1 0] [0x1 1 [20 6] 12.000000] (HELLO)
r 6.222409667 _15_ RTR  --- 0 AODV 44 [0 ffffffff 14 0] ------- [20:255 -1:255 1 0] [0x1 1 [20 6] 12.000000] (HELLO)
r 6.222409667 _21_ RTR  --- 0 AODV 44 [0 ffffffff 14 0] ------- [20:255 -1:255 1 0] [0x1 1 [20 6] 12.000000] (HELLO)
s 6.244550127 _22_ RTR  --- 0 AODV 44 [0 0 0 0] ------- [22:255 -1:255 1 0] [0x1 1 [22 8] 12.000000] (HELLO)
r 6.264409667 _21_ RTR  --- 0 AODV 44 [0 ffffffff 16 0] ------- [22:255 -1:255 1 0] [0x1 1 [22 8] 12.000000] (HELLO)
r 6.264409667 _17_ RTR  --- 0 AODV 44 [0 ffffffff 16 0] ------- [22:255 -1:255 1 0] [0x1 1 [22 8] 12.000000] (HELLO)
r 6.264409667 _23_ RTR  --- 0 AODV 44 [0 ffffffff 16 0] ------- [22:255 -1:255 1 0] [0x1 1 [22 8] 12.000000] (HELLO)
s 6.466650424 _17_ RTR  --- 0 AODV 44 [0 0 0 0] ------- [17:255 -1:255 1 0] [0x1 1 [17 10] 12.000000] (HELLO)
r 6.474409667 _16_ RTR  --- 0 AODV 44 [0 ffffffff 11 0] ------- [17:255 -1:255 1 0] [0x1 1 [17 10] 12.000000] (HELLO)
r 6.474409667 _12_ RTR  --- 0 AODV 44 [0 ffffffff 11 0] ------- [17:255 -1:255 1 0] [0x1 1 [17 10] 12.000000] (HELLO)
r 6.474409667 _18_ RTR  --- 0 AODV 44 [0 ffffffff 11 0] ------- [17:255 -1:255 1 0] [0x1 1 [17 10] 12.000000] (HELLO)
r 6.474409667 _22_ RTR  --- 0 AODV 44 [0 ffffffff 11 0] ------- [17:255 -1:255 1 0] [0x1 1 [17 10] 12.000000] (HELLO)
s 6.581157503 _4_ RTR  --- 0 AODV 44 [0 0 0 0] ------- [4:255 -1:255 1 0] [0x1 1 [4 6] 12.000000] (HELLO)
s 6.591274262 _5_ RTR  --- 0 AODV 44 [0 0 0 0] ------- [5:255 -1:255 1 0] [0x1 1 [5 8] 12.000000] (HELLO)
r 6.600409667 _3_ RTR  --- 0 AODV 44 [0 ffffffff 4 0] ------- [4:255 -1:255 1 0] [0x1 1 [4 6] 12.000000] (HELLO)
r 6.600409667 _9_ RTR  --- 0 AODV 44 [0 ffffffff 4 0] ------- [4:255 -1:255 1 0] [0x1 1 [4 6] 12.000000] (HELLO)
r 6.600409667 _0_ RTR  --- 0 AODV 44 [0 ffffffff 5 0] ------- [5:255 -1:255 1 0] [0x1 1 [5 8] 12.000000] (HELLO)
r 6.600409667 _6_ RTR  --- 0 AODV 44 [0 ffffffff 5 0] ------- [5:255 -1:255 1 0] [0x1 1 [5 8] 12.000000] (HELLO)
r 6.600409667 _10_ RTR  --- 0 AODV 44 [0 ffffffff 5 0] ------- [5:255 -1:255 1 0] [0x1 1 [5 8] 12.000000] (HELLO)
s 6.614994924 _24_ RTR  --- 0 AODV 44 [0 0 0 0] ------- [24:255 -1:255 1 0] [0x1 1 [24 6] 12.000000] (HELLO)
r 6.642409667 _23_ RTR  --- 0 AODV 44 [0 ffffffff 18 0] ------- [24:255 -1:255 1 0] [0x1 1 [24 6] 12.000000] (HELLO)
r 6.642409667 _19_ RTR  --- 0 AODV 44 [0 ffffffff 18 0] ------- [24:255 -1:255 1 0] [0x1 1 [24 6] 12.000000] (HELLO)
s 6.757421145 _11_ RTR  --- 0 AODV 44 [0 0 0 0] ------- [11:255 -1:255 1 0] [0x1 1 [11 10] 12.000000] (HELLO)
r 6.768409667 _10_ RTR  --- 0 AODV 44 [0 ffffffff b 0] ------- [11:255 -1:255 1 0] [0x1 1 [11 10] 12.000000] (HELLO)
r 6.768409667 _6_ RTR  --- 0 AODV 44 [0 ffffffff b 0] ------- [11:255 -1:255 1 0] [0x1 1 [11 10] 12.000000] (HELLO)
r 6.768409667 _12_ RTR  --- 0 AODV 44 [0 ffffffff b 0] ------- [11:255 -1:255 1 0] [0x1 1 [11 10] 12.000000] (HELLO)
r 6.768409667 _16_ RTR  --- 0 AODV 44 [0 ffffffff b 0] ------- [11:255 -1:255 1 0] [0x1 1 [11 10] 12.000000] (HELLO)
s 7.793204256 _1_ RTR  --- 0 AODV 44 [0 0 0 0] ------- [1:255 -1:255 1 0] [0x1 1 [1 8] 12.000000] (HELLO)
r 7.818409667 _0_ RTR  --- 0 AODV 44 [0 ffffffff 1 0] ------- [1:255 -1:255 1 0] [0x1 1 [1 8] 12.000000] (HELLO)
r 7.818409667 _2_ RTR  --- 0 AODV 44 [0 ffffffff 1 0] ------- [1:255 -1:255 1 0] [0x1 1 [1 8] 12.000000] (HELLO)
r 7.818409667 _6_ RTR  --- 0 AODV 44 [0 ffffffff 1 0] ------- [1:255 -1:255 1 0] [0x1 1 [1 8] 12.000000] (HELLO)
s 7.842419491 _0_ RTR  --- 0 AODV 44 [0 0 0 0] ------- [0:255 -1:255 1 0] [0x1 1 [0 6] 12.000000] (HELLO)
r 7.860409667 _1_ RTR  --- 0 AODV 44 [0 ffffffff 0 0] ------- [0:255 -1:255 1 0] [0x1 1 [0 6] 12.000000] (HELLO)
r 7.860409667 _5_ RTR  --- 0 AODV 44 [0 ffffffff 0 0] ------- [0:255 -1:255 1 0] [0x1 1 [0 6] 12.000000] (HELLO)
s 8.089088620 _2_ RTR  --- 0 AODV 44 [0 0 0 0] ------- [2:255 -1:255 1 0] [0x1 1 [2 8] 12.000000] (HELLO)
s 8.099783765 _15_ RTR  --- 0 AODV 44 [0 0 0 0] ------- [15:255 -1:255 1 0] [0x1 1 [15 8] 12.000000] (HELLO)
r 8.112409667 _1_ RTR  --- 0 AODV 44 [0 ffffffff 2 0] ------- [2:255 -1:255 1 0] [0x1 1 [2 8] 12.000000] (HELLO)
r 8.112409667 _3_ RTR  --- 0 AODV 44 [0 ffffffff 2 0] ------- [2:255 -1:255 1 0] [0x1 1 [2 8] 12.000000] (HELLO)
r 8.112409667 _7_ RTR  --- 0 AODV 44 [0 ffffffff 2 0] ------- [2:255 -1:255 1 0] [0x1 1 [2 8] 12.000000] (HELLO)
r 8.112409667 _10_ RTR  --- 0 AODV 44 [0 ffffffff f 0] ------- [15:255 -1:255 1 0] [0x1 1 [15 8] 12.000000] (HELLO)
r 8.112409667 _16_ RTR  --- 0 AODV 44 [0 ffffffff f 0] ------- [15:255 -1:255 1 0] [0x1 1 [15 8] 12.000000] (HELLO)
r 8.112409667 _20_ RTR  --- 0 AODV 44 [0 ffffffff f 0] ------- [15:255 -1:255 1 0] [0x1 1 [15 8] 12.000000] (HELLO)
s 8.264957311 _19_ RTR  --- 0 AODV 44 [0 0 0 0] ------- [19:255 -1:255 1 0] [0x1 1 [19 8] 12.000000] (HELLO)
r 8.280409667 _18_ RTR  --- 0 AODV 44 [0 ffffffff 13 0] ------- [19:255 -1:255 1 0] [0x1 1 [19 8] 12.000000] (HELLO)
r 8.280409667 _14_ RTR  --- 0 AODV 44 [0 ffffffff 13 0] ------- [19:255 -1:255 1 0] [0x1 1 [19 8] 12.000000] (HELLO)
r 8.280409667 _24_ RTR  --- 0 AODV 44 [0 ffffffff 13 0] ------- [19:255 -1:255 1 0] [0x1 1 [19 8] 12.000000] (HELLO)
s 8.286877155 _9_ RTR  --- 0 AODV 44 [0 0 0 0] ------- [9:255 -1:255 1 0] [0x1 1 [9 8] 12.000000] (HELLO)
r 8.322409667 _8_ RTR  --- 0 AODV 44 [0 ffffffff 9 0] ------- [9:255 -1:255 1 0] [0x1 1 [9 8] 12.000000] (HELLO)
r 8.322409667 _4_ RTR  --- 0 AODV 44 [0 ffffffff 9 0] ------- [9:255 -1:255 1 0] [0x1 1 [9 8] 12.000000] (HELLO)
r 8.322409667 _14_ RTR  --- 0 AODV 44 [0 ffffffff 9 0] ------- [9:255 -1:255 1 0] [0x1 1 [9 8] 12.000000] (HELLO)
s 8.364844913 _14_ RTR  --- 0 AODV 44 [0 0 0 0] ------- [14:255 -1:255 1 0] [0x1 1 [14 8] 12.000000] (HELLO)
r 8.370409667 _13_ RTR  --- 0 AODV 44 [0 ffffffff e 0] ------- [14:255 -1:255 1 0] [0x1 1 [14 8] 12.000000] (HELLO)
r 8.370409667 _9_ RTR  --- 0 AODV 44 [0 ffffffff e 0] ------- [14:255 -1:255 1 0] [0x1 1 [14 8] 12.000000] (HELLO)
r 8.370409667 _19_ RTR  --- 0 AODV 44 [0 ffffffff e 0] ------- [14:255 -1:255 1 0] [0x1 1 [14 8] 12.000000] (HELLO)
s 8.409913312 _12_ RTR  --- 0 AODV 44 [0 0 0 0] ------- [12:255 -1:255 1 0] [0x1 1 [12 10] 12.000000] (HELLO)
r 8.412409667 _11_ RTR  --- 0 AODV 44 [0 ffffffff c 0] ------- [12:255 -1:255 1 0] [0x1 1 [12 10] 12.000000] (HELLO)
r 8.412409667 _7_ RTR  --- 0 AODV 44 [0 ffffffff c 0] ------- [12:255 -1:255 1 0] [0x1 1 [12 10] 12.000000] (HELLO)
r 8.412409667 _13_ RTR  --- 0 AODV 44 [0 ffffffff c 0] ------- [12:255 -1:255 1 0] [0x1 1 [12 10] 12.000000] (HELLO)
r 8.412409667 _17_ RTR  --- 0 AODV 44 [0 ffffffff c 0] ------- [12:255 -1:255 1 0] [0x1 1 [12 10] 12.000000] (HELLO)
s 8.417393801 _13_ RTR  --- 0 AODV 44 [0 0 0 0] ------- [13:255 -1:255 1 0] [0x1 1 [13 10] 12.000000] (HELLO)
s 8.427461096 _7_ RTR  --- 0 AODV 44 [0 0 0 0] ------- [7:255 -1:255 1 0] [0x1 1 [7 10] 12.000000] (HELLO)
r 8.448409667 _6_ RTR  --- 0 AODV 44 [0 ffffffff 7 0] ------- [7:255 -1:255 1 0] [0x1 1 [7 10] 12.000000] (HELLO)
r 8.448409667 _2_ RTR  --- 0 AODV 44 [0 ffffffff 7 0] ------- [7:255 -1:255 1 0] [0x1 1 [7 10] 12.000000] (HELLO)
r 8.448409667 _8_ RTR  --- 0 AODV 44 [0 ffffffff 7 0] ------- [7:255 -1:255 1 0] [0x1 1 [7 10] 12.000000] (HELLO)