s 5.000000000 _3_ AGT  --- 0 cbr 210 [0 0 0 0] ------- [3:0 4:0 32 0] [0] 0 0
s 5.056000000 _3_ AGT  --- 1 cbr 210 [0 0 0 0] ------- [3:0 4:0 32 0] [1] 0 0
r 5.059153400 _4_ AGT  --- 0 cbr 230 [5 4 3 0] ------- [3:0 4:0 30 4] [0] 1 0
r 5.101153400 _4_ AGT  --- 1 cbr 230 [5 4 3 0] ------- [3:0 4:0 30 4] [1] 1 0
s 5.112000000 _3_ AGT  --- 2 cbr 210 [0 0 0 0] ------- [3:0 4:0 32 0] [2] 0 0
r 5.143153400 _4_ AGT  --- 2 cbr 230 [5 4 3 0] ------- [3:0 4:0 30 4] [2] 1 0
s 5.168000000 _3_ AGT  --- 3 cbr 210 [0 0 0 0] ------- [3:0 4:0 32 0] [3] 0 0
r 5.185153400 _4_ AGT  --- 3 cbr 230 [5 4 3 0] ------- [3:0 4:0 30 4] [3] 1 0
s 5.224000000 _3_ AGT  --- 4 cbr 210 [0 0 0 0] ------- [3:0 4:0 32 0] [4] 0 0
r 5.227153400 _4_ AGT  --- 4 cbr 230 [5 4 3 0] ------- [3:0 4:0 30 4] [4] 1 0
s 5.280000000 _3_ AGT  --- 5 cbr 210 [0 0 0 0] ------- [3:0 4:0 32 0] [5] 0 0
r 5.311153400 _4_ AGT  --- 5 cbr 230 [5 4 3 0] ------- [3:0 4:0 30 4] [5] 1 0
s 5.336000000 _3_ AGT  --- 6 cbr 210 [0 0 0 0] ------- [3:0 4:0 32 0] [6] 0 0
r 5.353153400 _4_ AGT  --- 6 cbr 230 [5 4 3 0] ------- [3:0 4:0 30 4] [6] 1 0
s 5.392000000 _3_ AGT  --- 7 cbr 210 [0 0 0 0] ------- [3:0 4:0 32 0] [7] 0 0
r 5.395153400 _4_ AGT  --- 7 cbr 230 [5 4 3 0] ------- [3:0 4:0 30 4] [7] 1 0
s 5.448000000 _3_ AGT  --- 8 cbr 210 [0 0 0 0] ------- [3:0 4:0 32 0] [8] 0 0
r 5.479153400 _4_ AGT  --- 8 cbr 230 [5 4 3 0] ------- [3:0 4:0 30 4] [8] 1 0
s 5.504000000 _3_ AGT  --- 9 cbr 210 [0 0 0 0] ------- [3:0 4:0 32 0] [9] 0 0
r 5.521153400 _4_ AGT  --- 9 cbr 230 [5 4 3 0] ------- [3:0 4:0 30 4] [9] 1 0
s 5.560000000 _3_ AGT  --- 10 cbr 210 [0 0 0 0] ------- [3:0 4:0 32 0] [10] 0 0
r 5.563153400 _4_ AGT  --- 10 cbr 230 [5 4 3 0] ------- [3:0 4:0 30 4] [10] 1 0
s 5.616000000 _3_ AGT  --- 11 cbr 210 [0 0 0 0] ------- [3:0 4:0 32 0] [11] 0 0
r 5.647153400 _4_ AGT  --- 11 cbr 230 [5 4 3 0] ------- [3:0 4:0 30 4] [11] 1 0
s 5.672000000 _3_ AGT  --- 12 cbr 210 [0 0 0 0] ------- [3:0 4:0 32 0] [12] 0 0
r 5.689153400 _4_ AGT  --- 12 cbr 230 [5 4 3 0] ------- [3:0 4:0 30 4] [12] 1 0
s 5.728000000 _3_ AGT  --- 13 cbr 210 [0 0 0 0] ------- [3:0 4:0 32 0] [13] 0 0
r 5.731153400 _4_ AGT  --- 13 cbr 230 [5 4 3 0] ------- [3:0 4:0 30 4] [13] 1 0
s 5.784000000 _3_ AGT  --- 14 cbr 210 [0 0 0 0] ------- [3:0 4:0 32 0] [14] 0 0
r 5.815153400 _4_ AGT  --- 14 cbr 230 [5 4 3 0] ------- [3:0 4:0 30 4] [14] 1 0
s 5.840000000 _3_ AGT  --- 15 cbr 210 [0 0 0 0] ------- [3:0 4:0 32 0] [15] 0 0
r 5.857153400 _4_ AGT  --- 15 cbr 230 [5 4 3 0] ------- [3:0 4:0 30 4] [15] 1 0
s 5.896000000 _3_ AGT  --- 16 cbr 210 [0 0 0 0] ------- [3:0 4:0 32 0] [16] 0 0
r 5.899153400 _4_ AGT  --- 16 cbr 230 [5 4 3 0] ------- [3:0 4:0 30 4] [16] 1 0
s 5.952000000 _3_ AGT  --- 17 cbr 210 [0 0 0 0] ------- [3:0 4:0 32 0] [17] 0 0
r 5.983153400 _4_ AGT  --- 17 cbr 230 [5 4 3 0] ------- [3:0 4:0 30 4] [17] 1 0
s 6.008000000 _3_ AGT  --- 18 cbr 210 [0 0 0 0] ------- [3:0 4:0 32 0] [18] 0 0
r 6.025153400 _4_ AGT  --- 18 cbr 230 [5 4 3 0] ------- [3:0 4:0 30 4] [18] 1 0
s 6.064000000 _3_ AGT  --- 19 cbr 210 [0 0 0 0] ------- [3:0 4:0 32 0] [19] 0 0
r 6.067153400 _4_ AGT  --- 19 cbr 230 [5 4 3 0] ------- [3:0 4:0 30 4] [19] 1 0
s 6.120000000 _3_ AGT  --- 20 cbr 210 [0 0 0 0] ------- [3:0 4:0 32 0] [20] 0 0
r 6.151153400 _4_ AGT  --- 20 cbr 230 [5 4 3 0] ------- [3:0 4:0 30 4] [20] 1 0
s 6.176000000 _3_ AGT  --- 21 cbr 210 [0 0 0 0] ------- [3:0 4:0 32 0] [21] 0 0
r 6.193153400 _4_ AGT  --- 21 cbr 230 [5 4 3 0] ------- [3:0 4:0 30 4] [21] 1 0
s 6.232000000 _3_ AGT  --- 22 cbr 210 [0 0 0 0] ------- [3:0 4:0 32 0] [22] 0 0
r 6.235153400 _4_ AGT  --- 22 cbr 230 [5 4 3 0] ------- [3:0 4:0 30 4] [22] 1 0
s 6.288000000 _3_ AGT  --- 23 cbr 210 [0 0 0 0] ------- [3:0 4:0 32 0] [23] 0 0
r 6.319153400 _4_ AGT  --- 23 cbr 230 [5 4 3 0] ------- [3:0 4:0 30 4] [23] 1 0
s 6.344000000 _3_ AGT  --- 24 cbr 210 [0 0 0 0] ------- [3:0 4:0 32 0] [24] 0 0
r 6.361153400 _4_ AGT  --- 24 cbr 230 [5 4 3 0] ------- [3:0 4:0 30 4] [24] 1 0
s 6.400000000 _3_ AGT  --- 25 cbr 210 [0 0 0 0] ------- [3:0 4:0 32 0] [25] 0 0
r 6.403153400 _4_ AGT  --- 25 cbr 230 [5 4 3 0] ------- [3:0 4:0 30 4] [25] 1 0
s 6.456000000 _3_ AGT  --- 26 cbr 210 [0 0 0 0] ------- [3:0 4:0 32 0] [26] 0 0
r 6.487153400 _4_ AGT  --- 26 cbr 230 [5 4 3 0] ------- [3:0 4:0 30 4] [26] 1 0
s 6.512000000 _3_ AGT  --- 27 cbr 210 [0 0 0 0] ------- [3:0 4:0 32 0] [27] 0 0
r 6.529153400 _4_ AGT  --- 27 cbr 230 [5 4 3 0] ------- [3:0 4:0 30 4] [27] 1 0
s 6.568000000 _3_ AGT  --- 28 cbr 210 [0 0 0 0] ------- [3:0 4:0 32 0] [28] 0 0
r 6.571153400 _4_ AGT  --- 28 cbr 230 [5 4 3 0] ------- [3:0 4:0 30 4] [28] 1 0
s 6.624000000 _3_ AGT  --- 29 cbr 210 [0 0 0 0] ------- [3:0 4:0 32 0] [29] 0 0
r 6.655153400 _4_ AGT  --- 29 cbr 230 [5 4 3 0] ------- [3:0 4:0 30 4] [29] 1 0
s 6.680000000 _3_ AGT  --- 30 cbr 210 [0 0 0 0] ------- [3:0 4:0 32 0] [30] 0 0
r 6.697153400 _4_ AGT  --- 30 cbr 230 [5 4 3 0] ------- [3:0 4:0 30 4] [30] 1 0
s 6.736000000 _3_ AGT  --- 31 cbr 210 [0 0 0 0] ------- [3:0 4:0 32 0] [31] 0 0
r 6.739153400 _4_ AGT  --- 31 cbr 230 [5 4 3 0] ------- [3:0 4:0 30 4] [31] 1 0
s 6.792000000 _3_ AGT  --- 32 cbr 210 [0 0 0 0] ------- [3:0 4:0 32 0] [32] 0 0
r 6.823153400 _4_ AGT  --- 32 cbr 230 [5 4 3 0] ------- [3:0 4:0 30 4] [32] 1 0
s 6.848000000 _3_ AGT  --- 33 cbr 210 [0 0 0 0] ------- [3:0 4:0 32 0] [33] 0 0
r 6.865153400 _4_ AGT  --- 33 cbr 230 [5 4 3 0] ------- [3:0 4:0 30 4] [33] 1 0
s 6.904000000 _3_ AGT  --- 34 cbr 210 [0 0 0 0] ------- [3:0 4:0 32 0] [34] 0 0
r 6.907153400 _4_ AGT  --- 34 cbr 230 [5 4 3 0] ------- [3:0 4:0 30 4] [34] 1 0
s 6.960000000 _3_ AGT  --- 35 cbr 210 [0 0 0 0] ------- [3:0 4:0 32 0] [35] 0 0
r 6.991153400 _4_ AGT  --- 35 cbr 230 [5 4 3 0] ------- [3:0 4:0 30 4] [35] 1 0
s 7.016000000 _3_ AGT  --- 36 cbr 210 [0 0 0 0] ------- [3:0 4:0 32 0] [36] 0 0
r 7.033153400 _4_ AGT  --- 36 cbr 230 [5 4 3 0] ------- [3:0 4:0 30 4] [36] 1 0
s 7.072000000 _3_ AGT  --- 37 cbr 210 [0 0 0 0] ------- [3:0 4:0 32 0] [37] 0 0
r 7.075153400 _4_ AGT  --- 37 cbr 230 [5 4 3 0] ------- [3:0 4:0 30 4] [37] 1 0
s 7.128000000 _3_ AGT  --- 38 cbr 210 [0 0 0 0] ------- [3:0 4:0 32 0] [38] 0 0
r 7.159153400 _4_ AGT  --- 38 cbr 230 [5 4 3 0] ------- [3:0 4:0 30 4] [38] 1 0
s 7.184000000 _3_ AGT  --- 39 cbr 210 [0 0 0 0] ------- [3:0 4:0 32 0] [39] 0 0
r 7.201153400 _4_ AGT  --- 39 cbr 230 [5 4 3 0] ------- [3:0 4:0 30 4] [39] 1 0
s 7.240000000 _3_ AGT  --- 40 cbr 210 [0 0 0 0] ------- [3:0 4:0 32 0] [40] 0 0
r 7.243153400 _4_ AGT  --- 40 cbr 230 [5 4 3 0] ------- [3:0 4:0 30 4] [40] 1 0
s 7.296000000 _3_ AGT  --- 41 cbr 210 [0 0 0 0] ------- [3:0 4:0 32 0] [41] 0 0
r 7.327153400 _4_ AGT  --- 41 cbr 230 [5 4 3 0] ------- [3:0 4:0 30 4] [41] 1 0
s 7.352000000 _3_ AGT  --- 42 cbr 210 [0 0 0 0] ------- [3:0 4:0 32 0] [42] 0 0
r 7.369153400 _4_ AGT  --- 42 cbr 230 [5 4 3 0] ------- [3:0 4:0 30 4] [42] 1 0
s 7.408000000 _3_ AGT  --- 43 cbr 210 [0 0 0 0] ------- [3:0 4:0 32 0] [43] 0 0
r 7.411153400 _4_ AGT  --- 43 cbr 230 [5 4 3 0] ------- [3:0 4:0 30 4] [43] 1 0
s 7.464000000 _3_ AGT  --- 44 cbr 210 [0 0 0 0] ------- [3:0 4:0 32 0] [44] 0 0
r 7.495153400 _4_ AGT  --- 44 cbr 230 [5 4 3 0] ------- [3:0 4:0 30 4] [44] 1 0
s 7.520000000 _3_ AGT  --- 45 cbr 210 [0 0 0 0] ------- [3:0 4:0 32 0] [45] 0 0
r 7.537153400 _4_ AGT  --- 45 cbr 230 [5 4 3 0] ------- [3:0 4:0 30 4] [45] 1 0
s 7.576000000 _3_ AGT  --- 46 cbr 210 [0 0 0 0] ------- [3:0 4:0 32 0] [46] 0 0
r 7.579153400 _4_ AGT  --- 46 cbr 230 [5 4 3 0] ------- [3:0 4:0 30 4] [46] 1 0
s 7.632000000 _3_ AGT  --- 47 cbr 210 [0 0 0 0] ------- [3:0 4:0 32 0] [47] 0 0
r 7.663153400 _4_ AGT  --- 47 cbr 230 [5 4 3 0] ------- [3:0 4:0 30 4] [47] 1 0
s 7.688000000 _3_ AGT  --- 48 cbr 210 [0 0 0 0] ------- [3:0 4:0 32 0] [48] 0 0
r 7.705153400 _4_ AGT  --- 48 cbr 230 [5 4 3 0] ------- [3:0 4:0 30 4] [48] 1 0
s 7.744000000 _3_ AGT  --- 49 cbr 210 [0 0 0 0] ------- [3:0 4:0 32 0] [49] 0 0
r 7.747153400 _4_ AGT  --- 49 cbr 230 [5 4 3 0] ------- [3:0 4:0 30 4] [49] 1 0
s 7.800000000 _3_ AGT  --- 50 cbr 210 [0 0 0 0] ------- [3:0 4:0 32 0] [50] 0 0
r 7.831153400 _4_ AGT  --- 50 cbr 230 [5 4 3 0] ------- [3:0 4:0 30 4] [50] 1 0
s 7.856000000 _3_ AGT  --- 51 cbr 210 [0 0 0 0] ------- [3:0 4:0 32 0] [51] 0 0
r 7.873153400 _4_ AGT  --- 51 cbr 230 [5 4 3 0] ------- [3:0 4:0 30 4] [51] 1 0
s 7.912000000 _3_ AGT  --- 52 cbr 210 [0 0 0 0] ------- [3:0 4:0 32 0] [52] 0 0
r 7.915153400 _4_ AGT  --- 52 cbr 230 [5 4 3 0] ------- [3:0 4:0 30 4] [52] 1 0
s 7.968000000 _3_ AGT  --- 53 cbr 210 [0 0 0 0] ------- [3:0 4:0 32 0] [53] 0 0
r 7.999153400 _4_ AGT  --- 53 cbr 230 [5 4 3 0] ------- [3:0 4:0 30 4] [53] 1 0
s 8.024000000 _3_ AGT  --- 54 cbr 210 [0 0 0 0] ------- [3:0 4:0 32 0] [54] 0 0
r 8.041153400 _4_ AGT  --- 54 cbr 230 [5 4 3 0] ------- [3:0 4:0 30 4] [54] 1 0
s 8.080000000 _3_ AGT  --- 55 cbr 210 [0 0 0 0] ------- [3:0 4:0 32 0] [55] 0 0
r 8.083153400 _4_ AGT  --- 55 cbr 230 [5 4 3 0] ------- [3:0 4:0 30 4] [55] 1 0
s 8.136000000 _3_ AGT  --- 56 cbr 210 [0 0 0 0] ------- [3:0 4:0 32 0] [56] 0 0
r 8.167153400 _4_ AGT  --- 56 cbr 230 [5 4 3 0] ------- [3:0 4:0 30 4] [56] 1 0
s 8.192000000 _3_ AGT  --- 57 cbr 210 [0 0 0 0] ------- [3:0 4:0 32 0] [57] 0 0
r 8.209153400 _4_ AGT  --- 57 cbr 230 [5 4 3 0] ------- [3:0 4:0 30 4] [57] 1 0
s 8.248000000 _3_ AGT  --- 58 cbr 210 [0 0 0 0] ------- [3:0 4:0 32 0] [58] 0 0
r 8.251153400 _4_ AGT  --- 58 cbr 230 [5 4 3 0] ------- [3:0 4:0 30 4] [58] 1 0
s 8.304000000 _3_ AGT  --- 59 cbr 210 [0 0 0 0] ------- [3:0 4:0 32 0] [59] 0 0
r 8.335153400 _4_ AGT  --- 59 cbr 230 [5 4 3 0] ------- [3:0 4:0 30 4] [59] 1 0
s 8.360000000 _3_ AGT  --- 60 cbr 210 [0 0 0 0] ------- [3:0 4:0 32 0] [60] 0 0
r 8.377153400 _4_ AGT  --- 60 cbr 230 [5 4 3 0] ------- [3:0 4:0 30 4] [60] 1 0
s 8.416000000 _3_ AGT  --- 61 cbr 210 [0 0 0 0] ------- [3:0 4:0 32 0] [61] 0 0
r 8.419153400 _4_ AGT  --- 61 cbr 230 [5 4 3 0] ------- [3:0 4:0 30 4] [61] 1 0
s 8.472000000 _3_ AGT  --- 62 cbr 210 [0 0 0 0] ------- [3:0 4:0 32 0] [62] 0 0
r 8.503153400 _4_ AGT  --- 62 cbr 230 [5 4 3 0] ------- [3:0 4:0 30 4] [62] 1 0
s 8.528000000 _3_ AGT  --- 63 cbr 210 [0 0 0 0] ------- [3:0 4:0 32 0] [63] 0 0
r 8.545153400 _4_ AGT  --- 63 cbr 230 [5 4 3 0] ------- [3:0 4:0 30 4] [63] 1 0
s 8.584000000 _3_ AGT  --- 64 cbr 210 [0 0 0 0] ------- [3:0 4:0 32 0] [64] 0 0
r 8.587153400 _4_ AGT  --- 64 cbr 230 [5 4 3 0] ------- [3:0 4:0 30 4] [64] 1 0
s 8.640000000 _3_ AGT  --- 65 cbr 210 [0 0 0 0] ------- [3:0 4:0 32 0] [65] 0 0
r 8.671153400 _4_ AGT  --- 65 cbr 230 [5 4 3 0] ------- [3:0 4:0 30 4] [65] 1 0
s 8.696000000 _3_ AGT  --- 66 cbr 210 [0 0 0 0] ------- [3:0 4:0 32 0] [66] 0 0
r 8.713153400 _4_ AGT  --- 66 cbr 230 [5 4 3 0] ------- [3:0 4:0 30 4] [66] 1 0
s 8.752000000 _3_ AGT  --- 67 cbr 210 [0 0 0 0] ------- [3:0 4:0 32 0] [67] 0 0
r 8.755153400 _4_ AGT  --- 67 cbr 230 [5 4 3 0] ------- [3:0 4:0 30 4] [67] 1 0
s 8.808000000 _3_ AGT  --- 68 cbr 210 [0 0 0 0] ------- [3:0 4:0 32 0] [68] 0 0
r 8.839153400 _4_ AGT  --- 68 cbr 230 [5 4 3 0] ------- [3:0 4:0 30 4] [68] 1 0
s 8.864000000 _3_ AGT  --- 69 cbr 210 [0 0 0 0] ------- [3:0 4:0 32 0] [69] 0 0
r 8.881153400 _4_ AGT  --- 69 cbr 230 [5 4 3 0] ------- [3:0 4:0 30 4] [69] 1 0
s 8.920000000 _3_ AGT  --- 70 cbr 210 [0 0 0 0] ------- [3:0 4:0 32 0] [70] 0 0
r 8.923153400 _4_ AGT  --- 70 cbr 230 [5 4 3 0] ------- [3:0 4:0 30 4] [70] 1 0
s 8.976000000 _3_ AGT  --- 71 cbr 210 [0 0 0 0] ------- [3:0 4:0 32 0] [71] 0 0
r 9.007153400 _4_ AGT  --- 71 cbr 230 [5 4 3 0] ------- [3:0 4:0 30 4] [71] 1 0
s 9.032000000 _3_ AGT  --- 72 cbr 210 [0 0 0 0] ------- [3:0 4:0 32 0] [72] 0 0
r 9.049153400 _4_ AGT  --- 72 cbr 230 [5 4 3 0] ------- [3:0 4:0 30 4] [72] 1 0
s 9.088000000 _3_ AGT  --- 73 cbr 210 [0 0 0 0] ------- [3:0 4:0 32 0] [73] 0 0
r 9.091153400 _4_ AGT  --- 73 cbr 230 [5 4 3 0] ------- [3:0 4:0 30 4] [73] 1 0
s 9.144000000 _3_ AGT  --- 74 cbr 210 [0 0 0 0] ------- [3:0 4:0 32 0] [74] 0 0
r 9.175153400 _4_ AGT  --- 74 cbr 230 [5 4 3 0] ------- [3:0 4:0 30 4] [74] 1 0
s 9.200000000 _3_ AGT  --- 75 cbr 210 [0 0 0 0] ------- [3:0 4:0 32 0] [75] 0 0
r 9.217153400 _4_ AGT  --- 75 cbr 230 [5 4 3 0] ------- [3:0 4:0 30 4] [75] 1 0
s 9.256000000 _3_ AGT  --- 76 cbr 210 [0 0 0 0] ------- [3:0 4:0 32 0] [76] 0 0
r 9.259153400 _4_ AGT  --- 76 cbr 230 [5 4 3 0] ------- [3:0 4:0 30 4] [76] 1 0
s 9.312000000 _3_ AGT  --- 77 cbr 210 [0 0 0 0] ------- [3:0 4:0 32 0] [77] 0 0
r 9.343153400 _4_ AGT  --- 77 cbr 230 [5 4 3 0] ------- [3:0 4:0 30 4] [77] 1 0
s 9.368000000 _3_ AGT  --- 78 cbr 210 [0 0 0 0] ------- [3:0 4:0 32 0] [78] 0 0
r 9.385153400 _4_ AGT  --- 78 cbr 230 [5 4 3 0] ------- [3:0 4:0 30 4] [78] 1 0
s 9.424000000 _3_ AGT  --- 79 cbr 210 [0 0 0 0] ------- [3:0 4:0 32 0] [79] 0 0
r 9.427153400 _4_ AGT  --- 79 cbr 230 [5 4 3 0] ------- [3:0 4:0 30 4] [79] 1 0
s 9.480000000 _3_ AGT  --- 80 cbr 210 [0 0 0 0] ------- [3:0 4:0 32 0] [80] 0 0
r 9.511153400 _4_ AGT  --- 80 cbr 230 [5 4 3 0] ------- [3:0 4:0 30 4] [80] 1 0
s 9.536000000 _3_ AGT  --- 81 cbr 210 [0 0 0 0] ------- [3:0 4:0 32 0] [81] 0 0
r 9.553153400 _4_ AGT  --- 81 cbr 230 [5 4 3 0] ------- [3:0 4:0 30 4] [81] 1 0
s 9.592000000 _3_ AGT  --- 82 cbr 210 [0 0 0 0] ------- [3:0 4:0 32 0] [82] 0 0
r 9.595153400 _4_ AGT  --- 82 cbr 230 [5 4 3 0] ------- [3:0 4:0 30 4] [82] 1 0
s 9.648000000 _3_ AGT  --- 83 cbr 210 [0 0 0 0] ------- [3:0 4:0 32 0] [83] 0 0
r 9.679153400 _4_ AGT  --- 83 cbr 230 [5 4 3 0] ------- [3:0 4:0 30 4] [83] 1 0
s 9.704000000 _3_ AGT  --- 84 cbr 210 [0 0 0 0] ------- [3:0 4:0 32 0] [84] 0 0
r 9.721153400 _4_ AGT  --- 84 cbr 230 [5 4 3 0] ------- [3:0 4:0 30 4] [84] 1 0
s 9.760000000 _3_ AGT  --- 85 cbr 210 [0 0 0 0] ------- [3:0 4:0 32 0] [85] 0 0
r 9.763153400 _4_ AGT  --- 85 cbr 230 [5 4 3 0] ------- [3:0 4:0 30 4] [85] 1 0
s 9.816000000 _3_ AGT  --- 86 cbr 210 [0 0 0 0] ------- [3:0 4:0 32 0] [86] 0 0
r 9.847153400 _4_ AGT  --- 86 cbr 230 [5 4 3 0] ------- [3:0 4:0 30 4] [86] 1 0
s 9.872000000 _3_ AGT  --- 87 cbr 210 [0 0 0 0] ------- [3:0 4:0 32 0] [87] 0 0
r 9.889153400 _4_ AGT  --- 87 cbr 230 [5 4 3 0] ------- [3:0 4:0 30 4] [87] 1 0
s 9.928000000 _3_ AGT  --- 88 cbr 210 [0 0 0 0] ------- [3:0 4:0 32 0] [88] 0 0
r 9.931153400 _4_ AGT  --- 88 cbr 230 [5 4 3 0] ------- [3:0 4:0 30 4] [88] 1 0
s 9.984000000 _3_ AGT  --- 89 cbr 210 [0 0 0 0] ------- [3:0 4:0 32 0] [89] 0 0
