n -t * -s 0  -x 200 -y 800 -Z 0 -z 10  -v circle -c black
n -t * -s 1  -x 200 -y 570 -Z 0 -z 10  -v circle -c black
n -t * -s 2  -x 200 -y 340 -Z 0 -z 10  -v circle -c black
n -t * -s 3  -x 430 -y 630 -Z 0 -z 10  -v circle -c black
n -t * -s 4  -x 550 -y 630 -Z 0 -z 10  -v circle -c black
n -t * -s 5  -x 200 -y 110 -Z 0 -z 10  -v circle -c black
V -t * -v 1.0a5 -a 0
W -t * -x 1000 -y 1000
A -t * -n 1 -p 0 -o 0x7fffffff -c 30 -a 1
A -t * -h 1 -m 1073741823 -s 0
+ -t 0.000000000 -s 0 -d -1 -p AODV -e 44 -c 2 -a 0 -i 0 -k RTR 
- -t 0.000000000 -s 0 -d -1 -p AODV -e 44 -c 2 -a 0 -i 0 -k RTR
h -t 0.000000000 -s 0 -d -1 -p AODV -e 44 -c 2 -a 0 -i 0 -k RTR
+ -t 0.000000000 -s 1 -d -1 -p AODV -e 44 -c 2 -a 0 -i 0 -k RTR 
- -t 0.000000000 -s 1 -d -1 -p AODV -e 44 -c 2 -a 0 -i 0 -k RTR
h -t 0.000000000 -s 1 -d -1 -p AODV -e 44 -c 2 -a 0 -i 0 -k RTR
+ -t 0.000000000 -s 2 -d -1 -p AODV -e 44 -c 2 -a 0 -i 0 -k RTR 
- -t 0.000000000 -s 2 -d -1 -p AODV -e 44 -c 2 -a 0 -i 0 -k RTR
h -t 0.000000000 -s 2 -d -1 -p AODV -e 44 -c 2 -a 0 -i 0 -k RTR
+ -t 0.000000000 -s 3 -d -1 -p AODV -e 44 -c 2 -a 0 -i 0 -k RTR 
- -t 0.000000000 -s 3 -d -1 -p AODV -e 44 -c 2 -a 0 -i 0 -k RTR
h -t 0.000000000 -s 3 -d -1 -p AODV -e 44 -c 2 -a 0 -i 0 -k RTR
+ -t 0.000000000 -s 4 -d -1 -p AODV -e 44 -c 2 -a 0 -i 0 -k RTR 
- -t 0.000000000 -s 4 -d -1 -p AODV -e 44 -c 2 -a 0 -i 0 -k RTR
h -t 0.000000000 -s 4 -d -1 -p AODV -e 44 -c 2 -a 0 -i 0 -k RTR
+ -t 0.000000000 -s 5 -d -1 -p AODV -e 44 -c 2 -a 0 -i 0 -k RTR 
- -t 0.000000000 -s 5 -d -1 -p AODV -e 44 -c 2 -a 0 -i 0 -k RTR
h -t 0.000000000 -s 5 -d -1 -p AODV -e 44 -c 2 -a 0 -i 0 -k RTR
+ -t 0.100000000 -s 0 -d -1 -p AODV -e 48 -c 2 -a 0 -i 0 -k RTR 
- -t 0.100000000 -s 0 -d -1 -p AODV -e 48 -c 2 -a 0 -i 0 -k RTR
h -t 0.100000000 -s 0 -d -1 -p AODV -e 48 -c 2 -a 0 -i 0 -k RTR
r -t 0.132425767 -s 1 -d -1 -p AODV -e 48 -c 2 -a 0 -i 0 -k RTR
+ -t 0.135555384 -s 1 -d -1 -p AODV -e 48 -c 2 -a 0 -i 0 -k RTR 
- -t 0.135555384 -s 1 -d -1 -p AODV -e 48 -c 2 -a 0 -i 0 -k RTR
h -t 0.135555384 -s 1 -d -1 -p AODV -e 48 -c 2 -a 0 -i 0 -k RTR
r -t 0.138425767 -s 0 -d -1 -p AODV -e 48 -c 2 -a 0 -i 0 -k RTR
r -t 0.138425767 -s 2 -d -1 -p AODV -e 48 -c 2 -a 0 -i 0 -k RTR
r -t 0.138425792 -s 3 -d -1 -p AODV -e 48 -c 2 -a 0 -i 0 -k RTR
+ -t 0.140771810 -s 3 -d -1 -p AODV -e 48 -c 2 -a 0 -i 0 -k RTR 
- -t 0.140771810 -s 3 -d -1 -p AODV -e 48 -c 2 -a 0 -i 0 -k RTR
h -t 0.140771810 -s 3 -d -1 -p AODV -e 48 -c 2 -a 0 -i 0 -k RTR
+ -t 0.146590527 -s 2 -d -1 -p AODV -e 48 -c 2 -a 0 -i 0 -k RTR 
- -t 0.146590527 -s 2 -d -1 -p AODV -e 48 -c 2 -a 0 -i 0 -k RTR
h -t 0.146590527 -s 2 -d -1 -p AODV -e 48 -c 2 -a 0 -i 0 -k RTR
r -t 0.174425400 -s 4 -d -1 -p AODV -e 48 -c 2 -a 0 -i 0 -k RTR
r -t 0.174425767 -s 1 -d -1 -p AODV -e 48 -c 2 -a 0 -i 0 -k RTR
r -t 0.174425767 -s 5 -d -1 -p AODV -e 48 -c 2 -a 0 -i 0 -k RTR
+ -t 0.174425767 -s 5 -d 2 -p AODV -e 44 -c 2 -a 0 -i 0 -k RTR 
- -t 0.174425767 -s 5 -d 2 -p AODV -e 44 -c 2 -a 0 -i 0 -k RTR
h -t 0.174425767 -s 5 -d 2 -p AODV -e 44 -c 2 -a 0 -i 0 -k RTR
+ -t 0.180814051 -s 4 -d -1 -p AODV -e 48 -c 2 -a 0 -i 0 -k RTR 
- -t 0.180814051 -s 4 -d -1 -p AODV -e 48 -c 2 -a 0 -i 0 -k RTR
h -t 0.180814051 -s 4 -d -1 -p AODV -e 48 -c 2 -a 0 -i 0 -k RTR
r -t 0.216425400 -s 3 -d -1 -p AODV -e 48 -c 2 -a 0 -i 0 -k RTR
+ -t 0.222409767 -s 2 -d 1 -p AODV -e 44 -c 2 -a 0 -i 0 -k RTR 
- -t 0.222409767 -s 2 -d 1 -p AODV -e 44 -c 2 -a 0 -i 0 -k RTR
h -t 0.222409767 -s 2 -d 1 -p AODV -e 44 -c 2 -a 0 -i 0 -k RTR
+ -t 0.264409767 -s 1 -d 0 -p AODV -e 44 -c 2 -a 0 -i 0 -k RTR 
- -t 0.264409767 -s 1 -d 0 -p AODV -e 44 -c 2 -a 0 -i 0 -k RTR
h -t 0.264409767 -s 1 -d 0 -p AODV -e 44 -c 2 -a 0 -i 0 -k RTR
+ -t 0.750169789 -s 0 -d -1 -p AODV -e 44 -c 2 -a 0 -i 0 -k RTR 
- -t 0.750169789 -s 0 -d -1 -p AODV -e 44 -c 2 -a 0 -i 0 -k RTR
h -t 0.750169789 -s 0 -d -1 -p AODV -e 44 -c 2 -a 0 -i 0 -k RTR
+ -t 0.757102330 -s 2 -d -1 -p AODV -e 44 -c 2 -a 0 -i 0 -k RTR 
- -t 0.757102330 -s 2 -d -1 -p AODV -e 44 -c 2 -a 0 -i 0 -k RTR
h -t 0.757102330 -s 2 -d -1 -p AODV -e 44 -c 2 -a 0 -i 0 -k RTR
r -t 0.762409767 -s 1 -d -1 -p AODV -e 44 -c 2 -a 0 -i 0 -k RTR
r -t 0.762409767 -s 5 -d -1 -p AODV -e 44 -c 2 -a 0 -i 0 -k RTR
+ -t 0.794061336 -s 3 -d -1 -p AODV -e 44 -c 2 -a 0 -i 0 -k RTR 
- -t 0.794061336 -s 3 -d -1 -p AODV -e 44 -c 2 -a 0 -i 0 -k RTR
h -t 0.794061336 -s 3 -d -1 -p AODV -e 44 -c 2 -a 0 -i 0 -k RTR
r -t 0.804409400 -s 4 -d -1 -p AODV -e 44 -c 2 -a 0 -i 0 -k RTR
r -t 0.804409792 -s 1 -d -1 -p AODV -e 44 -c 2 -a 0 -i 0 -k RTR
+ -t 0.970586691 -s 4 -d -1 -p AODV -e 44 -c 2 -a 0 -i 0 -k RTR 
- -t 0.970586691 -s 4 -d -1 -p AODV -e 44 -c 2 -a 0 -i 0 -k RTR
h -t 0.970586691 -s 4 -d -1 -p AODV -e 44 -c 2 -a 0 -i 0 -k RTR
r -t 0.972409400 -s 3 -d -1 -p AODV -e 44 -c 2 -a 0 -i 0 -k RTR
+ -t 1.027940358 -s 1 -d -1 -p AODV -e 44 -c 2 -a 0 -i 0 -k RTR 
- -t 1.027940358 -s 1 -d -1 -p AODV -e 44 -c 2 -a 0 -i 0 -k RTR
h -t 1.027940358 -s 1 -d -1 -p AODV -e 44 -c 2 -a 0 -i 0 -k RTR
r -t 1.056409767 -s 0 -d -1 -p AODV -e 44 -c 2 -a 0 -i 0 -k RTR
r -t 1.056409767 -s 2 -d -1 -p AODV -e 44 -c 2 -a 0 -i 0 -k RTR
r -t 1.056409792 -s 3 -d -1 -p AODV -e 44 -c 2 -a 0 -i 0 -k RTR
+ -t 1.149577727 -s 5 -d -1 -p AODV -e 44 -c 2 -a 0 -i 0 -k RTR 
- -t 1.149577727 -s 5 -d -1 -p AODV -e 44 -c 2 -a 0 -i 0 -k RTR
h -t 1.149577727 -s 5 -d -1 -p AODV -e 44 -c 2 -a 0 -i 0 -k RTR
r -t 1.182409767 -s 2 -d -1 -p AODV -e 44 -c 2 -a 0 -i 0 -k RTR
+ -t 1.626134039 -s 3 -d -1 -p AODV -e 44 -c 2 -a 0 -i 0 -k RTR 
- -t 1.626134039 -s 3 -d -1 -p AODV -e 44 -c 2 -a 0 -i 0 -k RTR
h -t 1.626134039 -s 3 -d -1 -p AODV -e 44 -c 2 -a 0 -i 0 -k RTR
r -t 1.644409400 -s 4 -d -1 -p AODV -e 44 -c 2 -a 0 -i 0 -k RTR
r -t 1.644409792 -s 1 -d -1 -p AODV -e 44 -c 2 -a 0 -i 0 -k RTR
+ -t 1.654709318 -s 0 -d -1 -p AODV -e 44 -c 2 -a 0 -i 0 -k RTR 
- -t 1.654709318 -s 0 -d -1 -p AODV -e 44 -c 2 -a 0 -i 0 -k RTR
h -t 1.654709318 -s 0 -d -1 -p AODV -e 44 -c 2 -a 0 -i 0 -k RTR
r -t 1.686409767 -s 1 -d -1 -p AODV -e 44 -c 2 -a 0 -i 0 -k RTR
+ -t 1.741983970 -s 4 -d -1 -p AODV -e 44 -c 2 -a 0 -i 0 -k RTR 
- -t 1.741983970 -s 4 -d -1 -p AODV -e 44 -c 2 -a 0 -i 0 -k RTR
h -t 1.741983970 -s 4 -d -1 -p AODV -e 44 -c 2 -a 0 -i 0 -k RTR
r -t 1.770409400 -s 3 -d -1 -p AODV -e 44 -c 2 -a 0 -i 0 -k RTR
+ -t 1.925264099 -s 2 -d -1 -p AODV -e 44 -c 2 -a 0 -i 0 -k RTR 
- -t 1.925264099 -s 2 -d -1 -p AODV -e 44 -c 2 -a 0 -i 0 -k RTR
h -t 1.925264099 -s 2 -d -1 -p AODV -e 44 -c 2 -a 0 -i 0 -k RTR
r -t 1.938409767 -s 1 -d -1 -p AODV -e 44 -c 2 -a 0 -i 0 -k RTR
r -t 1.938409767 -s 5 -d -1 -p AODV -e 44 -c 2 -a 0 -i 0 -k RTR
+ -t 1.948000000 -s 0 -d -1 -p AODV -e 48 -c 2 -a 0 -i 0 -k RTR 
- -t 1.948000000 -s 0 -d -1 -p AODV -e 48 -c 2 -a 0 -i 0 -k RTR
h -t 1.948000000 -s 0 -d -1 -p AODV -e 48 -c 2 -a 0 -i 0 -k RTR
+ -t 1.956481851 -s 5 -d -1 -p AODV -e 44 -c 2 -a 0 -i 0 -k RTR 
- -t 1.956481851 -s 5 -d -1 -p AODV -e 44 -c 2 -a 0 -i 0 -k RTR
h -t 1.956481851 -s 5 -d -1 -p AODV -e 44 -c 2 -a 0 -i 0 -k RTR
r -t 1.980409767 -s 2 -d -1 -p AODV -e 44 -c 2 -a 0 -i 0 -k RTR
r -t 1.980425767 -s 1 -d -1 -p AODV -e 48 -c 2 -a 0 -i 0 -k RTR
+ -t 1.983913177 -s 1 -d -1 -p AODV -e 48 -c 2 -a 0 -i 0 -k RTR 
- -t 1.983913177 -s 1 -d -1 -p AODV -e 48 -c 2 -a 0 -i 0 -k RTR
h -t 1.983913177 -s 1 -d -1 -p AODV -e 48 -c 2 -a 0 -i 0 -k RTR
r -t 1.986425767 -s 0 -d -1 -p AODV -e 48 -c 2 -a 0 -i 0 -k RTR
r -t 1.986425767 -s 2 -d -1 -p AODV -e 48 -c 2 -a 0 -i 0 -k RTR
r -t 1.986425792 -s 3 -d -1 -p AODV -e 48 -c 2 -a 0 -i 0 -k RTR
+ -t 1.989006646 -s 2 -d -1 -p AODV -e 48 -c 2 -a 0 -i 0 -k RTR 
- -t 1.989006646 -s 2 -d -1 -p AODV -e 48 -c 2 -a 0 -i 0 -k RTR
h -t 1.989006646 -s 2 -d -1 -p AODV -e 48 -c 2 -a 0 -i 0 -k RTR
+ -t 1.990512649 -s 3 -d -1 -p AODV -e 48 -c 2 -a 0 -i 0 -k RTR 
- -t 1.990512649 -s 3 -d -1 -p AODV -e 48 -c 2 -a 0 -i 0 -k RTR
h -t 1.990512649 -s 3 -d -1 -p AODV -e 48 -c 2 -a 0 -i 0 -k RTR
r -t 2.022425400 -s 4 -d -1 -p AODV -e 48 -c 2 -a 0 -i 0 -k RTR
r -t 2.022425767 -s 1 -d -1 -p AODV -e 48 -c 2 -a 0 -i 0 -k RTR
r -t 2.022425767 -s 5 -d -1 -p AODV -e 48 -c 2 -a 0 -i 0 -k RTR
+ -t 2.022425767 -s 5 -d 2 -p AODV -e 44 -c 2 -a 0 -i 0 -k RTR 
- -t 2.022425767 -s 5 -d 2 -p AODV -e 44 -c 2 -a 0 -i 0 -k RTR
h -t 2.022425767 -s 5 -d 2 -p AODV -e 44 -c 2 -a 0 -i 0 -k RTR
+ -t 2.027611888 -s 4 -d -1 -p AODV -e 48 -c 2 -a 0 -i 0 -k RTR 
- -t 2.027611888 -s 4 -d -1 -p AODV -e 48 -c 2 -a 0 -i 0 -k RTR
h -t 2.027611888 -s 4 -d -1 -p AODV -e 48 -c 2 -a 0 -i 0 -k RTR
+ -t 2.028409767 -s 2 -d 1 -p AODV -e 44 -c 2 -a 0 -i 0 -k RTR 
- -t 2.028409767 -s 2 -d 1 -p AODV -e 44 -c 2 -a 0 -i 0 -k RTR
h -t 2.028409767 -s 2 -d 1 -p AODV -e 44 -c 2 -a 0 -i 0 -k RTR
r -t 2.028425400 -s 3 -d -1 -p AODV -e 48 -c 2 -a 0 -i 0 -k RTR
+ -t 2.064409767 -s 1 -d 0 -p AODV -e 44 -c 2 -a 0 -i 0 -k RTR 
- -t 2.064409767 -s 1 -d 0 -p AODV -e 44 -c 2 -a 0 -i 0 -k RTR
h -t 2.064409767 -s 1 -d 0 -p AODV -e 44 -c 2 -a 0 -i 0 -k RTR
d -t 2.064409767 -s 1 -d 0 -p AODV -e 44 -c 2 -a 0 -i 0 -k IFQ
+ -t 2.097974188 -s 1 -d -1 -p AODV -e 44 -c 2 -a 0 -i 0 -k RTR 
- -t 2.097974188 -s 1 -d -1 -p AODV -e 44 -c 2 -a 0 -i 0 -k RTR
h -t 2.097974188 -s 1 -d -1 -p AODV -e 44 -c 2 -a 0 -i 0 -k RTR
r -t 2.106409767 -s 2 -d -1 -p AODV -e 44 -c 2 -a 0 -i 0 -k RTR
r -t 2.106409792 -s 3 -d -1 -p AODV -e 44 -c 2 -a 0 -i 0 -k RTR
+ -t 2.112409767 -s 0 -d 1 -p cbr -e 230 -c 2 -a 0 -i 0 -k RTR 
- -t 2.112409767 -s 0 -d 1 -p cbr -e 230 -c 2 -a 0 -i 0 -k RTR
h -t 2.112409767 -s 0 -d 1 -p cbr -e 230 -c 2 -a 0 -i 0 -k RTR
+ -t 2.116000000 -s 0 -d 1 -p cbr -e 230 -c 2 -a 0 -i 36 -k RTR 
- -t 2.116000000 -s 0 -d 1 -p cbr -e 230 -c 2 -a 0 -i 36 -k RTR
h -t 2.116000000 -s 0 -d 1 -p cbr -e 230 -c 2 -a 0 -i 36 -k RTR
+ -t 2.122409767 -s 0 -d 1 -p cbr -e 230 -c 2 -a 0 -i 1 -k RTR 
- -t 2.122409767 -s 0 -d 1 -p cbr -e 230 -c 2 -a 0 -i 1 -k RTR
h -t 2.122409767 -s 0 -d 1 -p cbr -e 230 -c 2 -a 0 -i 1 -k RTR
+ -t 2.131153767 -s 1 -d 2 -p cbr -e 230 -c 2 -a 0 -i 0 -k RTR 
- -t 2.131153767 -s 1 -d 2 -p cbr -e 230 -c 2 -a 0 -i 0 -k RTR
h -t 2.131153767 -s 1 -d 2 -p cbr -e 230 -c 2 -a 0 -i 0 -k RTR
+ -t 2.132409767 -s 0 -d 1 -p cbr -e 230 -c 2 -a 0 -i 2 -k RTR 
- -t 2.132409767 -s 0 -d 1 -p cbr -e 230 -c 2 -a 0 -i 2 -k RTR
h -t 2.132409767 -s 0 -d 1 -p cbr -e 230 -c 2 -a 0 -i 2 -k RTR
+ -t 2.137153767 -s 2 -d 5 -p cbr -e 230 -c 2 -a 0 -i 0 -k RTR 
- -t 2.137153767 -s 2 -d 5 -p cbr -e 230 -c 2 -a 0 -i 0 -k RTR
h -t 2.137153767 -s 2 -d 5 -p cbr -e 230 -c 2 -a 0 -i 0 -k RTR
+ -t 2.142409767 -s 0 -d 1 -p cbr -e 230 -c 2 -a 0 -i 3 -k RTR 
- -t 2.142409767 -s 0 -d 1 -p cbr -e 230 -c 2 -a 0 -i 3 -k RTR
h -t 2.142409767 -s 0 -d 1 -p cbr -e 230 -c 2 -a 0 -i 3 -k RTR
+ -t 2.152409767 -s 0 -d 1 -p cbr -e 230 -c 2 -a 0 -i 4 -k RTR 
- -t 2.152409767 -s 0 -d 1 -p cbr -e 230 -c 2 -a 0 -i 4 -k RTR
h -t 2.152409767 -s 0 -d 1 -p cbr -e 230 -c 2 -a 0 -i 4 -k RTR
+ -t 2.162409767 -s 0 -d 1 -p cbr -e 230 -c 2 -a 0 -i 5 -k RTR 
- -t 2.162409767 -s 0 -d 1 -p cbr -e 230 -c 2 -a 0 -i 5 -k RTR
h -t 2.162409767 -s 0 -d 1 -p cbr -e 230 -c 2 -a 0 -i 5 -k RTR
+ -t 2.172000000 -s 0 -d 1 -p cbr -e 230 -c 2 -a 0 -i 37 -k RTR 
- -t 2.172000000 -s 0 -d 1 -p cbr -e 230 -c 2 -a 0 -i 37 -k RTR
h -t 2.172000000 -s 0 -d 1 -p cbr -e 230 -c 2 -a 0 -i 37 -k RTR
+ -t 2.172409767 -s 0 -d 1 -p cbr -e 230 -c 2 -a 0 -i 6 -k RTR 
- -t 2.172409767 -s 0 -d 1 -p cbr -e 230 -c 2 -a 0 -i 6 -k RTR
h -t 2.172409767 -s 0 -d 1 -p cbr -e 230 -c 2 -a 0 -i 6 -k RTR
+ -t 2.173153767 -s 1 -d 2 -p cbr -e 230 -c 2 -a 0 -i 36 -k RTR 
- -t 2.173153767 -s 1 -d 2 -p cbr -e 230 -c 2 -a 0 -i 36 -k RTR
h -t 2.173153767 -s 1 -d 2 -p cbr -e 230 -c 2 -a 0 -i 36 -k RTR
+ -t 2.179153767 -s 2 -d 5 -p cbr -e 230 -c 2 -a 0 -i 36 -k RTR 
- -t 2.179153767 -s 2 -d 5 -p cbr -e 230 -c 2 -a 0 -i 36 -k RTR
h -t 2.179153767 -s 2 -d 5 -p cbr -e 230 -c 2 -a 0 -i 36 -k RTR
+ -t 2.182409767 -s 0 -d 1 -p cbr -e 230 -c 2 -a 0 -i 7 -k RTR 
- -t 2.182409767 -s 0 -d 1 -p cbr -e 230 -c 2 -a 0 -i 7 -k RTR
h -t 2.182409767 -s 0 -d 1 -p cbr -e 230 -c 2 -a 0 -i 7 -k RTR
+ -t 2.192409767 -s 0 -d 1 -p cbr -e 230 -c 2 -a 0 -i 8 -k RTR 
- -t 2.192409767 -s 0 -d 1 -p cbr -e 230 -c 2 -a 0 -i 8 -k RTR
h -t 2.192409767 -s 0 -d 1 -p cbr -e 230 -c 2 -a 0 -i 8 -k RTR
+ -t 2.202409767 -s 0 -d 1 -p cbr -e 230 -c 2 -a 0 -i 9 -k RTR 
- -t 2.202409767 -s 0 -d 1 -p cbr -e 230 -c 2 -a 0 -i 9 -k RTR
h -t 2.202409767 -s 0 -d 1 -p cbr -e 230 -c 2 -a 0 -i 9 -k RTR
+ -t 2.212409767 -s 0 -d 1 -p cbr -e 230 -c 2 -a 0 -i 10 -k RTR 
- -t 2.212409767 -s 0 -d 1 -p cbr -e 230 -c 2 -a 0 -i 10 -k RTR
h -t 2.212409767 -s 0 -d 1 -p cbr -e 230 -c 2 -a 0 -i 10 -k RTR
+ -t 2.215153767 -s 1 -d 2 -p cbr -e 230 -c 2 -a 0 -i 1 -k RTR 
- -t 2.215153767 -s 1 -d 2 -p cbr -e 230 -c 2 -a 0 -i 1 -k RTR
h -t 2.215153767 -s 1 -d 2 -p cbr -e 230 -c 2 -a 0 -i 1 -k RTR
+ -t 2.221153767 -s 2 -d 5 -p cbr -e 230 -c 2 -a 0 -i 1 -k RTR 
- -t 2.221153767 -s 2 -d 5 -p cbr -e 230 -c 2 -a 0 -i 1 -k RTR
h -t 2.221153767 -s 2 -d 5 -p cbr -e 230 -c 2 -a 0 -i 1 -k RTR
+ -t 2.222409767 -s 0 -d 1 -p cbr -e 230 -c 2 -a 0 -i 11 -k RTR 
- -t 2.222409767 -s 0 -d 1 -p cbr -e 230 -c 2 -a 0 -i 11 -k RTR
h -t 2.222409767 -s 0 -d 1 -p cbr -e 230 -c 2 -a 0 -i 11 -k RTR
+ -t 2.228000000 -s 0 -d 1 -p cbr -e 230 -c 2 -a 0 -i 38 -k RTR 
- -t 2.228000000 -s 0 -d 1 -p cbr -e 230 -c 2 -a 0 -i 38 -k RTR
h -t 2.228000000 -s 0 -d 1 -p cbr -e 230 -c 2 -a 0 -i 38 -k RTR
+ -t 2.232409767 -s 0 -d 1 -p cbr -e 230 -c 2 -a 0 -i 12 -k RTR 
- -t 2.232409767 -s 0 -d 1 -p cbr -e 230 -c 2 -a 0 -i 12 -k RTR
h -t 2.232409767 -s 0 -d 1 -p cbr -e 230 -c 2 -a 0 -i 12 -k RTR
+ -t 2.242409767 -s 0 -d 1 -p cbr -e 230 -c 2 -a 0 -i 13 -k RTR 
- -t 2.242409767 -s 0 -d 1 -p cbr -e 230 -c 2 -a 0 -i 13 -k RTR
h -t 2.242409767 -s 0 -d 1 -p cbr -e 230 -c 2 -a 0 -i 13 -k RTR
+ -t 2.252409767 -s 0 -d 1 -p cbr -e 230 -c 2 -a 0 -i 14 -k RTR 
- -t 2.252409767 -s 0 -d 1 -p cbr -e 230 -c 2 -a 0 -i 14 -k RTR
h -t 2.252409767 -s 0 -d 1 -p cbr -e 230 -c 2 -a 0 -i 14 -k RTR
+ -t 2.257153767 -s 1 -d 2 -p cbr -e 230 -c 2 -a 0 -i 2 -k RTR 
- -t 2.257153767 -s 1 -d 2 -p cbr -e 230 -c 2 -a 0 -i 2 -k RTR
h -t 2.257153767 -s 1 -d 2 -p cbr -e 230 -c 2 -a 0 -i 2 -k RTR
+ -t 2.262409767 -s 0 -d 1 -p cbr -e 230 -c 2 -a 0 -i 15 -k RTR 
- -t 2.262409767 -s 0 -d 1 -p cbr -e 230 -c 2 -a 0 -i 15 -k RTR
h -t 2.262409767 -s 0 -d 1 -p cbr -e 230 -c 2 -a 0 -i 15 -k RTR
+ -t 2.263153767 -s 2 -d 5 -p cbr -e 230 -c 2 -a 0 -i 2 -k RTR 
- -t 2.263153767 -s 2 -d 5 -p cbr -e 230 -c 2 -a 0 -i 2 -k RTR
h -t 2.263153767 -s 2 -d 5 -p cbr -e 230 -c 2 -a 0 -i 2 -k RTR
+ -t 2.272409767 -s 0 -d 1 -p cbr -e 230 -c 2 -a 0 -i 16 -k RTR 
- -t 2.272409767 -s 0 -d 1 -p cbr -e 230 -c 2 -a 0 -i 16 -k RTR
h -t 2.272409767 -s 0 -d 1 -p cbr -e 230 -c 2 -a 0 -i 16 -k RTR
+ -t 2.282409767 -s 0 -d 1 -p cbr -e 230 -c 2 -a 0 -i 17 -k RTR 
- -t 2.282409767 -s 0 -d 1 -p cbr -e 230 -c 2 -a 0 -i 17 -k RTR
h -t 2.282409767 -s 0 -d 1 -p cbr -e 230 -c 2 -a 0 -i 17 -k RTR
+ -t 2.284000000 -s 0 -d 1 -p cbr -e 230 -c 2 -a 0 -i 39 -k RTR 
- -t 2.284000000 -s 0 -d 1 -p cbr -e 230 -c 2 -a 0 -i 39 -k RTR
h -t 2.284000000 -s 0 -d 1 -p cbr -e 230 -c 2 -a 0 -i 39 -k RTR
+ -t 2.292409767 -s 0 -d 1 -p cbr -e 230 -c 2 -a 0 -i 18 -k RTR 
- -t 2.292409767 -s 0 -d 1 -p cbr -e 230 -c 2 -a 0 -i 18 -k RTR
h -t 2.292409767 -s 0 -d 1 -p cbr -e 230 -c 2 -a 0 -i 18 -k RTR
+ -t 2.299153767 -s 1 -d 2 -p cbr -e 230 -c 2 -a 0 -i 3 -k RTR 
- -t 2.299153767 -s 1 -d 2 -p cbr -e 230 -c 2 -a 0 -i 3 -k RTR
h -t 2.299153767 -s 1 -d 2 -p cbr -e 230 -c 2 -a 0 -i 3 -k RTR
+ -t 2.302409767 -s 0 -d 1 -p cbr -e 230 -c 2 -a 0 -i 19 -k RTR 
- -t 2.302409767 -s 0 -d 1 -p cbr -e 230 -c 2 -a 0 -i 19 -k RTR
h -t 2.302409767 -s 0 -d 1 -p cbr -e 230 -c 2 -a 0 -i 19 -k RTR
+ -t 2.305153767 -s 2 -d 5 -p cbr -e 230 -c 2 -a 0 -i 3 -k RTR 
- -t 2.305153767 -s 2 -d 5 -p cbr -e 230 -c 2 -a 0 -i 3 -k RTR
h -t 2.305153767 -s 2 -d 5 -p cbr -e 230 -c 2 -a 0 -i 3 -k RTR
+ -t 2.312409767 -s 0 -d 1 -p cbr -e 230 -c 2 -a 0 -i 20 -k RTR 
- -t 2.312409767 -s 0 -d 1 -p cbr -e 230 -c 2 -a 0 -i 20 -k RTR
h -t 2.312409767 -s 0 -d 1 -p cbr -e 230 -c 2 -a 0 -i 20 -k RTR
+ -t 2.322409767 -s 0 -d 1 -p cbr -e 230 -c 2 -a 0 -i 21 -k RTR 
- -t 2.322409767 -s 0 -d 1 -p cbr -e 230 -c 2 -a 0 -i 21 -k RTR
h -t 2.322409767 -s 0 -d 1 -p cbr -e 230 -c 2 -a 0 -i 21 -k RTR
+ -t 2.332409767 -s 0 -d 1 -p cbr -e 230 -c 2 -a 0 -i 22 -k RTR 
- -t 2.332409767 -s 0 -d 1 -p cbr -e 230 -c 2 -a 0 -i 22 -k RTR
h -t 2.332409767 -s 0 -d 1 -p cbr -e 230 -c 2 -a 0 -i 22 -k RTR
+ -t 2.340000000 -s 0 -d 1 -p cbr -e 230 -c 2 -a 0 -i 40 -k RTR 
- -t 2.340000000 -s 0 -d 1 -p cbr -e 230 -c 2 -a 0 -i 40 -k RTR
h -t 2.340000000 -s 0 -d 1 -p cbr -e 230 -c 2 -a 0 -i 40 -k RTR
+ -t 2.341153767 -s 1 -d 2 -p cbr -e 230 -c 2 -a 0 -i 4 -k RTR 
- -t 2.341153767 -s 1 -d 2 -p cbr -e 230 -c 2 -a 0 -i 4 -k RTR
h -t 2.341153767 -s 1 -d 2 -p cbr -e 230 -c 2 -a 0 -i 4 -k RTR
+ -t 2.342409767 -s 0 -d 1 -p cbr -e 230 -c 2 -a 0 -i 23 -k RTR 
- -t 2.342409767 -s 0 -d 1 -p cbr -e 230 -c 2 -a 0 -i 23 -k RTR
h -t 2.342409767 -s 0 -d 1 -p cbr -e 230 -c 2 -a 0 -i 23 -k RTR
+ -t 2.347153767 -s 2 -d 5 -p cbr -e 230 -c 2 -a 0 -i 4 -k RTR 
- -t 2.347153767 -s 2 -d 5 -p cbr -e 230 -c 2 -a 0 -i 4 -k RTR
h -t 2.347153767 -s 2 -d 5 -p cbr -e 230 -c 2 -a 0 -i 4 -k RTR
+ -t 2.352409767 -s 0 -d 1 -p cbr -e 230 -c 2 -a 0 -i 24 -k RTR 
- -t 2.352409767 -s 0 -d 1 -p cbr -e 230 -c 2 -a 0 -i 24 -k RTR
h -t 2.352409767 -s 0 -d 1 -p cbr -e 230 -c 2 -a 0 -i 24 -k RTR
+ -t 2.362409767 -s 0 -d 1 -p cbr -e 230 -c 2 -a 0 -i 25 -k RTR 
- -t 2.362409767 -s 0 -d 1 -p cbr -e 230 -c 2 -a 0 -i 25 -k RTR
h -t 2.362409767 -s 0 -d 1 -p cbr -e 230 -c 2 -a 0 -i 25 -k RTR
+ -t 2.372409767 -s 0 -d 1 -p cbr -e 230 -c 2 -a 0 -i 26 -k RTR 
- -t 2.372409767 -s 0 -d 1 -p cbr -e 230 -c 2 -a 0 -i 26 -k RTR
h -t 2.372409767 -s 0 -d 1 -p cbr -e 230 -c 2 -a 0 -i 26 -k RTR
+ -t 2.382409767 -s 0 -d 1 -p cbr -e 230 -c 2 -a 0 -i 27 -k RTR 
- -t 2.382409767 -s 0 -d 1 -p cbr -e 230 -c 2 -a 0 -i 27 -k RTR
h -t 2.382409767 -s 0 -d 1 -p cbr -e 230 -c 2 -a 0 -i 27 -k RTR
+ -t 2.383153767 -s 1 -d 2 -p cbr -e 230 -c 2 -a 0 -i 5 -k RTR 
- -t 2.383153767 -s 1 -d 2 -p cbr -e 230 -c 2 -a 0 -i 5 -k RTR
h -t 2.383153767 -s 1 -d 2 -p cbr -e 230 -c 2 -a 0 -i 5 -k RTR
+ -t 2.389153767 -s 2 -d 5 -p cbr -e 230 -c 2 -a 0 -i 5 -k RTR 
- -t 2.389153767 -s 2 -d 5 -p cbr -e 230 -c 2 -a 0 -i 5 -k RTR
h -t 2.389153767 -s 2 -d 5 -p cbr -e 230 -c 2 -a 0 -i 5 -k RTR
+ -t 2.392409767 -s 0 -d 1 -p cbr -e 230 -c 2 -a 0 -i 28 -k RTR 
- -t 2.392409767 -s 0 -d 1 -p cbr -e 230 -c 2 -a 0 -i 28 -k RTR
h -t 2.392409767 -s 0 -d 1 -p cbr -e 230 -c 2 -a 0 -i 28 -k RTR
+ -t 2.396000000 -s 0 -d 1 -p cbr -e 230 -c 2 -a 0 -i 41 -k RTR 
- -t 2.396000000 -s 0 -d 1 -p cbr -e 230 -c 2 -a 0 -i 41 -k RTR
h -t 2.396000000 -s 0 -d 1 -p cbr -e 230 -c 2 -a 0 -i 41 -k RTR
+ -t 2.402409767 -s 0 -d 1 -p cbr -e 230 -c 2 -a 0 -i 29 -k RTR 
- -t 2.402409767 -s 0 -d 1 -p cbr -e 230 -c 2 -a 0 -i 29 -k RTR
h -t 2.402409767 -s 0 -d 1 -p cbr -e 230 -c 2 -a 0 -i 29 -k RTR
+ -t 2.412409767 -s 0 -d 1 -p cbr -e 230 -c 2 -a 0 -i 30 -k RTR 
- -t 2.412409767 -s 0 -d 1 -p cbr -e 230 -c 2 -a 0 -i 30 -k RTR
h -t 2.412409767 -s 0 -d 1 -p cbr -e 230 -c 2 -a 0 -i 30 -k RTR
+ -t 2.422409767 -s 0 -d 1 -p cbr -e 230 -c 2 -a 0 -i 31 -k RTR 
- -t 2.422409767 -s 0 -d 1 -p cbr -e 230 -c 2 -a 0 -i 31 -k RTR
h -t 2.422409767 -s 0 -d 1 -p cbr -e 230 -c 2 -a 0 -i 31 -k RTR
+ -t 2.425153767 -s 1 -d 2 -p cbr -e 230 -c 2 -a 0 -i 37 -k RTR 
- -t 2.425153767 -s 1 -d 2 -p cbr -e 230 -c 2 -a 0 -i 37 -k RTR
h -t 2.425153767 -s 1 -d 2 -p cbr -e 230 -c 2 -a 0 -i 37 -k RTR
+ -t 2.431153767 -s 2 -d 5 -p cbr -e 230 -c 2 -a 0 -i 37 -k RTR 
- -t 2.431153767 -s 2 -d 5 -p cbr -e 230 -c 2 -a 0 -i 37 -k RTR
h -t 2.431153767 -s 2 -d 5 -p cbr -e 230 -c 2 -a 0 -i 37 -k RTR
+ -t 2.432409767 -s 0 -d 1 -p cbr -e 230 -c 2 -a 0 -i 32 -k RTR 
- -t 2.432409767 -s 0 -d 1 -p cbr -e 230 -c 2 -a 0 -i 32 -k RTR
h -t 2.432409767 -s 0 -d 1 -p cbr -e 230 -c 2 -a 0 -i 32 -k RTR
+ -t 2.442409767 -s 0 -d 1 -p cbr -e 230 -c 2 -a 0 -i 33 -k RTR 
- -t 2.442409767 -s 0 -d 1 -p cbr -e 230 -c 2 -a 0 -i 33 -k RTR
h -t 2.442409767 -s 0 -d 1 -p cbr -e 230 -c 2 -a 0 -i 33 -k RTR
+ -t 2.452000000 -s 0 -d 1 -p cbr -e 230 -c 2 -a 0 -i 42 -k RTR 
- -t 2.452000000 -s 0 -d 1 -p cbr -e 230 -c 2 -a 0 -i 42 -k RTR
h -t 2.452000000 -s 0 -d 1 -p cbr -e 230 -c 2 -a 0 -i 42 -k RTR
+ -t 2.452409767 -s 0 -d 1 -p cbr -e 230 -c 2 -a 0 -i 34 -k RTR 
- -t 2.452409767 -s 0 -d 1 -p cbr -e 230 -c 2 -a 0 -i 34 -k RTR
h -t 2.452409767 -s 0 -d 1 -p cbr -e 230 -c 2 -a 0 -i 34 -k RTR
+ -t 2.462409767 -s 0 -d 1 -p cbr -e 230 -c 2 -a 0 -i 35 -k RTR 
- -t 2.462409767 -s 0 -d 1 -p cbr -e 230 -c 2 -a 0 -i 35 -k RTR
h -t 2.462409767 -s 0 -d 1 -p cbr -e 230 -c 2 -a 0 -i 35 -k RTR
+ -t 2.467153767 -s 1 -d 2 -p cbr -e 230 -c 2 -a 0 -i 6 -k RTR 
- -t 2.467153767 -s 1 -d 2 -p cbr -e 230 -c 2 -a 0 -i 6 -k RTR
h -t 2.467153767 -s 1 -d 2 -p cbr -e 230 -c 2 -a 0 -i 6 -k RTR
+ -t 2.473153767 -s 2 -d 5 -p cbr -e 230 -c 2 -a 0 -i 6 -k RTR 
- -t 2.473153767 -s 2 -d 5 -p cbr -e 230 -c 2 -a 0 -i 6 -k RTR
h -t 2.473153767 -s 2 -d 5 -p cbr -e 230 -c 2 -a 0 -i 6 -k RTR
+ -t 2.508000000 -s 0 -d 1 -p cbr -e 230 -c 2 -a 0 -i 43 -k RTR 
- -t 2.508000000 -s 0 -d 1 -p cbr -e 230 -c 2 -a 0 -i 43 -k RTR
h -t 2.508000000 -s 0 -d 1 -p cbr -e 230 -c 2 -a 0 -i 43 -k RTR
+ -t 2.509153767 -s 1 -d 2 -p cbr -e 230 -c 2 -a 0 -i 7 -k RTR 
- -t 2.509153767 -s 1 -d 2 -p cbr -e 230 -c 2 -a 0 -i 7 -k RTR
h -t 2.509153767 -s 1 -d 2 -p cbr -e 230 -c 2 -a 0 -i 7 -k RTR
+ -t 2.515153767 -s 2 -d 5 -p cbr -e 230 -c 2 -a 0 -i 7 -k RTR 
- -t 2.515153767 -s 2 -d 5 -p cbr -e 230 -c 2 -a 0 -i 7 -k RTR
h -t 2.515153767 -s 2 -d 5 -p cbr -e 230 -c 2 -a 0 -i 7 -k RTR
+ -t 2.551153767 -s 1 -d 2 -p cbr -e 230 -c 2 -a 0 -i 8 -k RTR 
- -t 2.551153767 -s 1 -d 2 -p cbr -e 230 -c 2 -a 0 -i 8 -k RTR
h -t 2.551153767 -s 1 -d 2 -p cbr -e 230 -c 2 -a 0 -i 8 -k RTR
+ -t 2.557153767 -s 2 -d 5 -p cbr -e 230 -c 2 -a 0 -i 8 -k RTR 
- -t 2.557153767 -s 2 -d 5 -p cbr -e 230 -c 2 -a 0 -i 8 -k RTR
h -t 2.557153767 -s 2 -d 5 -p cbr -e 230 -c 2 -a 0 -i 8 -k RTR
+ -t 2.564000000 -s 0 -d 1 -p cbr -e 230 -c 2 -a 0 -i 44 -k RTR 
- -t 2.564000000 -s 0 -d 1 -p cbr -e 230 -c 2 -a 0 -i 44 -k RTR
h -t 2.564000000 -s 0 -d 1 -p cbr -e 230 -c 2 -a 0 -i 44 -k RTR
+ -t 2.579386597 -s 4 -d -1 -p AODV -e 44 -c 2 -a 0 -i 0 -k RTR 
- -t 2.579386597 -s 4 -d -1 -p AODV -e 44 -c 2 -a 0 -i 0 -k RTR
h -t 2.579386597 -s 4 -d -1 -p AODV -e 44 -c 2 -a 0 -i 0 -k RTR
+ -t 2.593153767 -s 1 -d 2 -p cbr -e 230 -c 2 -a 0 -i 9 -k RTR 
- -t 2.593153767 -s 1 -d 2 -p cbr -e 230 -c 2 -a 0 -i 9 -k RTR
h -t 2.593153767 -s 1 -d 2 -p cbr -e 230 -c 2 -a 0 -i 9 -k RTR
+ -t 2.599153767 -s 2 -d 5 -p cbr -e 230 -c 2 -a 0 -i 9 -k RTR 
- -t 2.599153767 -s 2 -d 5 -p cbr -e 230 -c 2 -a 0 -i 9 -k RTR
h -t 2.599153767 -s 2 -d 5 -p cbr -e 230 -c 2 -a 0 -i 9 -k RTR
r -t 2.610409400 -s 3 -d -1 -p AODV -e 44 -c 2 -a 0 -i 0 -k RTR
+ -t 2.616537686 -s 0 -d -1 -p AODV -e 44 -c 2 -a 0 -i 0 -k RTR 
- -t 2.616537686 -s 0 -d -1 -p AODV -e 44 -c 2 -a 0 -i 0 -k RTR
h -t 2.616537686 -s 0 -d -1 -p AODV -e 44 -c 2 -a 0 -i 0 -k RTR
+ -t 2.620000000 -s 0 -d 1 -p cbr -e 230 -c 2 -a 0 -i 45 -k RTR 
- -t 2.620000000 -s 0 -d 1 -p cbr -e 230 -c 2 -a 0 -i 45 -k RTR
h -t 2.620000000 -s 0 -d 1 -p cbr -e 230 -c 2 -a 0 -i 45 -k RTR
+ -t 2.635153767 -s 1 -d 2 -p cbr -e 230 -c 2 -a 0 -i 10 -k RTR 
- -t 2.635153767 -s 1 -d 2 -p cbr -e 230 -c 2 -a 0 -i 10 -k RTR
h -t 2.635153767 -s 1 -d 2 -p cbr -e 230 -c 2 -a 0 -i 10 -k RTR
+ -t 2.641153767 -s 2 -d 5 -p cbr -e 230 -c 2 -a 0 -i 10 -k RTR 
- -t 2.641153767 -s 2 -d 5 -p cbr -e 230 -c 2 -a 0 -i 10 -k RTR
h -t 2.641153767 -s 2 -d 5 -p cbr -e 230 -c 2 -a 0 -i 10 -k RTR
r -t 2.652409767 -s 1 -d -1 -p AODV -e 44 -c 2 -a 0 -i 0 -k RTR
+ -t 2.676000000 -s 0 -d 1 -p cbr -e 230 -c 2 -a 0 -i 46 -k RTR 
- -t 2.676000000 -s 0 -d 1 -p cbr -e 230 -c 2 -a 0 -i 46 -k RTR
h -t 2.676000000 -s 0 -d 1 -p cbr -e 230 -c 2 -a 0 -i 46 -k RTR
+ -t 2.677153767 -s 1 -d 2 -p cbr -e 230 -c 2 -a 0 -i 11 -k RTR 
- -t 2.677153767 -s 1 -d 2 -p cbr -e 230 -c 2 -a 0 -i 11 -k RTR
h -t 2.677153767 -s 1 -d 2 -p cbr -e 230 -c 2 -a 0 -i 11 -k RTR
+ -t 2.683153767 -s 2 -d 5 -p cbr -e 230 -c 2 -a 0 -i 11 -k RTR 
- -t 2.683153767 -s 2 -d 5 -p cbr -e 230 -c 2 -a 0 -i 11 -k RTR
h -t 2.683153767 -s 2 -d 5 -p cbr -e 230 -c 2 -a 0 -i 11 -k RTR
+ -t 2.719153767 -s 1 -d 2 -p cbr -e 230 -c 2 -a 0 -i 38 -k RTR 
- -t 2.719153767 -s 1 -d 2 -p cbr -e 230 -c 2 -a 0 -i 38 -k RTR
h -t 2.719153767 -s 1 -d 2 -p cbr -e 230 -c 2 -a 0 -i 38 -k RTR
+ -t 2.722333526 -s 2 -d -1 -p AODV -e 44 -c 2 -a 0 -i 0 -k RTR 
- -t 2.722333526 -s 2 -d -1 -p AODV -e 44 -c 2 -a 0 -i 0 -k RTR
h -t 2.722333526 -s 2 -d -1 -p AODV -e 44 -c 2 -a 0 -i 0 -k RTR
+ -t 2.725153767 -s 2 -d 5 -p cbr -e 230 -c 2 -a 0 -i 38 -k RTR 
- -t 2.725153767 -s 2 -d 5 -p cbr -e 230 -c 2 -a 0 -i 38 -k RTR
h -t 2.725153767 -s 2 -d 5 -p cbr -e 230 -c 2 -a 0 -i 38 -k RTR
+ -t 2.732000000 -s 0 -d 1 -p cbr -e 230 -c 2 -a 0 -i 47 -k RTR 
- -t 2.732000000 -s 0 -d 1 -p cbr -e 230 -c 2 -a 0 -i 47 -k RTR
h -t 2.732000000 -s 0 -d 1 -p cbr -e 230 -c 2 -a 0 -i 47 -k RTR
r -t 2.736409767 -s 1 -d -1 -p AODV -e 44 -c 2 -a 0 -i 0 -k RTR
r -t 2.736409767 -s 5 -d -1 -p AODV -e 44 -c 2 -a 0 -i 0 -k RTR
+ -t 2.761153767 -s 1 -d 2 -p cbr -e 230 -c 2 -a 0 -i 12 -k RTR 
- -t 2.761153767 -s 1 -d 2 -p cbr -e 230 -c 2 -a 0 -i 12 -k RTR
h -t 2.761153767 -s 1 -d 2 -p cbr -e 230 -c 2 -a 0 -i 12 -k RTR
+ -t 2.767153767 -s 2 -d 5 -p cbr -e 230 -c 2 -a 0 -i 12 -k RTR 
- -t 2.767153767 -s 2 -d 5 -p cbr -e 230 -c 2 -a 0 -i 12 -k RTR
h -t 2.767153767 -s 2 -d 5 -p cbr -e 230 -c 2 -a 0 -i 12 -k RTR
+ -t 2.788000000 -s 0 -d 1 -p cbr -e 230 -c 2 -a 0 -i 48 -k RTR 
- -t 2.788000000 -s 0 -d 1 -p cbr -e 230 -c 2 -a 0 -i 48 -k RTR
h -t 2.788000000 -s 0 -d 1 -p cbr -e 230 -c 2 -a 0 -i 48 -k RTR
+ -t 2.803153767 -s 1 -d 2 -p cbr -e 230 -c 2 -a 0 -i 13 -k RTR 
- -t 2.803153767 -s 1 -d 2 -p cbr -e 230 -c 2 -a 0 -i 13 -k RTR
h -t 2.803153767 -s 1 -d 2 -p cbr -e 230 -c 2 -a 0 -i 13 -k RTR
+ -t 2.805997888 -s 3 -d -1 -p AODV -e 44 -c 2 -a 0 -i 0 -k RTR 
- -t 2.805997888 -s 3 -d -1 -p AODV -e 44 -c 2 -a 0 -i 0 -k RTR
h -t 2.805997888 -s 3 -d -1 -p AODV -e 44 -c 2 -a 0 -i 0 -k RTR
+ -t 2.809153767 -s 2 -d 5 -p cbr -e 230 -c 2 -a 0 -i 13 -k RTR 
- -t 2.809153767 -s 2 -d 5 -p cbr -e 230 -c 2 -a 0 -i 13 -k RTR
h -t 2.809153767 -s 2 -d 5 -p cbr -e 230 -c 2 -a 0 -i 13 -k RTR
r -t 2.820409400 -s 4 -d -1 -p AODV -e 44 -c 2 -a 0 -i 0 -k RTR
r -t 2.820409792 -s 1 -d -1 -p AODV -e 44 -c 2 -a 0 -i 0 -k RTR
+ -t 2.844000000 -s 0 -d 1 -p cbr -e 230 -c 2 -a 0 -i 49 -k RTR 
- -t 2.844000000 -s 0 -d 1 -p cbr -e 230 -c 2 -a 0 -i 49 -k RTR
h -t 2.844000000 -s 0 -d 1 -p cbr -e 230 -c 2 -a 0 -i 49 -k RTR
+ -t 2.845153767 -s 1 -d 2 -p cbr -e 230 -c 2 -a 0 -i 14 -k RTR 
- -t 2.845153767 -s 1 -d 2 -p cbr -e 230 -c 2 -a 0 -i 14 -k RTR
h -t 2.845153767 -s 1 -d 2 -p cbr -e 230 -c 2 -a 0 -i 14 -k RTR
+ -t 2.851153767 -s 2 -d 5 -p cbr -e 230 -c 2 -a 0 -i 14 -k RTR 
- -t 2.851153767 -s 2 -d 5 -p cbr -e 230 -c 2 -a 0 -i 14 -k RTR
h -t 2.851153767 -s 2 -d 5 -p cbr -e 230 -c 2 -a 0 -i 14 -k RTR
+ -t 2.887153767 -s 1 -d 2 -p cbr -e 230 -c 2 -a 0 -i 15 -k RTR 
- -t 2.887153767 -s 1 -d 2 -p cbr -e 230 -c 2 -a 0 -i 15 -k RTR
h -t 2.887153767 -s 1 -d 2 -p cbr -e 230 -c 2 -a 0 -i 15 -k RTR
+ -t 2.893153767 -s 2 -d 5 -p cbr -e 230 -c 2 -a 0 -i 15 -k RTR 
- -t 2.893153767 -s 2 -d 5 -p cbr -e 230 -c 2 -a 0 -i 15 -k RTR
h -t 2.893153767 -s 2 -d 5 -p cbr -e 230 -c 2 -a 0 -i 15 -k RTR
+ -t 2.900000000 -s 0 -d 1 -p cbr -e 230 -c 2 -a 0 -i 50 -k RTR 
- -t 2.900000000 -s 0 -d 1 -p cbr -e 230 -c 2 -a 0 -i 50 -k RTR
h -t 2.900000000 -s 0 -d 1 -p cbr -e 230 -c 2 -a 0 -i 50 -k RTR
+ -t 2.929153767 -s 1 -d 2 -p cbr -e 230 -c 2 -a 0 -i 16 -k RTR 
- -t 2.929153767 -s 1 -d 2 -p cbr -e 230 -c 2 -a 0 -i 16 -k RTR
h -t 2.929153767 -s 1 -d 2 -p cbr -e 230 -c 2 -a 0 -i 16 -k RTR
+ -t 2.935153767 -s 2 -d 5 -p cbr -e 230 -c 2 -a 0 -i 16 -k RTR 
- -t 2.935153767 -s 2 -d 5 -p cbr -e 230 -c 2 -a 0 -i 16 -k RTR
h -t 2.935153767 -s 2 -d 5 -p cbr -e 230 -c 2 -a 0 -i 16 -k RTR
+ -t 2.956000000 -s 0 -d 1 -p cbr -e 230 -c 2 -a 0 -i 51 -k RTR 
- -t 2.956000000 -s 0 -d 1 -p cbr -e 230 -c 2 -a 0 -i 51 -k RTR
h -t 2.956000000 -s 0 -d 1 -p cbr -e 230 -c 2 -a 0 -i 51 -k RTR
+ -t 2.971153767 -s 1 -d 2 -p cbr -e 230 -c 2 -a 0 -i 17 -k RTR 
- -t 2.971153767 -s 1 -d 2 -p cbr -e 230 -c 2 -a 0 -i 17 -k RTR
h -t 2.971153767 -s 1 -d 2 -p cbr -e 230 -c 2 -a 0 -i 17 -k RTR
+ -t 2.977153767 -s 2 -d 5 -p cbr -e 230 -c 2 -a 0 -i 17 -k RTR 
- -t 2.977153767 -s 2 -d 5 -p cbr -e 230 -c 2 -a 0 -i 17 -k RTR
h -t 2.977153767 -s 2 -d 5 -p cbr -e 230 -c 2 -a 0 -i 17 -k RTR
+ -t 3.012000000 -s 0 -d 1 -p cbr -e 230 -c 2 -a 0 -i 52 -k RTR 
- -t 3.012000000 -s 0 -d 1 -p cbr -e 230 -c 2 -a 0 -i 52 -k RTR
h -t 3.012000000 -s 0 -d 1 -p cbr -e 230 -c 2 -a 0 -i 52 -k RTR
+ -t 3.013153767 -s 1 -d 2 -p cbr -e 230 -c 2 -a 0 -i 39 -k RTR 
- -t 3.013153767 -s 1 -d 2 -p cbr -e 230 -c 2 -a 0 -i 39 -k RTR
h -t 3.013153767 -s 1 -d 2 -p cbr -e 230 -c 2 -a 0 -i 39 -k RTR
+ -t 3.019153767 -s 2 -d 5 -p cbr -e 230 -c 2 -a 0 -i 39 -k RTR 
- -t 3.019153767 -s 2 -d 5 -p cbr -e 230 -c 2 -a 0 -i 39 -k RTR
h -t 3.019153767 -s 2 -d 5 -p cbr -e 230 -c 2 -a 0 -i 39 -k RTR
+ -t 3.055153767 -s 1 -d 2 -p cbr -e 230 -c 2 -a 0 -i 18 -k RTR 
- -t 3.055153767 -s 1 -d 2 -p cbr -e 230 -c 2 -a 0 -i 18 -k RTR
h -t 3.055153767 -s 1 -d 2 -p cbr -e 230 -c 2 -a 0 -i 18 -k RTR
+ -t 3.061153767 -s 2 -d 5 -p cbr -e 230 -c 2 -a 0 -i 18 -k RTR 
- -t 3.061153767 -s 2 -d 5 -p cbr -e 230 -c 2 -a 0 -i 18 -k RTR
h -t 3.061153767 -s 2 -d 5 -p cbr -e 230 -c 2 -a 0 -i 18 -k RTR
+ -t 3.068000000 -s 0 -d 1 -p cbr -e 230 -c 2 -a 0 -i 53 -k RTR 
- -t 3.068000000 -s 0 -d 1 -p cbr -e 230 -c 2 -a 0 -i 53 -k RTR
h -t 3.068000000 -s 0 -d 1 -p cbr -e 230 -c 2 -a 0 -i 53 -k RTR
+ -t 3.081032156 -s 1 -d -1 -p AODV -e 44 -c 2 -a 0 -i 0 -k RTR 
- -t 3.081032156 -s 1 -d -1 -p AODV -e 44 -c 2 -a 0 -i 0 -k RTR
h -t 3.081032156 -s 1 -d -1 -p AODV -e 44 -c 2 -a 0 -i 0 -k RTR
+ -t 3.097153767 -s 1 -d 2 -p cbr -e 230 -c 2 -a 0 -i 19 -k RTR 
- -t 3.097153767 -s 1 -d 2 -p cbr -e 230 -c 2 -a 0 -i 19 -k RTR
h -t 3.097153767 -s 1 -d 2 -p cbr -e 230 -c 2 -a 0 -i 19 -k RTR