v testName close
+ 0.00504 2 3 tcp 40 ------- 0 0.0 3.0 0 0 -1 0xa 40 0
- 0.00504 2 3 tcp 40 ------- 0 0.0 3.0 0 0 -1 0xa 40 0
r 0.10544 2 3 tcp 40 ------- 0 0.0 3.0 0 0 -1 0xa 40 0
+ 0.20584 2 0 ack 40 ------- 0 3.0 0.0 0 1 1 0x1a 40 0
- 0.20584 2 0 ack 40 ------- 0 3.0 0.0 0 1 1 0x1a 40 0
r 0.21088 2 0 ack 40 ------- 0 3.0 0.0 0 1 1 0x1a 40 0
+ 0.21592 2 3 tcp 40 ------- 0 0.0 3.0 1 2 1 0x10 40 0
- 0.21592 2 3 tcp 40 ------- 0 0.0 3.0 1 2 1 0x10 40 0
+ 0.216496 2 3 tcp 576 ------- 0 0.0 3.0 1 3 1 0x10 40 0
- 0.216496 2 3 tcp 576 ------- 0 0.0 3.0 1 3 1 0x10 40 0
r 0.31632 2 3 tcp 40 ------- 0 0.0 3.0 1 2 1 0x10 40 0
r 0.322256 2 3 tcp 576 ------- 0 0.0 3.0 1 3 1 0x10 40 0
+ 0.422656 2 0 ack 40 ------- 0 3.0 0.0 1 4 537 0x18 40 0
- 0.422656 2 0 ack 40 ------- 0 3.0 0.0 1 4 537 0x18 40 0
r 0.427696 2 0 ack 40 ------- 0 3.0 0.0 1 4 537 0x18 40 0
+ 0.433272 2 3 tcp 576 ------- 0 0.0 3.0 537 5 1 0x10 40 0
- 0.433272 2 3 tcp 576 ------- 0 0.0 3.0 537 5 1 0x10 40 0
+ 0.433848 2 3 tcp 576 ------- 0 0.0 3.0 1073 6 1 0x10 40 0
- 0.439032 2 3 tcp 576 ------- 0 0.0 3.0 1073 6 1 0x10 40 0
r 0.539032 2 3 tcp 576 ------- 0 0.0 3.0 537 5 1 0x10 40 0
r 0.544792 2 3 tcp 576 ------- 0 0.0 3.0 1073 6 1 0x10 40 0
+ 0.639432 2 0 ack 40 ------- 0 3.0 0.0 1 7 1073 0x18 40 0
- 0.639432 2 0 ack 40 ------- 0 3.0 0.0 1 7 1073 0x18 40 0
r 0.644472 2 0 ack 40 ------- 0 3.0 0.0 1 7 1073 0x18 40 0
+ 0.645192 2 0 ack 40 ------- 0 3.0 0.0 1 8 1609 0x18 40 0
- 0.645192 2 0 ack 40 ------- 0 3.0 0.0 1 8 1609 0x18 40 0
+ 0.650048 2 3 tcp 576 ------- 0 0.0 3.0 1609 9 1 0x10 40 0
- 0.650048 2 3 tcp 576 ------- 0 0.0 3.0 1609 9 1 0x10 40 0
r 0.650232 2 0 ack 40 ------- 0 3.0 0.0 1 8 1609 0x18 40 0
+ 0.650624 2 3 tcp 576 ------- 0 0.0 3.0 2145 10 1 0x10 40 0
- 0.655808 2 3 tcp 576 ------- 0 0.0 3.0 2145 10 1 0x10 40 0
+ 0.655808 2 3 tcp 576 ------- 0 0.0 3.0 2681 11 1 0x10 40 0
+ 0.656384 2 3 tcp 576 ------- 0 0.0 3.0 3217 12 1 0x10 40 0
- 0.661568 2 3 tcp 576 ------- 0 0.0 3.0 2681 11 1 0x10 40 0
- 0.667328 2 3 tcp 576 ------- 0 0.0 3.0 3217 12 1 0x10 40 0
r 0.755808 2 3 tcp 576 ------- 0 0.0 3.0 1609 9 1 0x10 40 0
r 0.761568 2 3 tcp 576 ------- 0 0.0 3.0 2145 10 1 0x10 40 0
r 0.767328 2 3 tcp 576 ------- 0 0.0 3.0 2681 11 1 0x10 40 0
r 0.773088 2 3 tcp 576 ------- 0 0.0 3.0 3217 12 1 0x10 40 0
+ 0.856208 2 0 ack 40 ------- 0 3.0 0.0 1 13 2145 0x18 40 0
- 0.856208 2 0 ack 40 ------- 0 3.0 0.0 1 13 2145 0x18 40 0
r 0.861248 2 0 ack 40 ------- 0 3.0 0.0 1 13 2145 0x18 40 0
+ 0.861968 2 0 ack 40 ------- 0 3.0 0.0 1 14 2681 0x18 40 0
- 0.861968 2 0 ack 40 ------- 0 3.0 0.0 1 14 2681 0x18 40 0
+ 0.866824 2 3 tcp 576 ------- 0 0.0 3.0 3753 17 1 0x10 40 0
- 0.866824 2 3 tcp 576 ------- 0 0.0 3.0 3753 17 1 0x10 40 0
r 0.867008 2 0 ack 40 ------- 0 3.0 0.0 1 14 2681 0x18 40 0
+ 0.8674 2 3 tcp 576 ------- 0 0.0 3.0 4289 18 1 0x10 40 0
+ 0.867728 2 0 ack 40 ------- 0 3.0 0.0 1 15 3217 0x18 40 0
- 0.867728 2 0 ack 40 ------- 0 3.0 0.0 1 15 3217 0x18 40 0
- 0.872584 2 3 tcp 576 ------- 0 0.0 3.0 4289 18 1 0x10 40 0
+ 0.872584 2 3 tcp 576 ------- 0 0.0 3.0 4825 19 1 0x10 40 0
r 0.872768 2 0 ack 40 ------- 0 3.0 0.0 1 15 3217 0x18 40 0
+ 0.87316 2 3 tcp 576 ------- 0 0.0 3.0 5361 20 1 0x10 40 0
+ 0.873488 2 0 ack 40 ------- 0 3.0 0.0 1 16 3753 0x18 40 0
- 0.873488 2 0 ack 40 ------- 0 3.0 0.0 1 16 3753 0x18 40 0
- 0.878344 2 3 tcp 576 ------- 0 0.0 3.0 4825 19 1 0x10 40 0
+ 0.878344 2 3 tcp 576 ------- 0 0.0 3.0 5897 21 1 0x10 40 0
r 0.878528 2 0 ack 40 ------- 0 3.0 0.0 1 16 3753 0x18 40 0
+ 0.87892 2 3 tcp 576 ------- 0 0.0 3.0 6433 22 1 0x10 40 0
- 0.884104 2 3 tcp 576 ------- 0 0.0 3.0 5361 20 1 0x10 40 0
+ 0.884104 2 3 tcp 576 ------- 0 0.0 3.0 6969 23 1 0x10 40 0
+ 0.88468 2 3 tcp 576 ------- 0 0.0 3.0 7505 24 1 0x10 40 0
- 0.889864 2 3 tcp 576 ------- 0 0.0 3.0 5897 21 1 0x10 40 0
- 0.895624 2 3 tcp 576 ------- 0 0.0 3.0 6433 22 1 0x10 40 0
- 0.901384 2 3 tcp 576 ------- 0 0.0 3.0 6969 23 1 0x10 40 0
- 0.907144 2 3 tcp 576 ------- 0 0.0 3.0 7505 24 1 0x10 40 0
r 0.972584 2 3 tcp 576 ------- 0 0.0 3.0 3753 17 1 0x10 40 0
r 0.978344 2 3 tcp 576 ------- 0 0.0 3.0 4289 18 1 0x10 40 0
r 0.984104 2 3 tcp 576 ------- 0 0.0 3.0 4825 19 1 0x10 40 0
r 0.989864 2 3 tcp 576 ------- 0 0.0 3.0 5361 20 1 0x10 40 0
r 0.995624 2 3 tcp 576 ------- 0 0.0 3.0 5897 21 1 0x10 40 0
r 1.001384 2 3 tcp 576 ------- 0 0.0 3.0 6433 22 1 0x10 40 0
r 1.007144 2 3 tcp 576 ------- 0 0.0 3.0 6969 23 1 0x10 40 0
r 1.012904 2 3 tcp 576 ------- 0 0.0 3.0 7505 24 1 0x10 40 0
+ 1.072984 2 0 ack 40 ------- 0 3.0 0.0 1 25 4289 0x18 40 0
- 1.072984 2 0 ack 40 ------- 0 3.0 0.0 1 25 4289 0x18 40 0
r 1.078024 2 0 ack 40 ------- 0 3.0 0.0 1 25 4289 0x18 40 0
+ 1.078744 2 0 ack 40 ------- 0 3.0 0.0 1 26 4825 0x18 40 0
- 1.078744 2 0 ack 40 ------- 0 3.0 0.0 1 26 4825 0x18 40 0
+ 1.0836 2 3 tcp 576 ------- 0 0.0 3.0 8041 33 1 0x10 40 0
- 1.0836 2 3 tcp 576 ------- 0 0.0 3.0 8041 33 1 0x10 40 0
r 1.083784 2 0 ack 40 ------- 0 3.0 0.0 1 26 4825 0x18 40 0
+ 1.084176 2 3 tcp 576 ------- 0 0.0 3.0 8577 34 1 0x10 40 0
+ 1.084504 2 0 ack 40 ------- 0 3.0 0.0 1 27 5361 0x18 40 0
- 1.084504 2 0 ack 40 ------- 0 3.0 0.0 1 27 5361 0x18 40 0
- 1.08936 2 3 tcp 576 ------- 0 0.0 3.0 8577 34 1 0x10 40 0
+ 1.08936 2 3 tcp 576 ------- 0 0.0 3.0 9113 35 1 0x10 40 0
r 1.089544 2 0 ack 40 ------- 0 3.0 0.0 1 27 5361 0x18 40 0
+ 1.089936 2 3 tcp 576 ------- 0 0.0 3.0 9649 36 1 0x10 40 0
+ 1.090264 2 0 ack 40 ------- 0 3.0 0.0 1 28 5897 0x18 40 0
- 1.090264 2 0 ack 40 ------- 0 3.0 0.0 1 28 5897 0x18 40 0
- 1.09512 2 3 tcp 576 ------- 0 0.0 3.0 9113 35 1 0x10 40 0
+ 1.09512 2 3 tcp 576 ------- 0 0.0 3.0 10185 37 1 0x10 40 0
r 1.095304 2 0 ack 40 ------- 0 3.0 0.0 1 28 5897 0x18 40 0
+ 1.095696 2 3 tcp 576 ------- 0 0.0 3.0 10721 38 1 0x10 40 0
+ 1.096024 2 0 ack 40 ------- 0 3.0 0.0 1 29 6433 0x18 40 0
- 1.096024 2 0 ack 40 ------- 0 3.0 0.0 1 29 6433 0x18 40 0
- 1.10088 2 3 tcp 576 ------- 0 0.0 3.0 9649 36 1 0x10 40 0
+ 1.10088 2 3 tcp 576 ------- 0 0.0 3.0 11257 39 1 0x10 40 0
r 1.101064 2 0 ack 40 ------- 0 3.0 0.0 1 29 6433 0x18 40 0
+ 1.101456 2 3 tcp 576 ------- 0 0.0 3.0 11793 40 1 0x10 40 0
+ 1.101784 2 0 ack 40 ------- 0 3.0 0.0 1 30 6969 0x18 40 0
- 1.101784 2 0 ack 40 ------- 0 3.0 0.0 1 30 6969 0x18 40 0
- 1.10664 2 3 tcp 576 ------- 0 0.0 3.0 10185 37 1 0x10 40 0
+ 1.10664 2 3 tcp 576 ------- 0 0.0 3.0 12329 41 1 0x10 40 0
r 1.106824 2 0 ack 40 ------- 0 3.0 0.0 1 30 6969 0x18 40 0
+ 1.107216 2 3 tcp 576 ------- 0 0.0 3.0 12865 42 1 0x10 40 0
+ 1.107544 2 0 ack 40 ------- 0 3.0 0.0 1 31 7505 0x18 40 0
- 1.107544 2 0 ack 40 ------- 0 3.0 0.0 1 31 7505 0x18 40 0
- 1.1124 2 3 tcp 576 ------- 0 0.0 3.0 10721 38 1 0x10 40 0
+ 1.1124 2 3 tcp 576 ------- 0 0.0 3.0 13401 43 1 0x10 40 0
r 1.112584 2 0 ack 40 ------- 0 3.0 0.0 1 31 7505 0x18 40 0
+ 1.112976 2 3 tcp 576 ------- 0 0.0 3.0 13937 44 1 0x10 40 0
d 1.112976 2 3 tcp 576 ------- 0 0.0 3.0 13937 44 1 0x10 40 0
+ 1.113304 2 0 ack 40 ------- 0 3.0 0.0 1 32 8041 0x18 40 0
- 1.113304 2 0 ack 40 ------- 0 3.0 0.0 1 32 8041 0x18 40 0
- 1.11816 2 3 tcp 576 ------- 0 0.0 3.0 11257 39 1 0x10 40 0
+ 1.11816 2 3 tcp 576 ------- 0 0.0 3.0 14473 45 1 0x10 40 0
r 1.118344 2 0 ack 40 ------- 0 3.0 0.0 1 32 8041 0x18 40 0
+ 1.118736 2 3 tcp 576 ------- 0 0.0 3.0 15009 46 1 0x10 40 0
d 1.118736 2 3 tcp 576 ------- 0 0.0 3.0 15009 46 1 0x10 40 0
- 1.12392 2 3 tcp 576 ------- 0 0.0 3.0 11793 40 1 0x10 40 0
+ 1.12392 2 3 tcp 576 ------- 0 0.0 3.0 15545 47 1 0x10 40 0
+ 1.124496 2 3 tcp 576 ------- 0 0.0 3.0 16081 48 1 0x10 40 0
d 1.124496 2 3 tcp 576 ------- 0 0.0 3.0 16081 48 1 0x10 40 0
- 1.12968 2 3 tcp 576 ------- 0 0.0 3.0 12329 41 1 0x10 40 0
- 1.13544 2 3 tcp 576 ------- 0 0.0 3.0 12865 42 1 0x10 40 0
- 1.1412 2 3 tcp 576 ------- 0 0.0 3.0 13401 43 1 0x10 40 0
- 1.14696 2 3 tcp 576 ------- 0 0.0 3.0 14473 45 1 0x10 40 0
- 1.15272 2 3 tcp 576 ------- 0 0.0 3.0 15545 47 1 0x10 40 0
r 1.18936 2 3 tcp 576 ------- 0 0.0 3.0 8041 33 1 0x10 40 0
r 1.19512 2 3 tcp 576 ------- 0 0.0 3.0 8577 34 1 0x10 40 0
r 1.20088 2 3 tcp 576 ------- 0 0.0 3.0 9113 35 1 0x10 40 0
r 1.20664 2 3 tcp 576 ------- 0 0.0 3.0 9649 36 1 0x10 40 0
r 1.2124 2 3 tcp 576 ------- 0 0.0 3.0 10185 37 1 0x10 40 0
r 1.21816 2 3 tcp 576 ------- 0 0.0 3.0 10721 38 1 0x10 40 0
r 1.22392 2 3 tcp 576 ------- 0 0.0 3.0 11257 39 1 0x10 40 0
r 1.22968 2 3 tcp 576 ------- 0 0.0 3.0 11793 40 1 0x10 40 0
r 1.23544 2 3 tcp 576 ------- 0 0.0 3.0 12329 41 1 0x10 40 0
r 1.2412 2 3 tcp 576 ------- 0 0.0 3.0 12865 42 1 0x10 40 0
r 1.24696 2 3 tcp 576 ------- 0 0.0 3.0 13401 43 1 0x10 40 0
r 1.25272 2 3 tcp 576 ------- 0 0.0 3.0 14473 45 1 0x10 40 0
r 1.25848 2 3 tcp 576 ------- 0 0.0 3.0 15545 47 1 0x10 40 0
+ 1.28976 2 0 ack 40 ------- 0 3.0 0.0 1 49 8577 0x18 40 0
- 1.28976 2 0 ack 40 ------- 0 3.0 0.0 1 49 8577 0x18 40 0
r 1.2948 2 0 ack 40 ------- 0 3.0 0.0 1 49 8577 0x18 40 0
+ 1.29552 2 0 ack 40 ------- 0 3.0 0.0 1 50 9113 0x18 40 0
- 1.29552 2 0 ack 40 ------- 0 3.0 0.0 1 50 9113 0x18 40 0
+ 1.300376 2 3 tcp 576 ------- 0 0.0 3.0 16617 62 1 0x10 40 0
- 1.300376 2 3 tcp 576 ------- 0 0.0 3.0 16617 62 1 0x10 40 0
r 1.30056 2 0 ack 40 ------- 0 3.0 0.0 1 50 9113 0x18 40 0
+ 1.300952 2 3 tcp 576 ------- 0 0.0 3.0 17153 63 1 0x10 40 0
+ 1.30128 2 0 ack 40 ------- 0 3.0 0.0 1 51 9649 0x18 40 0
- 1.30128 2 0 ack 40 ------- 0 3.0 0.0 1 51 9649 0x18 40 0
- 1.306136 2 3 tcp 576 ------- 0 0.0 3.0 17153 63 1 0x10 40 0
+ 1.306136 2 3 tcp 576 ------- 0 0.0 3.0 17689 64 1 0x10 40 0
r 1.30632 2 0 ack 40 ------- 0 3.0 0.0 1 51 9649 0x18 40 0
+ 1.306712 2 3 tcp 576 ------- 0 0.0 3.0 18225 65 1 0x10 40 0
+ 1.30704 2 0 ack 40 ------- 0 3.0 0.0 1 52 10185 0x18 40 0
- 1.30704 2 0 ack 40 ------- 0 3.0 0.0 1 52 10185 0x18 40 0
- 1.311896 2 3 tcp 576 ------- 0 0.0 3.0 17689 64 1 0x10 40 0
+ 1.311896 2 3 tcp 576 ------- 0 0.0 3.0 18761 66 1 0x10 40 0
r 1.31208 2 0 ack 40 ------- 0 3.0 0.0 1 52 10185 0x18 40 0
+ 1.312472 2 3 tcp 576 ------- 0 0.0 3.0 19297 67 1 0x10 40 0
+ 1.3128 2 0 ack 40 ------- 0 3.0 0.0 1 53 10721 0x18 40 0
- 1.3128 2 0 ack 40 ------- 0 3.0 0.0 1 53 10721 0x18 40 0
- 1.317656 2 3 tcp 576 ------- 0 0.0 3.0 18225 65 1 0x10 40 0
+ 1.317656 2 3 tcp 576 ------- 0 0.0 3.0 19833 68 1 0x10 40 0
r 1.31784 2 0 ack 40 ------- 0 3.0 0.0 1 53 10721 0x18 40 0
+ 1.318232 2 3 tcp 576 ------- 0 0.0 3.0 20369 69 1 0x10 40 0
+ 1.31856 2 0 ack 40 ------- 0 3.0 0.0 1 54 11257 0x18 40 0
- 1.31856 2 0 ack 40 ------- 0 3.0 0.0 1 54 11257 0x18 40 0
- 1.323416 2 3 tcp 576 ------- 0 0.0 3.0 18761 66 1 0x10 40 0
+ 1.323416 2 3 tcp 576 ------- 0 0.0 3.0 20905 70 1 0x10 40 0
r 1.3236 2 0 ack 40 ------- 0 3.0 0.0 1 54 11257 0x18 40 0
+ 1.323992 2 3 tcp 576 ------- 0 0.0 3.0 21441 71 1 0x10 40 0
+ 1.32432 2 0 ack 40 ------- 0 3.0 0.0 1 55 11793 0x18 40 0
- 1.32432 2 0 ack 40 ------- 0 3.0 0.0 1 55 11793 0x18 40 0
- 1.329176 2 3 tcp 576 ------- 0 0.0 3.0 19297 67 1 0x10 40 0
+ 1.329176 2 3 tcp 576 ------- 0 0.0 3.0 21977 72 1 0x10 40 0
r 1.32936 2 0 ack 40 ------- 0 3.0 0.0 1 55 11793 0x18 40 0
+ 1.329752 2 3 tcp 576 ------- 0 0.0 3.0 22513 73 1 0x10 40 0
d 1.329752 2 3 tcp 576 ------- 0 0.0 3.0 22513 73 1 0x10 40 0
+ 1.33008 2 0 ack 40 ------- 0 3.0 0.0 1 56 12329 0x18 40 0
- 1.33008 2 0 ack 40 ------- 0 3.0 0.0 1 56 12329 0x18 40 0
- 1.334936 2 3 tcp 576 ------- 0 0.0 3.0 19833 68 1 0x10 40 0
+ 1.334936 2 3 tcp 576 ------- 0 0.0 3.0 23049 74 1 0x10 40 0
r 1.33512 2 0 ack 40 ------- 0 3.0 0.0 1 56 12329 0x18 40 0
+ 1.335512 2 3 tcp 576 ------- 0 0.0 3.0 23585 75 1 0x10 40 0
d 1.335512 2 3 tcp 576 ------- 0 0.0 3.0 23585 75 1 0x10 40 0
+ 1.33584 2 0 ack 40 ------- 0 3.0 0.0 1 57 12865 0x18 40 0
- 1.33584 2 0 ack 40 ------- 0 3.0 0.0 1 57 12865 0x18 40 0
- 1.340696 2 3 tcp 576 ------- 0 0.0 3.0 20369 69 1 0x10 40 0
+ 1.340696 2 3 tcp 576 ------- 0 0.0 3.0 24121 76 1 0x10 40 0
r 1.34088 2 0 ack 40 ------- 0 3.0 0.0 1 57 12865 0x18 40 0
+ 1.341272 2 3 tcp 576 ------- 0 0.0 3.0 24657 77 1 0x10 40 0
d 1.341272 2 3 tcp 576 ------- 0 0.0 3.0 24657 77 1 0x10 40 0
+ 1.3416 2 0 ack 40 ------- 0 3.0 0.0 1 58 13401 0x18 40 0
- 1.3416 2 0 ack 40 ------- 0 3.0 0.0 1 58 13401 0x18 40 0
- 1.346456 2 3 tcp 576 ------- 0 0.0 3.0 20905 70 1 0x10 40 0
+ 1.346456 2 3 tcp 576 ------- 0 0.0 3.0 25193 78 1 0x10 40 0
r 1.34664 2 0 ack 40 ------- 0 3.0 0.0 1 58 13401 0x18 40 0
+ 1.347032 2 3 tcp 576 ------- 0 0.0 3.0 25729 79 1 0x10 40 0
d 1.347032 2 3 tcp 576 ------- 0 0.0 3.0 25729 79 1 0x10 40 0
+ 1.34736 2 0 ack 40 ------- 0 3.0 0.0 1 59 13937 0x18 40 0
- 1.34736 2 0 ack 40 ------- 0 3.0 0.0 1 59 13937 0x18 40 0
- 1.352216 2 3 tcp 576 ------- 0 0.0 3.0 21441 71 1 0x10 40 0
+ 1.352216 2 3 tcp 576 ------- 0 0.0 3.0 26265 80 1 0x18 40 0
r 1.3524 2 0 ack 40 ------- 0 3.0 0.0 1 59 13937 0x18 40 0
+ 1.35312 2 0 ack 40 ------- 0 3.0 0.0 1 60 13937 0x18 40 0
- 1.35312 2 0 ack 40 ------- 0 3.0 0.0 1 60 13937 0x18 40 0
- 1.357976 2 3 tcp 576 ------- 0 0.0 3.0 21977 72 1 0x10 40 0
r 1.35816 2 0 ack 40 ------- 0 3.0 0.0 1 60 13937 0x18 40 0
+ 1.35888 2 0 ack 40 ------- 0 3.0 0.0 1 61 13937 0x18 40 0
- 1.35888 2 0 ack 40 ------- 0 3.0 0.0 1 61 13937 0x18 40 0
- 1.363736 2 3 tcp 576 ------- 0 0.0 3.0 23049 74 1 0x10 40 0
r 1.36392 2 0 ack 40 ------- 0 3.0 0.0 1 61 13937 0x18 40 0
- 1.369496 2 3 tcp 576 ------- 0 0.0 3.0 24121 76 1 0x10 40 0
- 1.375256 2 3 tcp 576 ------- 0 0.0 3.0 25193 78 1 0x10 40 0
- 1.381016 2 3 tcp 576 ------- 0 0.0 3.0 26265 80 1 0x18 40 0
r 1.406136 2 3 tcp 576 ------- 0 0.0 3.0 16617 62 1 0x10 40 0
r 1.411896 2 3 tcp 576 ------- 0 0.0 3.0 17153 63 1 0x10 40 0
r 1.417656 2 3 tcp 576 ------- 0 0.0 3.0 17689 64 1 0x10 40 0
r 1.423416 2 3 tcp 576 ------- 0 0.0 3.0 18225 65 1 0x10 40 0
r 1.429176 2 3 tcp 576 ------- 0 0.0 3.0 18761 66 1 0x10 40 0
r 1.434936 2 3 tcp 576 ------- 0 0.0 3.0 19297 67 1 0x10 40 0
r 1.440696 2 3 tcp 576 ------- 0 0.0 3.0 19833 68 1 0x10 40 0
r 1.446456 2 3 tcp 576 ------- 0 0.0 3.0 20369 69 1 0x10 40 0
r 1.452216 2 3 tcp 576 ------- 0 0.0 3.0 20905 70 1 0x10 40 0
r 1.457976 2 3 tcp 576 ------- 0 0.0 3.0 21441 71 1 0x10 40 0
r 1.463736 2 3 tcp 576 ------- 0 0.0 3.0 21977 72 1 0x10 40 0
r 1.469496 2 3 tcp 576 ------- 0 0.0 3.0 23049 74 1 0x10 40 0
r 1.475256 2 3 tcp 576 ------- 0 0.0 3.0 24121 76 1 0x10 40 0
r 1.481016 2 3 tcp 576 ------- 0 0.0 3.0 25193 78 1 0x10 40 0
r 1.486776 2 3 tcp 576 ------- 0 0.0 3.0 26265 80 1 0x18 40 0
+ 1.506536 2 0 ack 40 ------- 0 3.0 0.0 1 81 13937 0x18 40 0
- 1.506536 2 0 ack 40 ------- 0 3.0 0.0 1 81 13937 0x18 40 0
r 1.511576 2 0 ack 40 ------- 0 3.0 0.0 1 81 13937 0x18 40 0
+ 1.512296 2 0 ack 40 ------- 0 3.0 0.0 1 82 13937 0x18 40 0
- 1.512296 2 0 ack 40 ------- 0 3.0 0.0 1 82 13937 0x18 40 0
+ 1.517152 2 3 tcp 576 ------- 0 0.0 3.0 13937 96 1 0x10 40 0
- 1.517152 2 3 tcp 576 ------- 0 0.0 3.0 13937 96 1 0x10 40 0
r 1.517336 2 0 ack 40 ------- 0 3.0 0.0 1 82 13937 0x18 40 0
+ 1.518056 2 0 ack 40 ------- 0 3.0 0.0 1 83 13937 0x18 40 0
- 1.518056 2 0 ack 40 ------- 0 3.0 0.0 1 83 13937 0x18 40 0
r 1.523096 2 0 ack 40 ------- 0 3.0 0.0 1 83 13937 0x18 40 0
+ 1.523816 2 0 ack 40 ------- 0 3.0 0.0 1 84 13937 0x18 40 0
- 1.523816 2 0 ack 40 ------- 0 3.0 0.0 1 84 13937 0x18 40 0
r 1.528856 2 0 ack 40 ------- 0 3.0 0.0 1 84 13937 0x18 40 0
+ 1.529576 2 0 ack 40 ------- 0 3.0 0.0 1 85 13937 0x18 40 0
- 1.529576 2 0 ack 40 ------- 0 3.0 0.0 1 85 13937 0x18 40 0
r 1.534616 2 0 ack 40 ------- 0 3.0 0.0 1 85 13937 0x18 40 0
+ 1.535336 2 0 ack 40 ------- 0 3.0 0.0 1 86 13937 0x18 40 0
- 1.535336 2 0 ack 40 ------- 0 3.0 0.0 1 86 13937 0x18 40 0
r 1.540376 2 0 ack 40 ------- 0 3.0 0.0 1 86 13937 0x18 40 0
+ 1.541096 2 0 ack 40 ------- 0 3.0 0.0 1 87 13937 0x18 40 0
- 1.541096 2 0 ack 40 ------- 0 3.0 0.0 1 87 13937 0x18 40 0
r 1.546136 2 0 ack 40 ------- 0 3.0 0.0 1 87 13937 0x18 40 0
+ 1.546856 2 0 ack 40 ------- 0 3.0 0.0 1 88 13937 0x18 40 0
- 1.546856 2 0 ack 40 ------- 0 3.0 0.0 1 88 13937 0x18 40 0
r 1.551896 2 0 ack 40 ------- 0 3.0 0.0 1 88 13937 0x18 40 0
+ 1.552616 2 0 ack 40 ------- 0 3.0 0.0 1 89 13937 0x18 40 0
- 1.552616 2 0 ack 40 ------- 0 3.0 0.0 1 89 13937 0x18 40 0
r 1.557656 2 0 ack 40 ------- 0 3.0 0.0 1 89 13937 0x18 40 0
+ 1.558376 2 0 ack 40 ------- 0 3.0 0.0 1 90 13937 0x18 40 0
- 1.558376 2 0 ack 40 ------- 0 3.0 0.0 1 90 13937 0x18 40 0
r 1.563416 2 0 ack 40 ------- 0 3.0 0.0 1 90 13937 0x18 40 0
+ 1.564136 2 0 ack 40 ------- 0 3.0 0.0 1 91 13937 0x18 40 0
- 1.564136 2 0 ack 40 ------- 0 3.0 0.0 1 91 13937 0x18 40 0
r 1.569176 2 0 ack 40 ------- 0 3.0 0.0 1 91 13937 0x18 40 0
+ 1.569896 2 0 ack 40 ------- 0 3.0 0.0 1 92 13937 0x18 40 0
- 1.569896 2 0 ack 40 ------- 0 3.0 0.0 1 92 13937 0x18 40 0
r 1.574936 2 0 ack 40 ------- 0 3.0 0.0 1 92 13937 0x18 40 0
+ 1.575656 2 0 ack 40 ------- 0 3.0 0.0 1 93 13937 0x18 40 0
- 1.575656 2 0 ack 40 ------- 0 3.0 0.0 1 93 13937 0x18 40 0
r 1.580696 2 0 ack 40 ------- 0 3.0 0.0 1 93 13937 0x18 40 0
+ 1.581416 2 0 ack 40 ------- 0 3.0 0.0 1 94 13937 0x18 40 0
- 1.581416 2 0 ack 40 ------- 0 3.0 0.0 1 94 13937 0x18 40 0
r 1.586456 2 0 ack 40 ------- 0 3.0 0.0 1 94 13937 0x18 40 0
+ 1.587176 2 0 ack 40 ------- 0 3.0 0.0 1 95 13937 0x18 40 0
- 1.587176 2 0 ack 40 ------- 0 3.0 0.0 1 95 13937 0x18 40 0
r 1.592216 2 0 ack 40 ------- 0 3.0 0.0 1 95 13937 0x18 40 0
r 1.622912 2 3 tcp 576 ------- 0 0.0 3.0 13937 96 1 0x10 40 0
+ 1.723312 2 0 ack 40 ------- 0 3.0 0.0 1 97 15009 0x18 40 0
- 1.723312 2 0 ack 40 ------- 0 3.0 0.0 1 97 15009 0x18 40 0
r 1.728352 2 0 ack 40 ------- 0 3.0 0.0 1 97 15009 0x18 40 0
+ 2.233928 2 3 tcp 576 ------- 0 0.0 3.0 15009 98 1 0x10 40 0
- 2.233928 2 3 tcp 576 ------- 0 0.0 3.0 15009 98 1 0x10 40 0
r 2.339688 2 3 tcp 576 ------- 0 0.0 3.0 15009 98 1 0x10 40 0
+ 2.440088 2 0 ack 40 ------- 0 3.0 0.0 1 99 16081 0x18 40 0
- 2.440088 2 0 ack 40 ------- 0 3.0 0.0 1 99 16081 0x18 40 0
r 2.445128 2 0 ack 40 ------- 0 3.0 0.0 1 99 16081 0x18 40 0
+ 2.450704 2 3 tcp 576 ------- 0 0.0 3.0 16081 100 1 0x10 40 0
- 2.450704 2 3 tcp 576 ------- 0 0.0 3.0 16081 100 1 0x10 40 0
+ 2.45128 2 3 tcp 576 ------- 0 0.0 3.0 16617 101 1 0x10 40 0
- 2.456464 2 3 tcp 576 ------- 0 0.0 3.0 16617 101 1 0x10 40 0
r 2.556464 2 3 tcp 576 ------- 0 0.0 3.0 16081 100 1 0x10 40 0
r 2.562224 2 3 tcp 576 ------- 0 0.0 3.0 16617 101 1 0x10 40 0
+ 2.656864 2 0 ack 40 ------- 0 3.0 0.0 1 102 22513 0x18 40 0
- 2.656864 2 0 ack 40 ------- 0 3.0 0.0 1 102 22513 0x18 40 0
r 2.661904 2 0 ack 40 ------- 0 3.0 0.0 1 102 22513 0x18 40 0
+ 2.662624 2 0 ack 40 ------- 0 3.0 0.0 1 103 22513 0x18 40 0
- 2.662624 2 0 ack 40 ------- 0 3.0 0.0 1 103 22513 0x18 40 0
+ 2.66748 2 3 tcp 576 ------- 0 0.0 3.0 22513 104 1 0x10 40 0
- 2.66748 2 3 tcp 576 ------- 0 0.0 3.0 22513 104 1 0x10 40 0
r 2.667664 2 0 ack 40 ------- 0 3.0 0.0 1 103 22513 0x18 40 0
+ 2.668056 2 3 tcp 576 ------- 0 0.0 3.0 23049 105 1 0x10 40 0
+ 2.668632 2 3 tcp 576 ------- 0 0.0 3.0 23585 106 1 0x10 40 0
- 2.67324 2 3 tcp 576 ------- 0 0.0 3.0 23049 105 1 0x10 40 0
- 2.679 2 3 tcp 576 ------- 0 0.0 3.0 23585 106 1 0x10 40 0
r 2.77324 2 3 tcp 576 ------- 0 0.0 3.0 22513 104 1 0x10 40 0
r 2.779 2 3 tcp 576 ------- 0 0.0 3.0 23049 105 1 0x10 40 0
r 2.78476 2 3 tcp 576 ------- 0 0.0 3.0 23585 106 1 0x10 40 0
+ 2.87364 2 0 ack 40 ------- 0 3.0 0.0 1 107 23585 0x18 40 0
- 2.87364 2 0 ack 40 ------- 0 3.0 0.0 1 107 23585 0x18 40 0
r 2.87868 2 0 ack 40 ------- 0 3.0 0.0 1 107 23585 0x18 40 0
+ 2.8794 2 0 ack 40 ------- 0 3.0 0.0 1 108 23585 0x18 40 0
- 2.8794 2 0 ack 40 ------- 0 3.0 0.0 1 108 23585 0x18 40 0
+ 2.884256 2 3 tcp 576 ------- 0 0.0 3.0 24121 110 1 0x10 40 0
- 2.884256 2 3 tcp 576 ------- 0 0.0 3.0 24121 110 1 0x10 40 0
r 2.88444 2 0 ack 40 ------- 0 3.0 0.0 1 108 23585 0x18 40 0
+ 2.884832 2 3 tcp 576 ------- 0 0.0 3.0 24657 111 1 0x10 40 0
+ 2.88516 2 0 ack 40 ------- 0 3.0 0.0 1 109 24657 0x18 40 0
- 2.88516 2 0 ack 40 ------- 0 3.0 0.0 1 109 24657 0x18 40 0
+ 2.885408 2 3 tcp 576 ------- 0 0.0 3.0 25193 112 1 0x10 40 0
- 2.890016 2 3 tcp 576 ------- 0 0.0 3.0 24657 111 1 0x10 40 0
r 2.8902 2 0 ack 40 ------- 0 3.0 0.0 1 109 24657 0x18 40 0
- 2.895776 2 3 tcp 576 ------- 0 0.0 3.0 25193 112 1 0x10 40 0
+ 2.895776 2 3 tcp 576 ------- 0 0.0 3.0 25729 113 1 0x10 40 0
+ 2.896352 2 3 tcp 576 ------- 0 0.0 3.0 26265 114 1 0x18 40 0
- 2.901536 2 3 tcp 576 ------- 0 0.0 3.0 25729 113 1 0x10 40 0
- 2.907296 2 3 tcp 576 ------- 0 0.0 3.0 26265 114 1 0x18 40 0
r 2.990016 2 3 tcp 576 ------- 0 0.0 3.0 24121 110 1 0x10 40 0
r 2.995776 2 3 tcp 576 ------- 0 0.0 3.0 24657 111 1 0x10 40 0
r 3.001536 2 3 tcp 576 ------- 0 0.0 3.0 25193 112 1 0x10 40 0
r 3.007296 2 3 tcp 576 ------- 0 0.0 3.0 25729 113 1 0x10 40 0
r 3.013056 2 3 tcp 576 ------- 0 0.0 3.0 26265 114 1 0x18 40 0
+ 3.090416 2 0 ack 40 ------- 0 3.0 0.0 1 115 24657 0x18 40 0
- 3.090416 2 0 ack 40 ------- 0 3.0 0.0 1 115 24657 0x18 40 0
r 3.095456 2 0 ack 40 ------- 0 3.0 0.0 1 115 24657 0x18 40 0
+ 3.096176 2 0 ack 40 ------- 0 3.0 0.0 1 116 25729 0x18 40 0
- 3.096176 2 0 ack 40 ------- 0 3.0 0.0 1 116 25729 0x18 40 0
r 3.101216 2 0 ack 40 ------- 0 3.0 0.0 1 116 25729 0x18 40 0
+ 3.101936 2 0 ack 40 ------- 0 3.0 0.0 1 117 25729 0x18 40 0
- 3.101936 2 0 ack 40 ------- 0 3.0 0.0 1 117 25729 0x18 40 0
r 3.106976 2 0 ack 40 ------- 0 3.0 0.0 1 117 25729 0x18 40 0
+ 3.107696 2 0 ack 40 ------- 0 3.0 0.0 1 118 26801 0x18 40 0
- 3.107696 2 0 ack 40 ------- 0 3.0 0.0 1 118 26801 0x18 40 0
r 3.112736 2 0 ack 40 ------- 0 3.0 0.0 1 118 26801 0x18 40 0
+ 3.113456 2 0 ack 40 ------- 0 3.0 0.0 1 119 26801 0x18 40 0
- 3.113456 2 0 ack 40 ------- 0 3.0 0.0 1 119 26801 0x18 40 0
r 3.118496 2 0 ack 40 ------- 0 3.0 0.0 1 119 26801 0x18 40 0
+ 5.50504 2 3 tcp 40 ------- 0 0.0 3.0 26801 120 1 0x19 40 0
- 5.50504 2 3 tcp 40 ------- 0 0.0 3.0 26801 120 1 0x19 40 0
r 5.60544 2 3 tcp 40 ------- 0 0.0 3.0 26801 120 1 0x19 40 0
+ 5.70584 2 0 ack 40 ------- 0 3.0 0.0 1 121 26802 0x18 40 0
- 5.70584 2 0 ack 40 ------- 0 3.0 0.0 1 121 26802 0x18 40 0
+ 5.70624 2 0 ack 40 ------- 0 3.0 0.0 1 122 26802 0x19 40 0
- 5.70624 2 0 ack 40 ------- 0 3.0 0.0 1 122 26802 0x19 40 0
r 5.71088 2 0 ack 40 ------- 0 3.0 0.0 1 121 26802 0x18 40 0
r 5.71128 2 0 ack 40 ------- 0 3.0 0.0 1 122 26802 0x19 40 0
+ 5.71632 2 3 tcp 40 ------- 0 0.0 3.0 26802 123 2 0x18 40 0
- 5.71632 2 3 tcp 40 ------- 0 0.0 3.0 26802 123 2 0x18 40 0
r 5.81672 2 3 tcp 40 ------- 0 0.0 3.0 26802 123 2 0x18 40 0
