v testName delack
+ 0.00504 2 3 tcp 40 ------- 0 0.0 3.0 0 0 -1 0xa 40 0
- 0.00504 2 3 tcp 40 ------- 0 0.0 3.0 0 0 -1 0xa 40 0
r 0.10544 2 3 tcp 40 ------- 0 0.0 3.0 0 0 -1 0xa 40 0
+ 0.20584 2 0 ack 40 ------- 0 3.0 0.0 0 1 1 0x1a 40 0
- 0.20584 2 0 ack 40 ------- 0 3.0 0.0 0 1 1 0x1a 40 0
r 0.21088 2 0 ack 40 ------- 0 3.0 0.0 0 1 1 0x1a 40 0
+ 0.21592 2 3 tcp 40 ------- 0 0.0 3.0 1 2 1 0x10 40 0
- 0.21592 2 3 tcp 40 ------- 0 0.0 3.0 1 2 1 0x10 40 0
+ 0.216496 2 3 tcp 576 ------- 0 0.0 3.0 1 3 1 0x10 40 0
- 0.216496 2 3 tcp 576 ------- 0 0.0 3.0 1 3 1 0x10 40 0
r 0.31632 2 3 tcp 40 ------- 0 0.0 3.0 1 2 1 0x10 40 0
r 0.322256 2 3 tcp 576 ------- 0 0.0 3.0 1 3 1 0x10 40 0
+ 0.5004 2 0 ack 40 ------- 0 3.0 0.0 1 4 537 0x18 40 0
- 0.5004 2 0 ack 40 ------- 0 3.0 0.0 1 4 537 0x18 40 0
r 0.50544 2 0 ack 40 ------- 0 3.0 0.0 1 4 537 0x18 40 0
+ 0.511016 2 3 tcp 576 ------- 0 0.0 3.0 537 5 1 0x10 40 0
- 0.511016 2 3 tcp 576 ------- 0 0.0 3.0 537 5 1 0x10 40 0
+ 0.511592 2 3 tcp 576 ------- 0 0.0 3.0 1073 6 1 0x10 40 0
- 0.516776 2 3 tcp 576 ------- 0 0.0 3.0 1073 6 1 0x10 40 0
r 0.616776 2 3 tcp 576 ------- 0 0.0 3.0 537 5 1 0x10 40 0
r 0.622536 2 3 tcp 576 ------- 0 0.0 3.0 1073 6 1 0x10 40 0
+ 0.722936 2 0 ack 40 ------- 0 3.0 0.0 1 7 1609 0x18 40 0
- 0.722936 2 0 ack 40 ------- 0 3.0 0.0 1 7 1609 0x18 40 0
r 0.727976 2 0 ack 40 ------- 0 3.0 0.0 1 7 1609 0x18 40 0
+ 0.733552 2 3 tcp 576 ------- 0 0.0 3.0 1609 8 1 0x10 40 0
- 0.733552 2 3 tcp 576 ------- 0 0.0 3.0 1609 8 1 0x10 40 0
+ 0.734128 2 3 tcp 576 ------- 0 0.0 3.0 2145 9 1 0x10 40 0
+ 0.734704 2 3 tcp 576 ------- 0 0.0 3.0 2681 10 1 0x10 40 0
- 0.739312 2 3 tcp 576 ------- 0 0.0 3.0 2145 9 1 0x10 40 0
- 0.745072 2 3 tcp 576 ------- 0 0.0 3.0 2681 10 1 0x10 40 0
r 0.839312 2 3 tcp 576 ------- 0 0.0 3.0 1609 8 1 0x10 40 0
r 0.845072 2 3 tcp 576 ------- 0 0.0 3.0 2145 9 1 0x10 40 0
r 0.850832 2 3 tcp 576 ------- 0 0.0 3.0 2681 10 1 0x10 40 0
+ 0.945472 2 0 ack 40 ------- 0 3.0 0.0 1 11 2681 0x18 40 0
- 0.945472 2 0 ack 40 ------- 0 3.0 0.0 1 11 2681 0x18 40 0
r 0.950512 2 0 ack 40 ------- 0 3.0 0.0 1 11 2681 0x18 40 0
+ 0.956088 2 3 tcp 576 ------- 0 0.0 3.0 3217 13 1 0x10 40 0
- 0.956088 2 3 tcp 576 ------- 0 0.0 3.0 3217 13 1 0x10 40 0
+ 0.956664 2 3 tcp 576 ------- 0 0.0 3.0 3753 14 1 0x10 40 0
+ 0.95724 2 3 tcp 576 ------- 0 0.0 3.0 4289 15 1 0x10 40 0
- 0.961848 2 3 tcp 576 ------- 0 0.0 3.0 3753 14 1 0x10 40 0
- 0.967608 2 3 tcp 576 ------- 0 0.0 3.0 4289 15 1 0x10 40 0
+ 1.0004 2 0 ack 40 ------- 0 3.0 0.0 1 12 3217 0x18 40 0
- 1.0004 2 0 ack 40 ------- 0 3.0 0.0 1 12 3217 0x18 40 0
r 1.00544 2 0 ack 40 ------- 0 3.0 0.0 1 12 3217 0x18 40 0
+ 1.011016 2 3 tcp 576 ------- 0 0.0 3.0 4825 16 1 0x10 40 0
- 1.011016 2 3 tcp 576 ------- 0 0.0 3.0 4825 16 1 0x10 40 0
+ 1.011592 2 3 tcp 576 ------- 0 0.0 3.0 5361 17 1 0x10 40 0
- 1.016776 2 3 tcp 576 ------- 0 0.0 3.0 5361 17 1 0x10 40 0
r 1.061848 2 3 tcp 576 ------- 0 0.0 3.0 3217 13 1 0x10 40 0
r 1.067608 2 3 tcp 576 ------- 0 0.0 3.0 3753 14 1 0x10 40 0
r 1.073368 2 3 tcp 576 ------- 0 0.0 3.0 4289 15 1 0x10 40 0
r 1.116776 2 3 tcp 576 ------- 0 0.0 3.0 4825 16 1 0x10 40 0
r 1.122536 2 3 tcp 576 ------- 0 0.0 3.0 5361 17 1 0x10 40 0
+ 1.168008 2 0 ack 40 ------- 0 3.0 0.0 1 18 4289 0x18 40 0
- 1.168008 2 0 ack 40 ------- 0 3.0 0.0 1 18 4289 0x18 40 0
r 1.173048 2 0 ack 40 ------- 0 3.0 0.0 1 18 4289 0x18 40 0
+ 1.178624 2 3 tcp 576 ------- 0 0.0 3.0 5897 21 1 0x10 40 0
- 1.178624 2 3 tcp 576 ------- 0 0.0 3.0 5897 21 1 0x10 40 0
+ 1.1792 2 3 tcp 576 ------- 0 0.0 3.0 6433 22 1 0x10 40 0
+ 1.179776 2 3 tcp 576 ------- 0 0.0 3.0 6969 23 1 0x10 40 0
- 1.184384 2 3 tcp 576 ------- 0 0.0 3.0 6433 22 1 0x10 40 0
- 1.190144 2 3 tcp 576 ------- 0 0.0 3.0 6969 23 1 0x10 40 0
+ 1.2004 2 0 ack 40 ------- 0 3.0 0.0 1 19 4825 0x18 40 0
- 1.2004 2 0 ack 40 ------- 0 3.0 0.0 1 19 4825 0x18 40 0
r 1.20544 2 0 ack 40 ------- 0 3.0 0.0 1 19 4825 0x18 40 0
+ 1.211016 2 3 tcp 576 ------- 0 0.0 3.0 7505 24 1 0x10 40 0
- 1.211016 2 3 tcp 576 ------- 0 0.0 3.0 7505 24 1 0x10 40 0
+ 1.211592 2 3 tcp 576 ------- 0 0.0 3.0 8041 25 1 0x10 40 0
- 1.216776 2 3 tcp 576 ------- 0 0.0 3.0 8041 25 1 0x10 40 0
+ 1.222936 2 0 ack 40 ------- 0 3.0 0.0 1 20 5897 0x18 40 0
- 1.222936 2 0 ack 40 ------- 0 3.0 0.0 1 20 5897 0x18 40 0
r 1.227976 2 0 ack 40 ------- 0 3.0 0.0 1 20 5897 0x18 40 0
+ 1.233552 2 3 tcp 576 ------- 0 0.0 3.0 8577 26 1 0x10 40 0
- 1.233552 2 3 tcp 576 ------- 0 0.0 3.0 8577 26 1 0x10 40 0
+ 1.234128 2 3 tcp 576 ------- 0 0.0 3.0 9113 27 1 0x10 40 0
+ 1.234704 2 3 tcp 576 ------- 0 0.0 3.0 9649 28 1 0x10 40 0
- 1.239312 2 3 tcp 576 ------- 0 0.0 3.0 9113 27 1 0x10 40 0
- 1.245072 2 3 tcp 576 ------- 0 0.0 3.0 9649 28 1 0x10 40 0
r 1.284384 2 3 tcp 576 ------- 0 0.0 3.0 5897 21 1 0x10 40 0
r 1.290144 2 3 tcp 576 ------- 0 0.0 3.0 6433 22 1 0x10 40 0
r 1.295904 2 3 tcp 576 ------- 0 0.0 3.0 6969 23 1 0x10 40 0
r 1.316776 2 3 tcp 576 ------- 0 0.0 3.0 7505 24 1 0x10 40 0
r 1.322536 2 3 tcp 576 ------- 0 0.0 3.0 8041 25 1 0x10 40 0
r 1.339312 2 3 tcp 576 ------- 0 0.0 3.0 8577 26 1 0x10 40 0
r 1.345072 2 3 tcp 576 ------- 0 0.0 3.0 9113 27 1 0x10 40 0
r 1.350832 2 3 tcp 576 ------- 0 0.0 3.0 9649 28 1 0x10 40 0
+ 1.390544 2 0 ack 40 ------- 0 3.0 0.0 1 29 6969 0x18 40 0
- 1.390544 2 0 ack 40 ------- 0 3.0 0.0 1 29 6969 0x18 40 0
r 1.395584 2 0 ack 40 ------- 0 3.0 0.0 1 29 6969 0x18 40 0
+ 1.4004 2 0 ack 40 ------- 0 3.0 0.0 1 30 7505 0x18 40 0
- 1.4004 2 0 ack 40 ------- 0 3.0 0.0 1 30 7505 0x18 40 0
+ 1.40116 2 3 tcp 576 ------- 0 0.0 3.0 10185 33 1 0x10 40 0
- 1.40116 2 3 tcp 576 ------- 0 0.0 3.0 10185 33 1 0x10 40 0
+ 1.401736 2 3 tcp 576 ------- 0 0.0 3.0 10721 34 1 0x10 40 0
+ 1.402312 2 3 tcp 576 ------- 0 0.0 3.0 11257 35 1 0x10 40 0
r 1.40544 2 0 ack 40 ------- 0 3.0 0.0 1 30 7505 0x18 40 0
- 1.40692 2 3 tcp 576 ------- 0 0.0 3.0 10721 34 1 0x10 40 0
+ 1.411016 2 3 tcp 576 ------- 0 0.0 3.0 11793 37 1 0x10 40 0
+ 1.411592 2 3 tcp 576 ------- 0 0.0 3.0 12329 38 1 0x10 40 0
- 1.41268 2 3 tcp 576 ------- 0 0.0 3.0 11257 35 1 0x10 40 0
- 1.41844 2 3 tcp 576 ------- 0 0.0 3.0 11793 37 1 0x10 40 0
+ 1.422936 2 0 ack 40 ------- 0 3.0 0.0 1 31 8577 0x18 40 0
- 1.422936 2 0 ack 40 ------- 0 3.0 0.0 1 31 8577 0x18 40 0
- 1.4242 2 3 tcp 576 ------- 0 0.0 3.0 12329 38 1 0x10 40 0
r 1.427976 2 0 ack 40 ------- 0 3.0 0.0 1 31 8577 0x18 40 0
+ 1.433552 2 3 tcp 576 ------- 0 0.0 3.0 12865 39 1 0x10 40 0
- 1.433552 2 3 tcp 576 ------- 0 0.0 3.0 12865 39 1 0x10 40 0
+ 1.434128 2 3 tcp 576 ------- 0 0.0 3.0 13401 40 1 0x10 40 0
+ 1.434704 2 3 tcp 576 ------- 0 0.0 3.0 13937 41 1 0x10 40 0
- 1.439312 2 3 tcp 576 ------- 0 0.0 3.0 13401 40 1 0x10 40 0
- 1.445072 2 3 tcp 576 ------- 0 0.0 3.0 13937 41 1 0x10 40 0
+ 1.445472 2 0 ack 40 ------- 0 3.0 0.0 1 32 9649 0x18 40 0
- 1.445472 2 0 ack 40 ------- 0 3.0 0.0 1 32 9649 0x18 40 0
r 1.450512 2 0 ack 40 ------- 0 3.0 0.0 1 32 9649 0x18 40 0
+ 1.456088 2 3 tcp 576 ------- 0 0.0 3.0 14473 42 1 0x10 40 0
- 1.456088 2 3 tcp 576 ------- 0 0.0 3.0 14473 42 1 0x10 40 0
+ 1.456664 2 3 tcp 576 ------- 0 0.0 3.0 15009 43 1 0x10 40 0
+ 1.45724 2 3 tcp 576 ------- 0 0.0 3.0 15545 44 1 0x10 40 0
- 1.461848 2 3 tcp 576 ------- 0 0.0 3.0 15009 43 1 0x10 40 0
- 1.467608 2 3 tcp 576 ------- 0 0.0 3.0 15545 44 1 0x10 40 0
+ 1.5004 2 0 ack 40 ------- 0 3.0 0.0 1 36 10185 0x18 40 0
- 1.5004 2 0 ack 40 ------- 0 3.0 0.0 1 36 10185 0x18 40 0
r 1.50544 2 0 ack 40 ------- 0 3.0 0.0 1 36 10185 0x18 40 0
r 1.50692 2 3 tcp 576 ------- 0 0.0 3.0 10185 33 1 0x10 40 0
+ 1.511016 2 3 tcp 576 ------- 0 0.0 3.0 16081 45 1 0x10 40 0
- 1.511016 2 3 tcp 576 ------- 0 0.0 3.0 16081 45 1 0x10 40 0
+ 1.511592 2 3 tcp 576 ------- 0 0.0 3.0 16617 46 1 0x10 40 0
r 1.51268 2 3 tcp 576 ------- 0 0.0 3.0 10721 34 1 0x10 40 0
- 1.516776 2 3 tcp 576 ------- 0 0.0 3.0 16617 46 1 0x10 40 0
r 1.51844 2 3 tcp 576 ------- 0 0.0 3.0 11257 35 1 0x10 40 0
r 1.5242 2 3 tcp 576 ------- 0 0.0 3.0 11793 37 1 0x10 40 0
r 1.52996 2 3 tcp 576 ------- 0 0.0 3.0 12329 38 1 0x10 40 0
r 1.539312 2 3 tcp 576 ------- 0 0.0 3.0 12865 39 1 0x10 40 0
r 1.545072 2 3 tcp 576 ------- 0 0.0 3.0 13401 40 1 0x10 40 0
r 1.550832 2 3 tcp 576 ------- 0 0.0 3.0 13937 41 1 0x10 40 0
r 1.561848 2 3 tcp 576 ------- 0 0.0 3.0 14473 42 1 0x10 40 0
r 1.567608 2 3 tcp 576 ------- 0 0.0 3.0 15009 43 1 0x10 40 0
r 1.573368 2 3 tcp 576 ------- 0 0.0 3.0 15545 44 1 0x10 40 0
+ 1.61308 2 0 ack 40 ------- 0 3.0 0.0 1 47 11257 0x18 40 0
- 1.61308 2 0 ack 40 ------- 0 3.0 0.0 1 47 11257 0x18 40 0
r 1.616776 2 3 tcp 576 ------- 0 0.0 3.0 16081 45 1 0x10 40 0
r 1.61812 2 0 ack 40 ------- 0 3.0 0.0 1 47 11257 0x18 40 0
r 1.622536 2 3 tcp 576 ------- 0 0.0 3.0 16617 46 1 0x10 40 0
+ 1.623696 2 3 tcp 576 ------- 0 0.0 3.0 17153 53 1 0x10 40 0
- 1.623696 2 3 tcp 576 ------- 0 0.0 3.0 17153 53 1 0x10 40 0
+ 1.624272 2 3 tcp 576 ------- 0 0.0 3.0 17689 54 1 0x10 40 0
+ 1.6246 2 0 ack 40 ------- 0 3.0 0.0 1 48 12329 0x18 40 0
- 1.6246 2 0 ack 40 ------- 0 3.0 0.0 1 48 12329 0x18 40 0
+ 1.624848 2 3 tcp 576 ------- 0 0.0 3.0 18225 55 1 0x10 40 0
- 1.629456 2 3 tcp 576 ------- 0 0.0 3.0 17689 54 1 0x10 40 0
r 1.62964 2 0 ack 40 ------- 0 3.0 0.0 1 48 12329 0x18 40 0
- 1.635216 2 3 tcp 576 ------- 0 0.0 3.0 18225 55 1 0x10 40 0
+ 1.635216 2 3 tcp 576 ------- 0 0.0 3.0 18761 57 1 0x10 40 0
+ 1.635792 2 3 tcp 576 ------- 0 0.0 3.0 19297 58 1 0x10 40 0
+ 1.636368 2 3 tcp 576 ------- 0 0.0 3.0 19833 59 1 0x10 40 0
+ 1.639712 2 0 ack 40 ------- 0 3.0 0.0 1 49 13401 0x18 40 0
- 1.639712 2 0 ack 40 ------- 0 3.0 0.0 1 49 13401 0x18 40 0
- 1.640976 2 3 tcp 576 ------- 0 0.0 3.0 18761 57 1 0x10 40 0
r 1.644752 2 0 ack 40 ------- 0 3.0 0.0 1 49 13401 0x18 40 0
- 1.646736 2 3 tcp 576 ------- 0 0.0 3.0 19297 58 1 0x10 40 0
+ 1.650328 2 3 tcp 576 ------- 0 0.0 3.0 20369 60 1 0x10 40 0
+ 1.650904 2 3 tcp 576 ------- 0 0.0 3.0 20905 61 1 0x10 40 0
+ 1.651232 2 0 ack 40 ------- 0 3.0 0.0 1 50 14473 0x18 40 0
- 1.651232 2 0 ack 40 ------- 0 3.0 0.0 1 50 14473 0x18 40 0
+ 1.65148 2 3 tcp 576 ------- 0 0.0 3.0 21441 62 1 0x10 40 0
- 1.652496 2 3 tcp 576 ------- 0 0.0 3.0 19833 59 1 0x10 40 0
r 1.656272 2 0 ack 40 ------- 0 3.0 0.0 1 50 14473 0x18 40 0
- 1.658256 2 3 tcp 576 ------- 0 0.0 3.0 20369 60 1 0x10 40 0
+ 1.661848 2 3 tcp 576 ------- 0 0.0 3.0 21977 63 1 0x10 40 0
+ 1.662424 2 3 tcp 576 ------- 0 0.0 3.0 22513 64 1 0x10 40 0
+ 1.663 2 3 tcp 576 ------- 0 0.0 3.0 23049 65 1 0x10 40 0
- 1.664016 2 3 tcp 576 ------- 0 0.0 3.0 20905 61 1 0x10 40 0
+ 1.668008 2 0 ack 40 ------- 0 3.0 0.0 1 51 15545 0x18 40 0
- 1.668008 2 0 ack 40 ------- 0 3.0 0.0 1 51 15545 0x18 40 0
- 1.669776 2 3 tcp 576 ------- 0 0.0 3.0 21441 62 1 0x10 40 0
r 1.673048 2 0 ack 40 ------- 0 3.0 0.0 1 51 15545 0x18 40 0
- 1.675536 2 3 tcp 576 ------- 0 0.0 3.0 21977 63 1 0x10 40 0
+ 1.678624 2 3 tcp 576 ------- 0 0.0 3.0 23585 66 1 0x10 40 0
+ 1.6792 2 3 tcp 576 ------- 0 0.0 3.0 24121 67 1 0x10 40 0
+ 1.679776 2 3 tcp 576 ------- 0 0.0 3.0 24657 68 1 0x10 40 0
- 1.681296 2 3 tcp 576 ------- 0 0.0 3.0 22513 64 1 0x10 40 0
- 1.687056 2 3 tcp 576 ------- 0 0.0 3.0 23049 65 1 0x10 40 0
- 1.692816 2 3 tcp 576 ------- 0 0.0 3.0 23585 66 1 0x10 40 0
- 1.698576 2 3 tcp 576 ------- 0 0.0 3.0 24121 67 1 0x10 40 0
+ 1.7004 2 0 ack 40 ------- 0 3.0 0.0 1 52 16081 0x18 40 0
- 1.7004 2 0 ack 40 ------- 0 3.0 0.0 1 52 16081 0x18 40 0
- 1.704336 2 3 tcp 576 ------- 0 0.0 3.0 24657 68 1 0x10 40 0
r 1.70544 2 0 ack 40 ------- 0 3.0 0.0 1 52 16081 0x18 40 0
+ 1.711016 2 3 tcp 576 ------- 0 0.0 3.0 25193 69 1 0x10 40 0
- 1.711016 2 3 tcp 576 ------- 0 0.0 3.0 25193 69 1 0x10 40 0
+ 1.711592 2 3 tcp 576 ------- 0 0.0 3.0 25729 70 1 0x10 40 0
- 1.716776 2 3 tcp 576 ------- 0 0.0 3.0 25729 70 1 0x10 40 0
+ 1.722936 2 0 ack 40 ------- 0 3.0 0.0 1 56 17153 0x18 40 0
- 1.722936 2 0 ack 40 ------- 0 3.0 0.0 1 56 17153 0x18 40 0
r 1.727976 2 0 ack 40 ------- 0 3.0 0.0 1 56 17153 0x18 40 0
r 1.729456 2 3 tcp 576 ------- 0 0.0 3.0 17153 53 1 0x10 40 0
+ 1.733552 2 3 tcp 576 ------- 0 0.0 3.0 26265 71 1 0x10 40 0
- 1.733552 2 3 tcp 576 ------- 0 0.0 3.0 26265 71 1 0x10 40 0
+ 1.734128 2 3 tcp 576 ------- 0 0.0 3.0 26801 72 1 0x10 40 0
+ 1.734704 2 3 tcp 576 ------- 0 0.0 3.0 27337 73 1 0x10 40 0
r 1.735216 2 3 tcp 576 ------- 0 0.0 3.0 17689 54 1 0x10 40 0
- 1.739312 2 3 tcp 576 ------- 0 0.0 3.0 26801 72 1 0x10 40 0
r 1.740976 2 3 tcp 576 ------- 0 0.0 3.0 18225 55 1 0x10 40 0
- 1.745072 2 3 tcp 576 ------- 0 0.0 3.0 27337 73 1 0x10 40 0
r 1.746736 2 3 tcp 576 ------- 0 0.0 3.0 18761 57 1 0x10 40 0
r 1.752496 2 3 tcp 576 ------- 0 0.0 3.0 19297 58 1 0x10 40 0
r 1.758256 2 3 tcp 576 ------- 0 0.0 3.0 19833 59 1 0x10 40 0
r 1.764016 2 3 tcp 576 ------- 0 0.0 3.0 20369 60 1 0x10 40 0
r 1.769776 2 3 tcp 576 ------- 0 0.0 3.0 20905 61 1 0x10 40 0
r 1.775536 2 3 tcp 576 ------- 0 0.0 3.0 21441 62 1 0x10 40 0
r 1.781296 2 3 tcp 576 ------- 0 0.0 3.0 21977 63 1 0x10 40 0
r 1.787056 2 3 tcp 576 ------- 0 0.0 3.0 22513 64 1 0x10 40 0
r 1.792816 2 3 tcp 576 ------- 0 0.0 3.0 23049 65 1 0x10 40 0
r 1.798576 2 3 tcp 576 ------- 0 0.0 3.0 23585 66 1 0x10 40 0
r 1.804336 2 3 tcp 576 ------- 0 0.0 3.0 24121 67 1 0x10 40 0
r 1.810096 2 3 tcp 576 ------- 0 0.0 3.0 24657 68 1 0x10 40 0
r 1.816776 2 3 tcp 576 ------- 0 0.0 3.0 25193 69 1 0x10 40 0
r 1.822536 2 3 tcp 576 ------- 0 0.0 3.0 25729 70 1 0x10 40 0
+ 1.835616 2 0 ack 40 ------- 0 3.0 0.0 1 74 18225 0x18 40 0
- 1.835616 2 0 ack 40 ------- 0 3.0 0.0 1 74 18225 0x18 40 0
r 1.839312 2 3 tcp 576 ------- 0 0.0 3.0 26265 71 1 0x10 40 0
r 1.840656 2 0 ack 40 ------- 0 3.0 0.0 1 74 18225 0x18 40 0
r 1.845072 2 3 tcp 576 ------- 0 0.0 3.0 26801 72 1 0x10 40 0
+ 1.846232 2 3 tcp 576 ------- 0 0.0 3.0 27873 83 1 0x10 40 0
- 1.846232 2 3 tcp 576 ------- 0 0.0 3.0 27873 83 1 0x10 40 0
+ 1.846808 2 3 tcp 576 ------- 0 0.0 3.0 28409 84 1 0x10 40 0
+ 1.847136 2 0 ack 40 ------- 0 3.0 0.0 1 75 19297 0x18 40 0
- 1.847136 2 0 ack 40 ------- 0 3.0 0.0 1 75 19297 0x18 40 0
+ 1.847384 2 3 tcp 576 ------- 0 0.0 3.0 28945 85 1 0x10 40 0
r 1.850832 2 3 tcp 576 ------- 0 0.0 3.0 27337 73 1 0x10 40 0
- 1.851992 2 3 tcp 576 ------- 0 0.0 3.0 28409 84 1 0x10 40 0
r 1.852176 2 0 ack 40 ------- 0 3.0 0.0 1 75 19297 0x18 40 0
- 1.857752 2 3 tcp 576 ------- 0 0.0 3.0 28945 85 1 0x10 40 0
+ 1.857752 2 3 tcp 576 ------- 0 0.0 3.0 29481 87 1 0x10 40 0
+ 1.858328 2 3 tcp 576 ------- 0 0.0 3.0 30017 88 1 0x10 40 0
+ 1.858656 2 0 ack 40 ------- 0 3.0 0.0 1 76 20369 0x18 40 0
- 1.858656 2 0 ack 40 ------- 0 3.0 0.0 1 76 20369 0x18 40 0
+ 1.858904 2 3 tcp 576 ------- 0 0.0 3.0 30553 89 1 0x10 40 0
- 1.863512 2 3 tcp 576 ------- 0 0.0 3.0 29481 87 1 0x10 40 0
r 1.863696 2 0 ack 40 ------- 0 3.0 0.0 1 76 20369 0x18 40 0
- 1.869272 2 3 tcp 576 ------- 0 0.0 3.0 30017 88 1 0x10 40 0
+ 1.869272 2 3 tcp 576 ------- 0 0.0 3.0 31089 90 1 0x10 40 0
+ 1.869848 2 3 tcp 576 ------- 0 0.0 3.0 31625 91 1 0x10 40 0
+ 1.870176 2 0 ack 40 ------- 0 3.0 0.0 1 77 21441 0x18 40 0
- 1.870176 2 0 ack 40 ------- 0 3.0 0.0 1 77 21441 0x18 40 0
+ 1.870424 2 3 tcp 576 ------- 0 0.0 3.0 32161 92 1 0x10 40 0
- 1.875032 2 3 tcp 576 ------- 0 0.0 3.0 30553 89 1 0x10 40 0
r 1.875216 2 0 ack 40 ------- 0 3.0 0.0 1 77 21441 0x18 40 0
- 1.880792 2 3 tcp 576 ------- 0 0.0 3.0 31089 90 1 0x10 40 0
+ 1.880792 2 3 tcp 576 ------- 0 0.0 3.0 32697 93 1 0x10 40 0
+ 1.881368 2 3 tcp 576 ------- 0 0.0 3.0 33233 94 1 0x10 40 0
+ 1.881696 2 0 ack 40 ------- 0 3.0 0.0 1 78 22513 0x18 40 0
- 1.881696 2 0 ack 40 ------- 0 3.0 0.0 1 78 22513 0x18 40 0
+ 1.881944 2 3 tcp 576 ------- 0 0.0 3.0 33769 95 1 0x10 40 0
- 1.886552 2 3 tcp 576 ------- 0 0.0 3.0 31625 91 1 0x10 40 0
r 1.886736 2 0 ack 40 ------- 0 3.0 0.0 1 78 22513 0x18 40 0
- 1.892312 2 3 tcp 576 ------- 0 0.0 3.0 32161 92 1 0x10 40 0
+ 1.892312 2 3 tcp 576 ------- 0 0.0 3.0 34305 96 1 0x10 40 0
+ 1.892888 2 3 tcp 576 ------- 0 0.0 3.0 34841 97 1 0x10 40 0
+ 1.893216 2 0 ack 40 ------- 0 3.0 0.0 1 79 23585 0x18 40 0
- 1.893216 2 0 ack 40 ------- 0 3.0 0.0 1 79 23585 0x18 40 0
+ 1.893464 2 3 tcp 576 ------- 0 0.0 3.0 35377 98 1 0x10 40 0
d 1.893464 2 3 tcp 576 ------- 0 0.0 3.0 35377 98 1 0x10 40 0
- 1.898072 2 3 tcp 576 ------- 0 0.0 3.0 32697 93 1 0x10 40 0
r 1.898256 2 0 ack 40 ------- 0 3.0 0.0 1 79 23585 0x18 40 0
+ 1.9004 2 0 ack 40 ------- 0 3.0 0.0 1 80 24121 0x18 40 0
- 1.9004 2 0 ack 40 ------- 0 3.0 0.0 1 80 24121 0x18 40 0
- 1.903832 2 3 tcp 576 ------- 0 0.0 3.0 33233 94 1 0x10 40 0
+ 1.903832 2 3 tcp 576 ------- 0 0.0 3.0 35913 99 1 0x10 40 0
+ 1.904408 2 3 tcp 576 ------- 0 0.0 3.0 36449 100 1 0x10 40 0
+ 1.904984 2 3 tcp 576 ------- 0 0.0 3.0 36985 101 1 0x10 40 0
d 1.904984 2 3 tcp 576 ------- 0 0.0 3.0 36985 101 1 0x10 40 0
r 1.90544 2 0 ack 40 ------- 0 3.0 0.0 1 80 24121 0x18 40 0
- 1.909592 2 3 tcp 576 ------- 0 0.0 3.0 33769 95 1 0x10 40 0
+ 1.910496 2 0 ack 40 ------- 0 3.0 0.0 1 81 25193 0x18 40 0
- 1.910496 2 0 ack 40 ------- 0 3.0 0.0 1 81 25193 0x18 40 0
+ 1.911016 2 3 tcp 576 ------- 0 0.0 3.0 37521 103 1 0x10 40 0
+ 1.911592 2 3 tcp 576 ------- 0 0.0 3.0 38057 104 1 0x10 40 0
d 1.911592 2 3 tcp 576 ------- 0 0.0 3.0 38057 104 1 0x10 40 0
- 1.915352 2 3 tcp 576 ------- 0 0.0 3.0 34305 96 1 0x10 40 0
r 1.915536 2 0 ack 40 ------- 0 3.0 0.0 1 81 25193 0x18 40 0
- 1.921112 2 3 tcp 576 ------- 0 0.0 3.0 34841 97 1 0x10 40 0
+ 1.921112 2 3 tcp 576 ------- 0 0.0 3.0 38593 105 1 0x10 40 0
+ 1.921688 2 3 tcp 576 ------- 0 0.0 3.0 39129 106 1 0x10 40 0
+ 1.922264 2 3 tcp 576 ------- 0 0.0 3.0 39665 107 1 0x10 40 0
d 1.922264 2 3 tcp 576 ------- 0 0.0 3.0 39665 107 1 0x10 40 0
+ 1.922936 2 0 ack 40 ------- 0 3.0 0.0 1 82 26265 0x18 40 0
- 1.922936 2 0 ack 40 ------- 0 3.0 0.0 1 82 26265 0x18 40 0
- 1.926872 2 3 tcp 576 ------- 0 0.0 3.0 35913 99 1 0x10 40 0
r 1.927976 2 0 ack 40 ------- 0 3.0 0.0 1 82 26265 0x18 40 0
- 1.932632 2 3 tcp 576 ------- 0 0.0 3.0 36449 100 1 0x10 40 0
+ 1.933552 2 3 tcp 576 ------- 0 0.0 3.0 40201 108 1 0x10 40 0
+ 1.934128 2 3 tcp 576 ------- 0 0.0 3.0 40737 109 1 0x10 40 0
+ 1.934704 2 3 tcp 576 ------- 0 0.0 3.0 41273 110 1 0x10 40 0
d 1.934704 2 3 tcp 576 ------- 0 0.0 3.0 41273 110 1 0x10 40 0
- 1.938392 2 3 tcp 576 ------- 0 0.0 3.0 37521 103 1 0x10 40 0
- 1.944152 2 3 tcp 576 ------- 0 0.0 3.0 38593 105 1 0x10 40 0
+ 1.945472 2 0 ack 40 ------- 0 3.0 0.0 1 86 27337 0x18 40 0
- 1.945472 2 0 ack 40 ------- 0 3.0 0.0 1 86 27337 0x18 40 0
- 1.949912 2 3 tcp 576 ------- 0 0.0 3.0 39129 106 1 0x10 40 0
r 1.950512 2 0 ack 40 ------- 0 3.0 0.0 1 86 27337 0x18 40 0
r 1.951992 2 3 tcp 576 ------- 0 0.0 3.0 27873 83 1 0x10 40 0
- 1.955672 2 3 tcp 576 ------- 0 0.0 3.0 40201 108 1 0x10 40 0
+ 1.956088 2 3 tcp 576 ------- 0 0.0 3.0 41809 111 1 0x10 40 0
+ 1.956664 2 3 tcp 576 ------- 0 0.0 3.0 42345 112 1 0x10 40 0
+ 1.95724 2 3 tcp 576 ------- 0 0.0 3.0 42881 113 1 0x10 40 0
r 1.957752 2 3 tcp 576 ------- 0 0.0 3.0 28409 84 1 0x10 40 0
- 1.961432 2 3 tcp 576 ------- 0 0.0 3.0 40737 109 1 0x10 40 0
r 1.963512 2 3 tcp 576 ------- 0 0.0 3.0 28945 85 1 0x10 40 0
- 1.967192 2 3 tcp 576 ------- 0 0.0 3.0 41809 111 1 0x10 40 0
r 1.969272 2 3 tcp 576 ------- 0 0.0 3.0 29481 87 1 0x10 40 0
- 1.972952 2 3 tcp 576 ------- 0 0.0 3.0 42345 112 1 0x10 40 0
r 1.975032 2 3 tcp 576 ------- 0 0.0 3.0 30017 88 1 0x10 40 0
- 1.978712 2 3 tcp 576 ------- 0 0.0 3.0 42881 113 1 0x10 40 0
r 1.980792 2 3 tcp 576 ------- 0 0.0 3.0 30553 89 1 0x10 40 0
r 1.986552 2 3 tcp 576 ------- 0 0.0 3.0 31089 90 1 0x10 40 0
r 1.992312 2 3 tcp 576 ------- 0 0.0 3.0 31625 91 1 0x10 40 0
r 1.998072 2 3 tcp 576 ------- 0 0.0 3.0 32161 92 1 0x10 40 0
+ 2.0004 2 0 ack 40 ------- 0 3.0 0.0 1 102 27873 0x18 40 0
- 2.0004 2 0 ack 40 ------- 0 3.0 0.0 1 102 27873 0x18 40 0
r 2.003832 2 3 tcp 576 ------- 0 0.0 3.0 32697 93 1 0x10 40 0
r 2.00544 2 0 ack 40 ------- 0 3.0 0.0 1 102 27873 0x18 40 0
r 2.009592 2 3 tcp 576 ------- 0 0.0 3.0 33233 94 1 0x10 40 0
+ 2.011016 2 3 tcp 576 ------- 0 0.0 3.0 43417 119 1 0x10 40 0
- 2.011016 2 3 tcp 576 ------- 0 0.0 3.0 43417 119 1 0x10 40 0
+ 2.011592 2 3 tcp 576 ------- 0 0.0 3.0 43953 120 1 0x10 40 0
r 2.015352 2 3 tcp 576 ------- 0 0.0 3.0 33769 95 1 0x10 40 0
- 2.016776 2 3 tcp 576 ------- 0 0.0 3.0 43953 120 1 0x10 40 0
r 2.021112 2 3 tcp 576 ------- 0 0.0 3.0 34305 96 1 0x10 40 0
r 2.026872 2 3 tcp 576 ------- 0 0.0 3.0 34841 97 1 0x10 40 0
r 2.032632 2 3 tcp 576 ------- 0 0.0 3.0 35913 99 1 0x10 40 0
r 2.038392 2 3 tcp 576 ------- 0 0.0 3.0 36449 100 1 0x10 40 0
r 2.044152 2 3 tcp 576 ------- 0 0.0 3.0 37521 103 1 0x10 40 0
r 2.049912 2 3 tcp 576 ------- 0 0.0 3.0 38593 105 1 0x10 40 0
r 2.055672 2 3 tcp 576 ------- 0 0.0 3.0 39129 106 1 0x10 40 0
+ 2.058152 2 0 ack 40 ------- 0 3.0 0.0 1 114 28945 0x18 40 0
- 2.058152 2 0 ack 40 ------- 0 3.0 0.0 1 114 28945 0x18 40 0
r 2.061432 2 3 tcp 576 ------- 0 0.0 3.0 40201 108 1 0x10 40 0
r 2.063192 2 0 ack 40 ------- 0 3.0 0.0 1 114 28945 0x18 40 0
r 2.067192 2 3 tcp 576 ------- 0 0.0 3.0 40737 109 1 0x10 40 0
+ 2.068768 2 3 tcp 576 ------- 0 0.0 3.0 44489 129 1 0x10 40 0
- 2.068768 2 3 tcp 576 ------- 0 0.0 3.0 44489 129 1 0x10 40 0
+ 2.069344 2 3 tcp 576 ------- 0 0.0 3.0 45025 130 1 0x10 40 0
+ 2.069672 2 0 ack 40 ------- 0 3.0 0.0 1 115 30017 0x18 40 0
- 2.069672 2 0 ack 40 ------- 0 3.0 0.0 1 115 30017 0x18 40 0
+ 2.06992 2 3 tcp 576 ------- 0 0.0 3.0 45561 131 1 0x10 40 0
r 2.072952 2 3 tcp 576 ------- 0 0.0 3.0 41809 111 1 0x10 40 0
- 2.074528 2 3 tcp 576 ------- 0 0.0 3.0 45025 130 1 0x10 40 0
r 2.074712 2 0 ack 40 ------- 0 3.0 0.0 1 115 30017 0x18 40 0
r 2.078712 2 3 tcp 576 ------- 0 0.0 3.0 42345 112 1 0x10 40 0
- 2.080288 2 3 tcp 576 ------- 0 0.0 3.0 45561 131 1 0x10 40 0
+ 2.080288 2 3 tcp 576 ------- 0 0.0 3.0 46097 134 1 0x10 40 0
+ 2.080864 2 3 tcp 576 ------- 0 0.0 3.0 46633 135 1 0x10 40 0
+ 2.081192 2 0 ack 40 ------- 0 3.0 0.0 1 116 31089 0x18 40 0
- 2.081192 2 0 ack 40 ------- 0 3.0 0.0 1 116 31089 0x18 40 0
+ 2.08144 2 3 tcp 576 ------- 0 0.0 3.0 47169 136 1 0x10 40 0
r 2.084472 2 3 tcp 576 ------- 0 0.0 3.0 42881 113 1 0x10 40 0
- 2.086048 2 3 tcp 576 ------- 0 0.0 3.0 46097 134 1 0x10 40 0
r 2.086232 2 0 ack 40 ------- 0 3.0 0.0 1 116 31089 0x18 40 0
- 2.091808 2 3 tcp 576 ------- 0 0.0 3.0 46633 135 1 0x10 40 0
+ 2.091808 2 3 tcp 576 ------- 0 0.0 3.0 47705 139 1 0x10 40 0
+ 2.092384 2 3 tcp 576 ------- 0 0.0 3.0 48241 140 1 0x10 40 0
+ 2.092712 2 0 ack 40 ------- 0 3.0 0.0 1 117 32161 0x18 40 0
- 2.092712 2 0 ack 40 ------- 0 3.0 0.0 1 117 32161 0x18 40 0
+ 2.09296 2 3 tcp 576 ------- 0 0.0 3.0 48777 141 1 0x10 40 0
- 2.097568 2 3 tcp 576 ------- 0 0.0 3.0 47169 136 1 0x10 40 0
r 2.097752 2 0 ack 40 ------- 0 3.0 0.0 1 117 32161 0x18 40 0
+ 2.1004 2 0 ack 40 ------- 0 3.0 0.0 1 118 32697 0x18 40 0
- 2.1004 2 0 ack 40 ------- 0 3.0 0.0 1 118 32697 0x18 40 0
- 2.103328 2 3 tcp 576 ------- 0 0.0 3.0 47705 139 1 0x10 40 0
+ 2.103328 2 3 tcp 576 ------- 0 0.0 3.0 49313 142 1 0x10 40 0
+ 2.103904 2 3 tcp 576 ------- 0 0.0 3.0 49849 143 1 0x10 40 0
+ 2.10448 2 3 tcp 576 ------- 0 0.0 3.0 50385 144 1 0x10 40 0
r 2.10544 2 0 ack 40 ------- 0 3.0 0.0 1 118 32697 0x18 40 0
- 2.109088 2 3 tcp 576 ------- 0 0.0 3.0 48241 140 1 0x10 40 0
+ 2.109992 2 0 ack 40 ------- 0 3.0 0.0 1 121 33769 0x18 40 0
- 2.109992 2 0 ack 40 ------- 0 3.0 0.0 1 121 33769 0x18 40 0
+ 2.111016 2 3 tcp 576 ------- 0 0.0 3.0 50921 145 1 0x10 40 0
+ 2.111592 2 3 tcp 576 ------- 0 0.0 3.0 51457 146 1 0x10 40 0
d 2.111592 2 3 tcp 576 ------- 0 0.0 3.0 51457 146 1 0x10 40 0
- 2.114848 2 3 tcp 576 ------- 0 0.0 3.0 48777 141 1 0x10 40 0
r 2.115032 2 0 ack 40 ------- 0 3.0 0.0 1 121 33769 0x18 40 0
r 2.116776 2 3 tcp 576 ------- 0 0.0 3.0 43417 119 1 0x10 40 0
- 2.120608 2 3 tcp 576 ------- 0 0.0 3.0 49313 142 1 0x10 40 0
+ 2.120608 2 3 tcp 576 ------- 0 0.0 3.0 51993 147 1 0x10 40 0
+ 2.121184 2 3 tcp 576 ------- 0 0.0 3.0 52529 148 1 0x10 40 0
+ 2.121512 2 0 ack 40 ------- 0 3.0 0.0 1 122 34841 0x18 40 0
- 2.121512 2 0 ack 40 ------- 0 3.0 0.0 1 122 34841 0x18 40 0
+ 2.12176 2 3 tcp 576 ------- 0 0.0 3.0 53065 149 1 0x10 40 0
d 2.12176 2 3 tcp 576 ------- 0 0.0 3.0 53065 149 1 0x10 40 0
r 2.122536 2 3 tcp 576 ------- 0 0.0 3.0 43953 120 1 0x10 40 0
- 2.126368 2 3 tcp 576 ------- 0 0.0 3.0 49849 143 1 0x10 40 0
r 2.126552 2 0 ack 40 ------- 0 3.0 0.0 1 122 34841 0x18 40 0
- 2.132128 2 3 tcp 576 ------- 0 0.0 3.0 50385 144 1 0x10 40 0
+ 2.132128 2 3 tcp 576 ------- 0 0.0 3.0 53601 152 1 0x10 40 0
+ 2.132704 2 3 tcp 576 ------- 0 0.0 3.0 54137 153 1 0x10 40 0
+ 2.133032 2 0 ack 40 ------- 0 3.0 0.0 1 123 35377 0x18 40 0
- 2.133032 2 0 ack 40 ------- 0 3.0 0.0 1 123 35377 0x18 40 0
+ 2.13328 2 3 tcp 576 ------- 0 0.0 3.0 54673 154 1 0x10 40 0
d 2.13328 2 3 tcp 576 ------- 0 0.0 3.0 54673 154 1 0x10 40 0
- 2.137888 2 3 tcp 576 ------- 0 0.0 3.0 50921 145 1 0x10 40 0
r 2.138072 2 0 ack 40 ------- 0 3.0 0.0 1 123 35377 0x18 40 0
+ 2.138792 2 0 ack 40 ------- 0 3.0 0.0 1 124 35377 0x18 40 0
- 2.138792 2 0 ack 40 ------- 0 3.0 0.0 1 124 35377 0x18 40 0
- 2.143648 2 3 tcp 576 ------- 0 0.0 3.0 51993 147 1 0x10 40 0
+ 2.143648 2 3 tcp 576 ------- 0 0.0 3.0 55209 155 1 0x10 40 0
r 2.143832 2 0 ack 40 ------- 0 3.0 0.0 1 124 35377 0x18 40 0
+ 2.144224 2 3 tcp 576 ------- 0 0.0 3.0 55745 156 1 0x10 40 0
+ 2.144552 2 0 ack 40 ------- 0 3.0 0.0 1 125 35377 0x18 40 0
- 2.144552 2 0 ack 40 ------- 0 3.0 0.0 1 125 35377 0x18 40 0
- 2.149408 2 3 tcp 576 ------- 0 0.0 3.0 52529 148 1 0x10 40 0
r 2.149592 2 0 ack 40 ------- 0 3.0 0.0 1 125 35377 0x18 40 0
+ 2.150312 2 0 ack 40 ------- 0 3.0 0.0 1 126 35377 0x18 40 0
- 2.150312 2 0 ack 40 ------- 0 3.0 0.0 1 126 35377 0x18 40 0
- 2.155168 2 3 tcp 576 ------- 0 0.0 3.0 53601 152 1 0x10 40 0
r 2.155352 2 0 ack 40 ------- 0 3.0 0.0 1 126 35377 0x18 40 0
+ 2.156072 2 0 ack 40 ------- 0 3.0 0.0 1 127 35377 0x18 40 0
- 2.156072 2 0 ack 40 ------- 0 3.0 0.0 1 127 35377 0x18 40 0
- 2.160928 2 3 tcp 576 ------- 0 0.0 3.0 54137 153 1 0x10 40 0
+ 2.160928 2 3 tcp 576 ------- 0 0.0 3.0 35377 157 1 0x10 40 0
r 2.161112 2 0 ack 40 ------- 0 3.0 0.0 1 127 35377 0x18 40 0
+ 2.161832 2 0 ack 40 ------- 0 3.0 0.0 1 128 35377 0x18 40 0
- 2.161832 2 0 ack 40 ------- 0 3.0 0.0 1 128 35377 0x18 40 0
- 2.166688 2 3 tcp 576 ------- 0 0.0 3.0 55209 155 1 0x10 40 0
r 2.166872 2 0 ack 40 ------- 0 3.0 0.0 1 128 35377 0x18 40 0
+ 2.167592 2 0 ack 40 ------- 0 3.0 0.0 1 132 35377 0x18 40 0
- 2.167592 2 0 ack 40 ------- 0 3.0 0.0 1 132 35377 0x18 40 0
- 2.172448 2 3 tcp 576 ------- 0 0.0 3.0 55745 156 1 0x10 40 0
r 2.172632 2 0 ack 40 ------- 0 3.0 0.0 1 132 35377 0x18 40 0
+ 2.173352 2 0 ack 40 ------- 0 3.0 0.0 1 133 35377 0x18 40 0
- 2.173352 2 0 ack 40 ------- 0 3.0 0.0 1 133 35377 0x18 40 0
r 2.174528 2 3 tcp 576 ------- 0 0.0 3.0 44489 129 1 0x10 40 0
- 2.178208 2 3 tcp 576 ------- 0 0.0 3.0 35377 157 1 0x10 40 0
r 2.178392 2 0 ack 40 ------- 0 3.0 0.0 1 133 35377 0x18 40 0
+ 2.179112 2 0 ack 40 ------- 0 3.0 0.0 1 137 35377 0x18 40 0
- 2.179112 2 0 ack 40 ------- 0 3.0 0.0 1 137 35377 0x18 40 0
r 2.180288 2 3 tcp 576 ------- 0 0.0 3.0 45025 130 1 0x10 40 0
r 2.184152 2 0 ack 40 ------- 0 3.0 0.0 1 137 35377 0x18 40 0
+ 2.184872 2 0 ack 40 ------- 0 3.0 0.0 1 138 35377 0x18 40 0
- 2.184872 2 0 ack 40 ------- 0 3.0 0.0 1 138 35377 0x18 40 0
r 2.186048 2 3 tcp 576 ------- 0 0.0 3.0 45561 131 1 0x10 40 0
r 2.189912 2 0 ack 40 ------- 0 3.0 0.0 1 138 35377 0x18 40 0
r 2.191808 2 3 tcp 576 ------- 0 0.0 3.0 46097 134 1 0x10 40 0
r 2.197568 2 3 tcp 576 ------- 0 0.0 3.0 46633 135 1 0x10 40 0
r 2.203328 2 3 tcp 576 ------- 0 0.0 3.0 47169 136 1 0x10 40 0
r 2.209088 2 3 tcp 576 ------- 0 0.0 3.0 47705 139 1 0x10 40 0
r 2.214848 2 3 tcp 576 ------- 0 0.0 3.0 48241 140 1 0x10 40 0
+ 2.217176 2 0 ack 40 ------- 0 3.0 0.0 1 150 35377 0x18 40 0
- 2.217176 2 0 ack 40 ------- 0 3.0 0.0 1 150 35377 0x18 40 0
r 2.220608 2 3 tcp 576 ------- 0 0.0 3.0 48777 141 1 0x10 40 0
r 2.222216 2 0 ack 40 ------- 0 3.0 0.0 1 150 35377 0x18 40 0
+ 2.222936 2 0 ack 40 ------- 0 3.0 0.0 1 151 35377 0x18 40 0
- 2.222936 2 0 ack 40 ------- 0 3.0 0.0 1 151 35377 0x18 40 0
r 2.226368 2 3 tcp 576 ------- 0 0.0 3.0 49313 142 1 0x10 40 0
r 2.227976 2 0 ack 40 ------- 0 3.0 0.0 1 151 35377 0x18 40 0
r 2.232128 2 3 tcp 576 ------- 0 0.0 3.0 49849 143 1 0x10 40 0
r 2.237888 2 3 tcp 576 ------- 0 0.0 3.0 50385 144 1 0x10 40 0
r 2.243648 2 3 tcp 576 ------- 0 0.0 3.0 50921 145 1 0x10 40 0
r 2.249408 2 3 tcp 576 ------- 0 0.0 3.0 51993 147 1 0x10 40 0
r 2.255168 2 3 tcp 576 ------- 0 0.0 3.0 52529 148 1 0x10 40 0
r 2.260928 2 3 tcp 576 ------- 0 0.0 3.0 53601 152 1 0x10 40 0
r 2.266688 2 3 tcp 576 ------- 0 0.0 3.0 54137 153 1 0x10 40 0
r 2.272448 2 3 tcp 576 ------- 0 0.0 3.0 55209 155 1 0x10 40 0
+ 2.274928 2 0 ack 40 ------- 0 3.0 0.0 1 158 35377 0x18 40 0
- 2.274928 2 0 ack 40 ------- 0 3.0 0.0 1 158 35377 0x18 40 0
r 2.278208 2 3 tcp 576 ------- 0 0.0 3.0 55745 156 1 0x10 40 0
r 2.279968 2 0 ack 40 ------- 0 3.0 0.0 1 158 35377 0x18 40 0
+ 2.280688 2 0 ack 40 ------- 0 3.0 0.0 1 159 35377 0x18 40 0
- 2.280688 2 0 ack 40 ------- 0 3.0 0.0 1 159 35377 0x18 40 0
r 2.283968 2 3 tcp 576 ------- 0 0.0 3.0 35377 157 1 0x10 40 0
r 2.285728 2 0 ack 40 ------- 0 3.0 0.0 1 159 35377 0x18 40 0
+ 2.286448 2 0 ack 40 ------- 0 3.0 0.0 1 160 35377 0x18 40 0
- 2.286448 2 0 ack 40 ------- 0 3.0 0.0 1 160 35377 0x18 40 0
r 2.291488 2 0 ack 40 ------- 0 3.0 0.0 1 160 35377 0x18 40 0
+ 2.292208 2 0 ack 40 ------- 0 3.0 0.0 1 161 35377 0x18 40 0
- 2.292208 2 0 ack 40 ------- 0 3.0 0.0 1 161 35377 0x18 40 0
r 2.297248 2 0 ack 40 ------- 0 3.0 0.0 1 161 35377 0x18 40 0
+ 2.297968 2 0 ack 40 ------- 0 3.0 0.0 1 162 35377 0x18 40 0
- 2.297968 2 0 ack 40 ------- 0 3.0 0.0 1 162 35377 0x18 40 0
r 2.303008 2 0 ack 40 ------- 0 3.0 0.0 1 162 35377 0x18 40 0
+ 2.303728 2 0 ack 40 ------- 0 3.0 0.0 1 163 35377 0x18 40 0
- 2.303728 2 0 ack 40 ------- 0 3.0 0.0 1 163 35377 0x18 40 0
r 2.308768 2 0 ack 40 ------- 0 3.0 0.0 1 163 35377 0x18 40 0
+ 2.309488 2 0 ack 40 ------- 0 3.0 0.0 1 164 35377 0x18 40 0
- 2.309488 2 0 ack 40 ------- 0 3.0 0.0 1 164 35377 0x18 40 0
r 2.314528 2 0 ack 40 ------- 0 3.0 0.0 1 164 35377 0x18 40 0