v testName droppedsecondseg
+ 0.70504 2 3 tcp 40 ------- 0 0.0 3.0 0 0 -1 0xa 40 0
- 0.70504 2 3 tcp 40 ------- 0 0.0 3.0 0 0 -1 0xa 40 0
r 0.80544 2 3 tcp 40 ------- 0 0.0 3.0 0 0 -1 0xa 40 0
+ 0.90584 2 0 ack 40 ------- 0 3.0 0.0 0 1 1 0x1a 40 0
- 0.90584 2 0 ack 40 ------- 0 3.0 0.0 0 1 1 0x1a 40 0
r 0.91088 2 0 ack 40 ------- 0 3.0 0.0 0 1 1 0x1a 40 0
+ 0.91592 2 3 tcp 40 ------- 0 0.0 3.0 1 2 1 0x10 40 0
- 0.91592 2 3 tcp 40 ------- 0 0.0 3.0 1 2 1 0x10 40 0
+ 0.916496 2 3 tcp 576 ------- 0 0.0 3.0 1 3 1 0x10 40 0
- 0.916496 2 3 tcp 576 ------- 0 0.0 3.0 1 3 1 0x10 40 0
r 1.01632 2 3 tcp 40 ------- 0 0.0 3.0 1 2 1 0x10 40 0
r 1.022256 2 3 tcp 576 ------- 0 0.0 3.0 1 3 1 0x10 40 0
+ 1.122656 2 0 ack 40 ------- 0 3.0 0.0 1 4 537 0x18 40 0
- 1.122656 2 0 ack 40 ------- 0 3.0 0.0 1 4 537 0x18 40 0
r 1.127696 2 0 ack 40 ------- 0 3.0 0.0 1 4 537 0x18 40 0
+ 1.133272 2 3 tcp 576 ------- 0 0.0 3.0 537 5 1 0x10 40 0
d 1.133272 2 3 tcp 576 ------- 0 0.0 3.0 537 5 1 0x10 40 0
+ 1.133848 2 3 tcp 576 ------- 0 0.0 3.0 1073 6 1 0x10 40 0
- 1.133848 2 3 tcp 576 ------- 0 0.0 3.0 1073 6 1 0x10 40 0
r 1.239608 2 3 tcp 576 ------- 0 0.0 3.0 1073 6 1 0x10 40 0
+ 1.340008 2 0 ack 40 ------- 0 3.0 0.0 1 7 537 0x18 40 0
- 1.340008 2 0 ack 40 ------- 0 3.0 0.0 1 7 537 0x18 40 0
r 1.345048 2 0 ack 40 ------- 0 3.0 0.0 1 7 537 0x18 40 0
+ 1.673272 2 3 tcp 576 ------- 0 0.0 3.0 537 8 1 0x10 40 0
- 1.673272 2 3 tcp 576 ------- 0 0.0 3.0 537 8 1 0x10 40 0
r 1.779032 2 3 tcp 576 ------- 0 0.0 3.0 537 8 1 0x10 40 0
+ 1.879432 2 0 ack 40 ------- 0 3.0 0.0 1 9 1609 0x18 40 0
- 1.879432 2 0 ack 40 ------- 0 3.0 0.0 1 9 1609 0x18 40 0
r 1.884472 2 0 ack 40 ------- 0 3.0 0.0 1 9 1609 0x18 40 0
+ 1.890048 2 3 tcp 576 ---A--- 0 0.0 3.0 1609 10 1 0x90 40 0
- 1.890048 2 3 tcp 576 ---A--- 0 0.0 3.0 1609 10 1 0x90 40 0
+ 1.890624 2 3 tcp 576 ------- 0 0.0 3.0 2145 11 1 0x10 40 0
- 1.895808 2 3 tcp 576 ------- 0 0.0 3.0 2145 11 1 0x10 40 0
r 1.995808 2 3 tcp 576 ---A--- 0 0.0 3.0 1609 10 1 0x90 40 0
r 2.001568 2 3 tcp 576 ------- 0 0.0 3.0 2145 11 1 0x10 40 0
+ 2.096208 2 0 ack 40 ------- 0 3.0 0.0 1 12 2145 0x18 40 0
- 2.096208 2 0 ack 40 ------- 0 3.0 0.0 1 12 2145 0x18 40 0
r 2.101248 2 0 ack 40 ------- 0 3.0 0.0 1 12 2145 0x18 40 0
+ 2.101968 2 0 ack 40 ------- 0 3.0 0.0 1 13 2681 0x18 40 0
- 2.101968 2 0 ack 40 ------- 0 3.0 0.0 1 13 2681 0x18 40 0
+ 2.106824 2 3 tcp 576 ------- 0 0.0 3.0 2681 14 1 0x10 40 0
- 2.106824 2 3 tcp 576 ------- 0 0.0 3.0 2681 14 1 0x10 40 0
r 2.107008 2 0 ack 40 ------- 0 3.0 0.0 1 13 2681 0x18 40 0
+ 2.112584 2 3 tcp 576 ------- 0 0.0 3.0 3217 15 1 0x10 40 0
- 2.112584 2 3 tcp 576 ------- 0 0.0 3.0 3217 15 1 0x10 40 0
r 2.212584 2 3 tcp 576 ------- 0 0.0 3.0 2681 14 1 0x10 40 0
r 2.218344 2 3 tcp 576 ------- 0 0.0 3.0 3217 15 1 0x10 40 0
+ 2.312984 2 0 ack 40 ------- 0 3.0 0.0 1 16 3217 0x18 40 0
- 2.312984 2 0 ack 40 ------- 0 3.0 0.0 1 16 3217 0x18 40 0
r 2.318024 2 0 ack 40 ------- 0 3.0 0.0 1 16 3217 0x18 40 0
+ 2.318744 2 0 ack 40 ------- 0 3.0 0.0 1 17 3753 0x18 40 0
- 2.318744 2 0 ack 40 ------- 0 3.0 0.0 1 17 3753 0x18 40 0
+ 2.3236 2 3 tcp 576 ------- 0 0.0 3.0 3753 18 1 0x10 40 0
- 2.3236 2 3 tcp 576 ------- 0 0.0 3.0 3753 18 1 0x10 40 0
r 2.323784 2 0 ack 40 ------- 0 3.0 0.0 1 17 3753 0x18 40 0
+ 2.324176 2 3 tcp 576 ------- 0 0.0 3.0 4289 19 1 0x10 40 0
- 2.32936 2 3 tcp 576 ------- 0 0.0 3.0 4289 19 1 0x10 40 0
+ 2.32936 2 3 tcp 576 ------- 0 0.0 3.0 4825 20 1 0x10 40 0
- 2.33512 2 3 tcp 576 ------- 0 0.0 3.0 4825 20 1 0x10 40 0
r 2.42936 2 3 tcp 576 ------- 0 0.0 3.0 3753 18 1 0x10 40 0
r 2.43512 2 3 tcp 576 ------- 0 0.0 3.0 4289 19 1 0x10 40 0
r 2.44088 2 3 tcp 576 ------- 0 0.0 3.0 4825 20 1 0x10 40 0
+ 2.52976 2 0 ack 40 ------- 0 3.0 0.0 1 21 4289 0x18 40 0
- 2.52976 2 0 ack 40 ------- 0 3.0 0.0 1 21 4289 0x18 40 0
r 2.5348 2 0 ack 40 ------- 0 3.0 0.0 1 21 4289 0x18 40 0
+ 2.53552 2 0 ack 40 ------- 0 3.0 0.0 1 22 4825 0x18 40 0
- 2.53552 2 0 ack 40 ------- 0 3.0 0.0 1 22 4825 0x18 40 0
+ 2.540376 2 3 tcp 576 ------- 0 0.0 3.0 5361 24 1 0x10 40 0
- 2.540376 2 3 tcp 576 ------- 0 0.0 3.0 5361 24 1 0x10 40 0
r 2.54056 2 0 ack 40 ------- 0 3.0 0.0 1 22 4825 0x18 40 0
+ 2.54128 2 0 ack 40 ------- 0 3.0 0.0 1 23 5361 0x18 40 0
- 2.54128 2 0 ack 40 ------- 0 3.0 0.0 1 23 5361 0x18 40 0
+ 2.546136 2 3 tcp 576 ------- 0 0.0 3.0 5897 25 1 0x10 40 0
- 2.546136 2 3 tcp 576 ------- 0 0.0 3.0 5897 25 1 0x10 40 0
r 2.54632 2 0 ack 40 ------- 0 3.0 0.0 1 23 5361 0x18 40 0
+ 2.546712 2 3 tcp 576 ------- 0 0.0 3.0 6433 26 1 0x10 40 0
- 2.551896 2 3 tcp 576 ------- 0 0.0 3.0 6433 26 1 0x10 40 0
+ 2.551896 2 3 tcp 576 ------- 0 0.0 3.0 6969 27 1 0x10 40 0
- 2.557656 2 3 tcp 576 ------- 0 0.0 3.0 6969 27 1 0x10 40 0
r 2.646136 2 3 tcp 576 ------- 0 0.0 3.0 5361 24 1 0x10 40 0
r 2.651896 2 3 tcp 576 ------- 0 0.0 3.0 5897 25 1 0x10 40 0
r 2.657656 2 3 tcp 576 ------- 0 0.0 3.0 6433 26 1 0x10 40 0
r 2.663416 2 3 tcp 576 ------- 0 0.0 3.0 6969 27 1 0x10 40 0
+ 2.746536 2 0 ack 40 ------- 0 3.0 0.0 1 28 5897 0x18 40 0
- 2.746536 2 0 ack 40 ------- 0 3.0 0.0 1 28 5897 0x18 40 0
r 2.751576 2 0 ack 40 ------- 0 3.0 0.0 1 28 5897 0x18 40 0
+ 2.752296 2 0 ack 40 ------- 0 3.0 0.0 1 29 6433 0x18 40 0
- 2.752296 2 0 ack 40 ------- 0 3.0 0.0 1 29 6433 0x18 40 0
+ 2.757152 2 3 tcp 576 ------- 0 0.0 3.0 7505 32 1 0x10 40 0
- 2.757152 2 3 tcp 576 ------- 0 0.0 3.0 7505 32 1 0x10 40 0
r 2.757336 2 0 ack 40 ------- 0 3.0 0.0 1 29 6433 0x18 40 0
+ 2.758056 2 0 ack 40 ------- 0 3.0 0.0 1 30 6969 0x18 40 0
- 2.758056 2 0 ack 40 ------- 0 3.0 0.0 1 30 6969 0x18 40 0
+ 2.762912 2 3 tcp 576 ------- 0 0.0 3.0 8041 33 1 0x10 40 0
- 2.762912 2 3 tcp 576 ------- 0 0.0 3.0 8041 33 1 0x10 40 0
r 2.763096 2 0 ack 40 ------- 0 3.0 0.0 1 30 6969 0x18 40 0
+ 2.763816 2 0 ack 40 ------- 0 3.0 0.0 1 31 7505 0x18 40 0
- 2.763816 2 0 ack 40 ------- 0 3.0 0.0 1 31 7505 0x18 40 0
+ 2.768672 2 3 tcp 576 ------- 0 0.0 3.0 8577 34 1 0x10 40 0
- 2.768672 2 3 tcp 576 ------- 0 0.0 3.0 8577 34 1 0x10 40 0
r 2.768856 2 0 ack 40 ------- 0 3.0 0.0 1 31 7505 0x18 40 0
+ 2.774432 2 3 tcp 576 ------- 0 0.0 3.0 9113 35 1 0x10 40 0
- 2.774432 2 3 tcp 576 ------- 0 0.0 3.0 9113 35 1 0x10 40 0
+ 2.775008 2 3 tcp 576 ------- 0 0.0 3.0 9649 36 1 0x10 40 0
- 2.780192 2 3 tcp 576 ------- 0 0.0 3.0 9649 36 1 0x10 40 0
r 2.862912 2 3 tcp 576 ------- 0 0.0 3.0 7505 32 1 0x10 40 0
r 2.868672 2 3 tcp 576 ------- 0 0.0 3.0 8041 33 1 0x10 40 0
r 2.874432 2 3 tcp 576 ------- 0 0.0 3.0 8577 34 1 0x10 40 0
r 2.880192 2 3 tcp 576 ------- 0 0.0 3.0 9113 35 1 0x10 40 0
r 2.885952 2 3 tcp 576 ------- 0 0.0 3.0 9649 36 1 0x10 40 0
+ 2.963312 2 0 ack 40 ------- 0 3.0 0.0 1 37 8041 0x18 40 0
- 2.963312 2 0 ack 40 ------- 0 3.0 0.0 1 37 8041 0x18 40 0
r 2.968352 2 0 ack 40 ------- 0 3.0 0.0 1 37 8041 0x18 40 0
+ 2.969072 2 0 ack 40 ------- 0 3.0 0.0 1 38 8577 0x18 40 0
- 2.969072 2 0 ack 40 ------- 0 3.0 0.0 1 38 8577 0x18 40 0
+ 2.973928 2 3 tcp 576 ------- 0 0.0 3.0 10185 42 1 0x10 40 0
- 2.973928 2 3 tcp 576 ------- 0 0.0 3.0 10185 42 1 0x10 40 0
r 2.974112 2 0 ack 40 ------- 0 3.0 0.0 1 38 8577 0x18 40 0
+ 2.974832 2 0 ack 40 ------- 0 3.0 0.0 1 39 9113 0x18 40 0
- 2.974832 2 0 ack 40 ------- 0 3.0 0.0 1 39 9113 0x18 40 0
+ 2.979688 2 3 tcp 576 ------- 0 0.0 3.0 10721 43 1 0x10 40 0
- 2.979688 2 3 tcp 576 ------- 0 0.0 3.0 10721 43 1 0x10 40 0
r 2.979872 2 0 ack 40 ------- 0 3.0 0.0 1 39 9113 0x18 40 0
+ 2.980592 2 0 ack 40 ------- 0 3.0 0.0 1 40 9649 0x18 40 0
- 2.980592 2 0 ack 40 ------- 0 3.0 0.0 1 40 9649 0x18 40 0
+ 2.985448 2 3 tcp 576 ------- 0 0.0 3.0 11257 44 1 0x10 40 0
- 2.985448 2 3 tcp 576 ------- 0 0.0 3.0 11257 44 1 0x10 40 0
r 2.985632 2 0 ack 40 ------- 0 3.0 0.0 1 40 9649 0x18 40 0
+ 2.986352 2 0 ack 40 ------- 0 3.0 0.0 1 41 10185 0x18 40 0
- 2.986352 2 0 ack 40 ------- 0 3.0 0.0 1 41 10185 0x18 40 0
+ 2.991208 2 3 tcp 576 ------- 0 0.0 3.0 11793 45 1 0x10 40 0
- 2.991208 2 3 tcp 576 ------- 0 0.0 3.0 11793 45 1 0x10 40 0
r 2.991392 2 0 ack 40 ------- 0 3.0 0.0 1 41 10185 0x18 40 0
+ 2.996968 2 3 tcp 576 ------- 0 0.0 3.0 12329 46 1 0x10 40 0
- 2.996968 2 3 tcp 576 ------- 0 0.0 3.0 12329 46 1 0x10 40 0
+ 2.997544 2 3 tcp 576 ------- 0 0.0 3.0 12865 47 1 0x10 40 0
- 3.002728 2 3 tcp 576 ------- 0 0.0 3.0 12865 47 1 0x10 40 0
r 3.079688 2 3 tcp 576 ------- 0 0.0 3.0 10185 42 1 0x10 40 0
r 3.085448 2 3 tcp 576 ------- 0 0.0 3.0 10721 43 1 0x10 40 0
r 3.091208 2 3 tcp 576 ------- 0 0.0 3.0 11257 44 1 0x10 40 0
r 3.096968 2 3 tcp 576 ------- 0 0.0 3.0 11793 45 1 0x10 40 0
r 3.102728 2 3 tcp 576 ------- 0 0.0 3.0 12329 46 1 0x10 40 0
r 3.108488 2 3 tcp 576 ------- 0 0.0 3.0 12865 47 1 0x10 40 0
+ 3.180088 2 0 ack 40 ------- 0 3.0 0.0 1 48 10721 0x18 40 0
- 3.180088 2 0 ack 40 ------- 0 3.0 0.0 1 48 10721 0x18 40 0
r 3.185128 2 0 ack 40 ------- 0 3.0 0.0 1 48 10721 0x18 40 0
+ 3.185848 2 0 ack 40 ------- 0 3.0 0.0 1 49 11257 0x18 40 0
- 3.185848 2 0 ack 40 ------- 0 3.0 0.0 1 49 11257 0x18 40 0
+ 3.190704 2 3 tcp 576 ------- 0 0.0 3.0 13401 54 1 0x10 40 0
d 3.190704 2 3 tcp 576 ------- 0 0.0 3.0 13401 54 1 0x10 40 0
r 3.190888 2 0 ack 40 ------- 0 3.0 0.0 1 49 11257 0x18 40 0
+ 3.191608 2 0 ack 40 ------- 0 3.0 0.0 1 50 11793 0x18 40 0
- 3.191608 2 0 ack 40 ------- 0 3.0 0.0 1 50 11793 0x18 40 0
+ 3.196464 2 3 tcp 576 ------- 0 0.0 3.0 13937 55 1 0x10 40 0
- 3.196464 2 3 tcp 576 ------- 0 0.0 3.0 13937 55 1 0x10 40 0
r 3.196648 2 0 ack 40 ------- 0 3.0 0.0 1 50 11793 0x18 40 0
+ 3.197368 2 0 ack 40 ------- 0 3.0 0.0 1 51 12329 0x18 40 0
- 3.197368 2 0 ack 40 ------- 0 3.0 0.0 1 51 12329 0x18 40 0
+ 3.202224 2 3 tcp 576 ------- 0 0.0 3.0 14473 56 1 0x10 40 0
- 3.202224 2 3 tcp 576 ------- 0 0.0 3.0 14473 56 1 0x10 40 0
r 3.202408 2 0 ack 40 ------- 0 3.0 0.0 1 51 12329 0x18 40 0
+ 3.203128 2 0 ack 40 ------- 0 3.0 0.0 1 52 12865 0x18 40 0
- 3.203128 2 0 ack 40 ------- 0 3.0 0.0 1 52 12865 0x18 40 0
+ 3.207984 2 3 tcp 576 ------- 0 0.0 3.0 15009 57 1 0x10 40 0
- 3.207984 2 3 tcp 576 ------- 0 0.0 3.0 15009 57 1 0x10 40 0
r 3.208168 2 0 ack 40 ------- 0 3.0 0.0 1 52 12865 0x18 40 0
+ 3.208888 2 0 ack 40 ------- 0 3.0 0.0 1 53 13401 0x18 40 0
- 3.208888 2 0 ack 40 ------- 0 3.0 0.0 1 53 13401 0x18 40 0
+ 3.213744 2 3 tcp 576 ------- 0 0.0 3.0 15545 58 1 0x10 40 0
- 3.213744 2 3 tcp 576 ------- 0 0.0 3.0 15545 58 1 0x10 40 0
r 3.213928 2 0 ack 40 ------- 0 3.0 0.0 1 53 13401 0x18 40 0
+ 3.219504 2 3 tcp 576 ------- 0 0.0 3.0 16081 59 1 0x10 40 0
- 3.219504 2 3 tcp 576 ------- 0 0.0 3.0 16081 59 1 0x10 40 0
+ 3.22008 2 3 tcp 576 ------- 0 0.0 3.0 16617 60 1 0x10 40 0
- 3.225264 2 3 tcp 576 ------- 0 0.0 3.0 16617 60 1 0x10 40 0
r 3.302224 2 3 tcp 576 ------- 0 0.0 3.0 13937 55 1 0x10 40 0
r 3.307984 2 3 tcp 576 ------- 0 0.0 3.0 14473 56 1 0x10 40 0
r 3.313744 2 3 tcp 576 ------- 0 0.0 3.0 15009 57 1 0x10 40 0
r 3.319504 2 3 tcp 576 ------- 0 0.0 3.0 15545 58 1 0x10 40 0
r 3.325264 2 3 tcp 576 ------- 0 0.0 3.0 16081 59 1 0x10 40 0
r 3.331024 2 3 tcp 576 ------- 0 0.0 3.0 16617 60 1 0x10 40 0
+ 3.402624 2 0 ack 40 ------- 0 3.0 0.0 1 61 13401 0x18 40 0
- 3.402624 2 0 ack 40 ------- 0 3.0 0.0 1 61 13401 0x18 40 0
r 3.407664 2 0 ack 40 ------- 0 3.0 0.0 1 61 13401 0x18 40 0
+ 3.408384 2 0 ack 40 ------- 0 3.0 0.0 1 62 13401 0x18 40 0
- 3.408384 2 0 ack 40 ------- 0 3.0 0.0 1 62 13401 0x18 40 0
r 3.413424 2 0 ack 40 ------- 0 3.0 0.0 1 62 13401 0x18 40 0
+ 3.414144 2 0 ack 40 ------- 0 3.0 0.0 1 63 13401 0x18 40 0
- 3.414144 2 0 ack 40 ------- 0 3.0 0.0 1 63 13401 0x18 40 0
r 3.419184 2 0 ack 40 ------- 0 3.0 0.0 1 63 13401 0x18 40 0
+ 3.419904 2 0 ack 40 ------- 0 3.0 0.0 1 64 13401 0x18 40 0
- 3.419904 2 0 ack 40 ------- 0 3.0 0.0 1 64 13401 0x18 40 0
+ 3.42476 2 3 tcp 576 ------- 0 0.0 3.0 13401 67 1 0x10 40 0
- 3.42476 2 3 tcp 576 ------- 0 0.0 3.0 13401 67 1 0x10 40 0
r 3.424944 2 0 ack 40 ------- 0 3.0 0.0 1 64 13401 0x18 40 0
+ 3.425664 2 0 ack 40 ------- 0 3.0 0.0 1 65 13401 0x18 40 0
- 3.425664 2 0 ack 40 ------- 0 3.0 0.0 1 65 13401 0x18 40 0
r 3.430704 2 0 ack 40 ------- 0 3.0 0.0 1 65 13401 0x18 40 0
+ 3.431424 2 0 ack 40 ------- 0 3.0 0.0 1 66 13401 0x18 40 0
- 3.431424 2 0 ack 40 ------- 0 3.0 0.0 1 66 13401 0x18 40 0
+ 3.43628 2 3 tcp 576 ---A--- 0 0.0 3.0 17153 68 1 0x90 40 0
- 3.43628 2 3 tcp 576 ---A--- 0 0.0 3.0 17153 68 1 0x90 40 0
r 3.436464 2 0 ack 40 ------- 0 3.0 0.0 1 66 13401 0x18 40 0
+ 3.44204 2 3 tcp 576 ------- 0 0.0 3.0 17689 69 1 0x10 40 0
- 3.44204 2 3 tcp 576 ------- 0 0.0 3.0 17689 69 1 0x10 40 0
r 3.53052 2 3 tcp 576 ------- 0 0.0 3.0 13401 67 1 0x10 40 0
r 3.54204 2 3 tcp 576 ---A--- 0 0.0 3.0 17153 68 1 0x90 40 0
r 3.5478 2 3 tcp 576 ------- 0 0.0 3.0 17689 69 1 0x10 40 0
+ 3.63092 2 0 ack 40 ------- 0 3.0 0.0 1 70 17153 0x18 40 0
- 3.63092 2 0 ack 40 ------- 0 3.0 0.0 1 70 17153 0x18 40 0
r 3.63596 2 0 ack 40 ------- 0 3.0 0.0 1 70 17153 0x18 40 0
+ 3.641536 2 3 tcp 576 ------- 0 0.0 3.0 18225 73 1 0x10 40 0
- 3.641536 2 3 tcp 576 ------- 0 0.0 3.0 18225 73 1 0x10 40 0
+ 3.64244 2 0 ack 40 ------- 0 3.0 0.0 1 71 17689 0x18 40 0
- 3.64244 2 0 ack 40 ------- 0 3.0 0.0 1 71 17689 0x18 40 0
r 3.64748 2 0 ack 40 ------- 0 3.0 0.0 1 71 17689 0x18 40 0
+ 3.6482 2 0 ack 40 ------- 0 3.0 0.0 1 72 18225 0x18 40 0
- 3.6482 2 0 ack 40 ------- 0 3.0 0.0 1 72 18225 0x18 40 0
+ 3.653056 2 3 tcp 576 ------- 0 0.0 3.0 18761 74 1 0x10 40 0
- 3.653056 2 3 tcp 576 ------- 0 0.0 3.0 18761 74 1 0x10 40 0
r 3.65324 2 0 ack 40 ------- 0 3.0 0.0 1 72 18225 0x18 40 0
+ 3.658816 2 3 tcp 576 ------- 0 0.0 3.0 19297 75 1 0x10 40 0
- 3.658816 2 3 tcp 576 ------- 0 0.0 3.0 19297 75 1 0x10 40 0
r 3.747296 2 3 tcp 576 ------- 0 0.0 3.0 18225 73 1 0x10 40 0
r 3.758816 2 3 tcp 576 ------- 0 0.0 3.0 18761 74 1 0x10 40 0
r 3.764576 2 3 tcp 576 ------- 0 0.0 3.0 19297 75 1 0x10 40 0
+ 3.847696 2 0 ack 40 ------- 0 3.0 0.0 1 76 18761 0x18 40 0
- 3.847696 2 0 ack 40 ------- 0 3.0 0.0 1 76 18761 0x18 40 0
r 3.852736 2 0 ack 40 ------- 0 3.0 0.0 1 76 18761 0x18 40 0
+ 3.858312 2 3 tcp 576 ------- 0 0.0 3.0 19833 79 1 0x10 40 0
- 3.858312 2 3 tcp 576 ------- 0 0.0 3.0 19833 79 1 0x10 40 0
+ 3.858888 2 3 tcp 576 ------- 0 0.0 3.0 20369 80 1 0x10 40 0
+ 3.859216 2 0 ack 40 ------- 0 3.0 0.0 1 77 19297 0x18 40 0
- 3.859216 2 0 ack 40 ------- 0 3.0 0.0 1 77 19297 0x18 40 0
- 3.864072 2 3 tcp 576 ------- 0 0.0 3.0 20369 80 1 0x10 40 0
r 3.864256 2 0 ack 40 ------- 0 3.0 0.0 1 77 19297 0x18 40 0
+ 3.864976 2 0 ack 40 ------- 0 3.0 0.0 1 78 19833 0x18 40 0
- 3.864976 2 0 ack 40 ------- 0 3.0 0.0 1 78 19833 0x18 40 0
+ 3.869832 2 3 tcp 576 ------- 0 0.0 3.0 20905 81 1 0x10 40 0
- 3.869832 2 3 tcp 576 ------- 0 0.0 3.0 20905 81 1 0x10 40 0
r 3.870016 2 0 ack 40 ------- 0 3.0 0.0 1 78 19833 0x18 40 0
+ 3.875592 2 3 tcp 576 ------- 0 0.0 3.0 21441 82 1 0x10 40 0
- 3.875592 2 3 tcp 576 ------- 0 0.0 3.0 21441 82 1 0x10 40 0
r 3.964072 2 3 tcp 576 ------- 0 0.0 3.0 19833 79 1 0x10 40 0
r 3.969832 2 3 tcp 576 ------- 0 0.0 3.0 20369 80 1 0x10 40 0
r 3.975592 2 3 tcp 576 ------- 0 0.0 3.0 20905 81 1 0x10 40 0
r 3.981352 2 3 tcp 576 ------- 0 0.0 3.0 21441 82 1 0x10 40 0
+ 4.064472 2 0 ack 40 ------- 0 3.0 0.0 1 83 20369 0x18 40 0
- 4.064472 2 0 ack 40 ------- 0 3.0 0.0 1 83 20369 0x18 40 0
r 4.069512 2 0 ack 40 ------- 0 3.0 0.0 1 83 20369 0x18 40 0
+ 4.070232 2 0 ack 40 ------- 0 3.0 0.0 1 84 20905 0x18 40 0
- 4.070232 2 0 ack 40 ------- 0 3.0 0.0 1 84 20905 0x18 40 0
+ 4.075088 2 3 tcp 576 ------- 0 0.0 3.0 21977 87 1 0x10 40 0
- 4.075088 2 3 tcp 576 ------- 0 0.0 3.0 21977 87 1 0x10 40 0
r 4.075272 2 0 ack 40 ------- 0 3.0 0.0 1 84 20905 0x18 40 0
+ 4.075992 2 0 ack 40 ------- 0 3.0 0.0 1 85 21441 0x18 40 0
- 4.075992 2 0 ack 40 ------- 0 3.0 0.0 1 85 21441 0x18 40 0
+ 4.080848 2 3 tcp 576 ------- 0 0.0 3.0 22513 88 1 0x10 40 0
- 4.080848 2 3 tcp 576 ------- 0 0.0 3.0 22513 88 1 0x10 40 0
r 4.081032 2 0 ack 40 ------- 0 3.0 0.0 1 85 21441 0x18 40 0
+ 4.081424 2 3 tcp 576 ------- 0 0.0 3.0 23049 89 1 0x10 40 0
+ 4.081752 2 0 ack 40 ------- 0 3.0 0.0 1 86 21977 0x18 40 0
- 4.081752 2 0 ack 40 ------- 0 3.0 0.0 1 86 21977 0x18 40 0
+ 4.086608 2 3 tcp 576 ------- 0 0.0 3.0 23585 90 1 0x10 40 0
- 4.086608 2 3 tcp 576 ------- 0 0.0 3.0 23049 89 1 0x10 40 0
r 4.086792 2 0 ack 40 ------- 0 3.0 0.0 1 86 21977 0x18 40 0
+ 4.092368 2 3 tcp 576 ------- 0 0.0 3.0 24121 91 1 0x10 40 0
- 4.092368 2 3 tcp 576 ------- 0 0.0 3.0 23585 90 1 0x10 40 0
- 4.098128 2 3 tcp 576 ------- 0 0.0 3.0 24121 91 1 0x10 40 0
r 4.180848 2 3 tcp 576 ------- 0 0.0 3.0 21977 87 1 0x10 40 0
r 4.186608 2 3 tcp 576 ------- 0 0.0 3.0 22513 88 1 0x10 40 0
r 4.192368 2 3 tcp 576 ------- 0 0.0 3.0 23049 89 1 0x10 40 0
r 4.198128 2 3 tcp 576 ------- 0 0.0 3.0 23585 90 1 0x10 40 0
r 4.203888 2 3 tcp 576 ------- 0 0.0 3.0 24121 91 1 0x10 40 0
+ 4.281248 2 0 ack 40 ------- 0 3.0 0.0 1 92 22513 0x18 40 0
- 4.281248 2 0 ack 40 ------- 0 3.0 0.0 1 92 22513 0x18 40 0
r 4.286288 2 0 ack 40 ------- 0 3.0 0.0 1 92 22513 0x18 40 0
+ 4.287008 2 0 ack 40 ------- 0 3.0 0.0 1 93 23049 0x18 40 0
- 4.287008 2 0 ack 40 ------- 0 3.0 0.0 1 93 23049 0x18 40 0
+ 4.291864 2 3 tcp 576 ------- 0 0.0 3.0 24657 97 1 0x10 40 0
- 4.291864 2 3 tcp 576 ------- 0 0.0 3.0 24657 97 1 0x10 40 0
r 4.292048 2 0 ack 40 ------- 0 3.0 0.0 1 93 23049 0x18 40 0
+ 4.292768 2 0 ack 40 ------- 0 3.0 0.0 1 94 23585 0x18 40 0
- 4.292768 2 0 ack 40 ------- 0 3.0 0.0 1 94 23585 0x18 40 0
+ 4.297624 2 3 tcp 576 ------- 0 0.0 3.0 25193 98 1 0x10 40 0
- 4.297624 2 3 tcp 576 ------- 0 0.0 3.0 25193 98 1 0x10 40 0
r 4.297808 2 0 ack 40 ------- 0 3.0 0.0 1 94 23585 0x18 40 0
+ 4.298528 2 0 ack 40 ------- 0 3.0 0.0 1 95 24121 0x18 40 0
- 4.298528 2 0 ack 40 ------- 0 3.0 0.0 1 95 24121 0x18 40 0
+ 4.303384 2 3 tcp 576 ------- 0 0.0 3.0 25729 99 1 0x10 40 0
- 4.303384 2 3 tcp 576 ------- 0 0.0 3.0 25729 99 1 0x10 40 0
r 4.303568 2 0 ack 40 ------- 0 3.0 0.0 1 95 24121 0x18 40 0
+ 4.304288 2 0 ack 40 ------- 0 3.0 0.0 1 96 24657 0x18 40 0
- 4.304288 2 0 ack 40 ------- 0 3.0 0.0 1 96 24657 0x18 40 0
+ 4.309144 2 3 tcp 576 ------- 0 0.0 3.0 26265 100 1 0x10 40 0
d 4.309144 2 3 tcp 576 ------- 0 0.0 3.0 26265 100 1 0x10 40 0
r 4.309328 2 0 ack 40 ------- 0 3.0 0.0 1 96 24657 0x18 40 0
+ 4.30972 2 3 tcp 576 ------- 0 0.0 3.0 26801 101 1 0x10 40 0
- 4.30972 2 3 tcp 576 ------- 0 0.0 3.0 26801 101 1 0x10 40 0
+ 4.314904 2 3 tcp 576 ------- 0 0.0 3.0 27337 102 1 0x10 40 0
- 4.31548 2 3 tcp 576 ------- 0 0.0 3.0 27337 102 1 0x10 40 0
r 4.397624 2 3 tcp 576 ------- 0 0.0 3.0 24657 97 1 0x10 40 0
r 4.403384 2 3 tcp 576 ------- 0 0.0 3.0 25193 98 1 0x10 40 0
r 4.409144 2 3 tcp 576 ------- 0 0.0 3.0 25729 99 1 0x10 40 0
r 4.41548 2 3 tcp 576 ------- 0 0.0 3.0 26801 101 1 0x10 40 0
r 4.42124 2 3 tcp 576 ------- 0 0.0 3.0 27337 102 1 0x10 40 0
+ 4.498024 2 0 ack 40 ------- 0 3.0 0.0 1 103 25193 0x18 40 0
- 4.498024 2 0 ack 40 ------- 0 3.0 0.0 1 103 25193 0x18 40 0
r 4.503064 2 0 ack 40 ------- 0 3.0 0.0 1 103 25193 0x18 40 0
+ 4.503784 2 0 ack 40 ------- 0 3.0 0.0 1 104 25729 0x18 40 0
- 4.503784 2 0 ack 40 ------- 0 3.0 0.0 1 104 25729 0x18 40 0
+ 4.50864 2 3 tcp 576 ------- 0 0.0 3.0 27873 108 1 0x10 40 0
- 4.50864 2 3 tcp 576 ------- 0 0.0 3.0 27873 108 1 0x10 40 0
r 4.508824 2 0 ack 40 ------- 0 3.0 0.0 1 104 25729 0x18 40 0
+ 4.509544 2 0 ack 40 ------- 0 3.0 0.0 1 105 26265 0x18 40 0
- 4.509544 2 0 ack 40 ------- 0 3.0 0.0 1 105 26265 0x18 40 0
+ 4.5144 2 3 tcp 576 ------- 0 0.0 3.0 28409 109 1 0x10 40 0
- 4.5144 2 3 tcp 576 ------- 0 0.0 3.0 28409 109 1 0x10 40 0
r 4.514584 2 0 ack 40 ------- 0 3.0 0.0 1 105 26265 0x18 40 0
+ 4.51588 2 0 ack 40 ------- 0 3.0 0.0 1 106 26265 0x18 40 0
- 4.51588 2 0 ack 40 ------- 0 3.0 0.0 1 106 26265 0x18 40 0
+ 4.52016 2 3 tcp 576 ------- 0 0.0 3.0 28945 110 1 0x10 40 0
- 4.52016 2 3 tcp 576 ------- 0 0.0 3.0 28945 110 1 0x10 40 0
r 4.52092 2 0 ack 40 ------- 0 3.0 0.0 1 106 26265 0x18 40 0
+ 4.52164 2 0 ack 40 ------- 0 3.0 0.0 1 107 26265 0x18 40 0
- 4.52164 2 0 ack 40 ------- 0 3.0 0.0 1 107 26265 0x18 40 0
r 4.52668 2 0 ack 40 ------- 0 3.0 0.0 1 107 26265 0x18 40 0
r 4.6144 2 3 tcp 576 ------- 0 0.0 3.0 27873 108 1 0x10 40 0
r 4.62016 2 3 tcp 576 ------- 0 0.0 3.0 28409 109 1 0x10 40 0
r 4.62592 2 3 tcp 576 ------- 0 0.0 3.0 28945 110 1 0x10 40 0
+ 4.7148 2 0 ack 40 ------- 0 3.0 0.0 1 111 26265 0x18 40 0
- 4.7148 2 0 ack 40 ------- 0 3.0 0.0 1 111 26265 0x18 40 0
r 4.71984 2 0 ack 40 ------- 0 3.0 0.0 1 111 26265 0x18 40 0
+ 4.72056 2 0 ack 40 ------- 0 3.0 0.0 1 112 26265 0x18 40 0
- 4.72056 2 0 ack 40 ------- 0 3.0 0.0 1 112 26265 0x18 40 0
+ 4.725416 2 3 tcp 576 ------- 0 0.0 3.0 26265 114 1 0x10 40 0
- 4.725416 2 3 tcp 576 ------- 0 0.0 3.0 26265 114 1 0x10 40 0
r 4.7256 2 0 ack 40 ------- 0 3.0 0.0 1 112 26265 0x18 40 0
+ 4.72632 2 0 ack 40 ------- 0 3.0 0.0 1 113 26265 0x18 40 0
- 4.72632 2 0 ack 40 ------- 0 3.0 0.0 1 113 26265 0x18 40 0
+ 4.731176 2 3 tcp 576 ---A--- 0 0.0 3.0 29481 115 1 0x90 40 0
- 4.731176 2 3 tcp 576 ---A--- 0 0.0 3.0 29481 115 1 0x90 40 0
r 4.73136 2 0 ack 40 ------- 0 3.0 0.0 1 113 26265 0x18 40 0
+ 4.736936 2 3 tcp 576 ------- 0 0.0 3.0 30017 116 1 0x10 40 0
- 4.736936 2 3 tcp 576 ------- 0 0.0 3.0 30017 116 1 0x10 40 0
r 4.831176 2 3 tcp 576 ------- 0 0.0 3.0 26265 114 1 0x10 40 0
r 4.836936 2 3 tcp 576 ---A--- 0 0.0 3.0 29481 115 1 0x90 40 0
r 4.842696 2 3 tcp 576 ------- 0 0.0 3.0 30017 116 1 0x10 40 0
+ 4.931576 2 0 ack 40 ------- 0 3.0 0.0 1 117 29481 0x18 40 0
- 4.931576 2 0 ack 40 ------- 0 3.0 0.0 1 117 29481 0x18 40 0
r 4.936616 2 0 ack 40 ------- 0 3.0 0.0 1 117 29481 0x18 40 0
+ 4.937336 2 0 ack 40 ------- 0 3.0 0.0 1 118 30017 0x18 40 0
- 4.937336 2 0 ack 40 ------- 0 3.0 0.0 1 118 30017 0x18 40 0
+ 4.942192 2 3 tcp 576 ------- 0 0.0 3.0 30553 120 1 0x10 40 0
- 4.942192 2 3 tcp 576 ------- 0 0.0 3.0 30553 120 1 0x10 40 0
r 4.942376 2 0 ack 40 ------- 0 3.0 0.0 1 118 30017 0x18 40 0
+ 4.943096 2 0 ack 40 ------- 0 3.0 0.0 1 119 30553 0x18 40 0
- 4.943096 2 0 ack 40 ------- 0 3.0 0.0 1 119 30553 0x18 40 0
+ 4.947952 2 3 tcp 576 ------- 0 0.0 3.0 31089 121 1 0x10 40 0
- 4.947952 2 3 tcp 576 ------- 0 0.0 3.0 31089 121 1 0x10 40 0
r 4.948136 2 0 ack 40 ------- 0 3.0 0.0 1 119 30553 0x18 40 0
+ 4.953712 2 3 tcp 576 ------- 0 0.0 3.0 31625 122 1 0x10 40 0
- 4.953712 2 3 tcp 576 ------- 0 0.0 3.0 31625 122 1 0x10 40 0
r 5.047952 2 3 tcp 576 ------- 0 0.0 3.0 30553 120 1 0x10 40 0
r 5.053712 2 3 tcp 576 ------- 0 0.0 3.0 31089 121 1 0x10 40 0
r 5.059472 2 3 tcp 576 ------- 0 0.0 3.0 31625 122 1 0x10 40 0
+ 5.148352 2 0 ack 40 ------- 0 3.0 0.0 1 123 31089 0x18 40 0
- 5.148352 2 0 ack 40 ------- 0 3.0 0.0 1 123 31089 0x18 40 0
r 5.153392 2 0 ack 40 ------- 0 3.0 0.0 1 123 31089 0x18 40 0
+ 5.154112 2 0 ack 40 ------- 0 3.0 0.0 1 124 31625 0x18 40 0
- 5.154112 2 0 ack 40 ------- 0 3.0 0.0 1 124 31625 0x18 40 0
+ 5.158968 2 3 tcp 576 ------- 0 0.0 3.0 32161 126 1 0x10 40 0
- 5.158968 2 3 tcp 576 ------- 0 0.0 3.0 32161 126 1 0x10 40 0
r 5.159152 2 0 ack 40 ------- 0 3.0 0.0 1 124 31625 0x18 40 0
+ 5.159544 2 3 tcp 576 ------- 0 0.0 3.0 32697 127 1 0x10 40 0
+ 5.159872 2 0 ack 40 ------- 0 3.0 0.0 1 125 32161 0x18 40 0
- 5.159872 2 0 ack 40 ------- 0 3.0 0.0 1 125 32161 0x18 40 0
- 5.164728 2 3 tcp 576 ------- 0 0.0 3.0 32697 127 1 0x10 40 0
+ 5.164728 2 3 tcp 576 ------- 0 0.0 3.0 33233 128 1 0x10 40 0
r 5.164912 2 0 ack 40 ------- 0 3.0 0.0 1 125 32161 0x18 40 0
- 5.170488 2 3 tcp 576 ------- 0 0.0 3.0 33233 128 1 0x10 40 0
+ 5.170488 2 3 tcp 576 ------- 0 0.0 3.0 33769 129 1 0x10 40 0
- 5.176248 2 3 tcp 576 ------- 0 0.0 3.0 33769 129 1 0x10 40 0
r 5.264728 2 3 tcp 576 ------- 0 0.0 3.0 32161 126 1 0x10 40 0
r 5.270488 2 3 tcp 576 ------- 0 0.0 3.0 32697 127 1 0x10 40 0
r 5.276248 2 3 tcp 576 ------- 0 0.0 3.0 33233 128 1 0x10 40 0
r 5.282008 2 3 tcp 576 ------- 0 0.0 3.0 33769 129 1 0x10 40 0
+ 5.365128 2 0 ack 40 ------- 0 3.0 0.0 1 130 32697 0x18 40 0
- 5.365128 2 0 ack 40 ------- 0 3.0 0.0 1 130 32697 0x18 40 0
r 5.370168 2 0 ack 40 ------- 0 3.0 0.0 1 130 32697 0x18 40 0
+ 5.370888 2 0 ack 40 ------- 0 3.0 0.0 1 131 33233 0x18 40 0
- 5.370888 2 0 ack 40 ------- 0 3.0 0.0 1 131 33233 0x18 40 0
+ 5.375744 2 3 tcp 576 ------- 0 0.0 3.0 34305 134 1 0x10 40 0
- 5.375744 2 3 tcp 576 ------- 0 0.0 3.0 34305 134 1 0x10 40 0
r 5.375928 2 0 ack 40 ------- 0 3.0 0.0 1 131 33233 0x18 40 0
+ 5.376648 2 0 ack 40 ------- 0 3.0 0.0 1 132 33769 0x18 40 0
- 5.376648 2 0 ack 40 ------- 0 3.0 0.0 1 132 33769 0x18 40 0
+ 5.381504 2 3 tcp 576 ------- 0 0.0 3.0 34841 135 1 0x10 40 0
- 5.381504 2 3 tcp 576 ------- 0 0.0 3.0 34841 135 1 0x10 40 0
r 5.381688 2 0 ack 40 ------- 0 3.0 0.0 1 132 33769 0x18 40 0
+ 5.38208 2 3 tcp 576 ------- 0 0.0 3.0 35377 136 1 0x10 40 0
+ 5.382408 2 0 ack 40 ------- 0 3.0 0.0 1 133 34305 0x18 40 0
- 5.382408 2 0 ack 40 ------- 0 3.0 0.0 1 133 34305 0x18 40 0
- 5.387264 2 3 tcp 576 ------- 0 0.0 3.0 35377 136 1 0x10 40 0
+ 5.387264 2 3 tcp 576 ------- 0 0.0 3.0 35913 137 1 0x10 40 0
r 5.387448 2 0 ack 40 ------- 0 3.0 0.0 1 133 34305 0x18 40 0
- 5.393024 2 3 tcp 576 ------- 0 0.0 3.0 35913 137 1 0x10 40 0
+ 5.393024 2 3 tcp 576 ------- 0 0.0 3.0 36449 138 1 0x10 40 0
- 5.398784 2 3 tcp 576 ------- 0 0.0 3.0 36449 138 1 0x10 40 0
r 5.481504 2 3 tcp 576 ------- 0 0.0 3.0 34305 134 1 0x10 40 0
r 5.487264 2 3 tcp 576 ------- 0 0.0 3.0 34841 135 1 0x10 40 0
r 5.493024 2 3 tcp 576 ------- 0 0.0 3.0 35377 136 1 0x10 40 0
r 5.498784 2 3 tcp 576 ------- 0 0.0 3.0 35913 137 1 0x10 40 0
r 5.504544 2 3 tcp 576 ------- 0 0.0 3.0 36449 138 1 0x10 40 0
+ 5.581904 2 0 ack 40 ------- 0 3.0 0.0 1 139 34841 0x18 40 0
- 5.581904 2 0 ack 40 ------- 0 3.0 0.0 1 139 34841 0x18 40 0
r 5.586944 2 0 ack 40 ------- 0 3.0 0.0 1 139 34841 0x18 40 0
+ 5.587664 2 0 ack 40 ------- 0 3.0 0.0 1 140 35377 0x18 40 0
- 5.587664 2 0 ack 40 ------- 0 3.0 0.0 1 140 35377 0x18 40 0
+ 5.59252 2 3 tcp 576 ------- 0 0.0 3.0 36985 144 1 0x10 40 0
- 5.59252 2 3 tcp 576 ------- 0 0.0 3.0 36985 144 1 0x10 40 0
r 5.592704 2 0 ack 40 ------- 0 3.0 0.0 1 140 35377 0x18 40 0
+ 5.593424 2 0 ack 40 ------- 0 3.0 0.0 1 141 35913 0x18 40 0
- 5.593424 2 0 ack 40 ------- 0 3.0 0.0 1 141 35913 0x18 40 0
+ 5.59828 2 3 tcp 576 ------- 0 0.0 3.0 37521 145 1 0x10 40 0
- 5.59828 2 3 tcp 576 ------- 0 0.0 3.0 37521 145 1 0x10 40 0
r 5.598464 2 0 ack 40 ------- 0 3.0 0.0 1 141 35913 0x18 40 0
+ 5.599184 2 0 ack 40 ------- 0 3.0 0.0 1 142 36449 0x18 40 0
- 5.599184 2 0 ack 40 ------- 0 3.0 0.0 1 142 36449 0x18 40 0
+ 5.60404 2 3 tcp 576 ------- 0 0.0 3.0 38057 146 1 0x10 40 0
- 5.60404 2 3 tcp 576 ------- 0 0.0 3.0 38057 146 1 0x10 40 0
r 5.604224 2 0 ack 40 ------- 0 3.0 0.0 1 142 36449 0x18 40 0
+ 5.604944 2 0 ack 40 ------- 0 3.0 0.0 1 143 36985 0x18 40 0
- 5.604944 2 0 ack 40 ------- 0 3.0 0.0 1 143 36985 0x18 40 0
+ 5.6098 2 3 tcp 576 ------- 0 0.0 3.0 38593 147 1 0x10 40 0
- 5.6098 2 3 tcp 576 ------- 0 0.0 3.0 38593 147 1 0x10 40 0
r 5.609984 2 0 ack 40 ------- 0 3.0 0.0 1 143 36985 0x18 40 0
+ 5.610376 2 3 tcp 576 ------- 0 0.0 3.0 39129 148 1 0x10 40 0
d 5.610376 2 3 tcp 576 ------- 0 0.0 3.0 39129 148 1 0x10 40 0
+ 5.61556 2 3 tcp 576 ------- 0 0.0 3.0 39665 149 1 0x10 40 0
- 5.61556 2 3 tcp 576 ------- 0 0.0 3.0 39665 149 1 0x10 40 0
r 5.69828 2 3 tcp 576 ------- 0 0.0 3.0 36985 144 1 0x10 40 0
r 5.70404 2 3 tcp 576 ------- 0 0.0 3.0 37521 145 1 0x10 40 0
r 5.7098 2 3 tcp 576 ------- 0 0.0 3.0 38057 146 1 0x10 40 0
r 5.71556 2 3 tcp 576 ------- 0 0.0 3.0 38593 147 1 0x10 40 0
r 5.72132 2 3 tcp 576 ------- 0 0.0 3.0 39665 149 1 0x10 40 0
+ 5.79868 2 0 ack 40 ------- 0 3.0 0.0 1 150 37521 0x18 40 0
- 5.79868 2 0 ack 40 ------- 0 3.0 0.0 1 150 37521 0x18 40 0
r 5.80372 2 0 ack 40 ------- 0 3.0 0.0 1 150 37521 0x18 40 0
+ 5.80444 2 0 ack 40 ------- 0 3.0 0.0 1 151 38057 0x18 40 0
- 5.80444 2 0 ack 40 ------- 0 3.0 0.0 1 151 38057 0x18 40 0
+ 5.809296 2 3 tcp 576 ------- 0 0.0 3.0 40201 155 1 0x10 40 0
- 5.809296 2 3 tcp 576 ------- 0 0.0 3.0 40201 155 1 0x10 40 0
r 5.80948 2 0 ack 40 ------- 0 3.0 0.0 1 151 38057 0x18 40 0
+ 5.8102 2 0 ack 40 ------- 0 3.0 0.0 1 152 38593 0x18 40 0
- 5.8102 2 0 ack 40 ------- 0 3.0 0.0 1 152 38593 0x18 40 0
+ 5.815056 2 3 tcp 576 ------- 0 0.0 3.0 40737 156 1 0x10 40 0
- 5.815056 2 3 tcp 576 ------- 0 0.0 3.0 40737 156 1 0x10 40 0
r 5.81524 2 0 ack 40 ------- 0 3.0 0.0 1 152 38593 0x18 40 0
+ 5.81596 2 0 ack 40 ------- 0 3.0 0.0 1 153 39129 0x18 40 0
- 5.81596 2 0 ack 40 ------- 0 3.0 0.0 1 153 39129 0x18 40 0
+ 5.820816 2 3 tcp 576 ------- 0 0.0 3.0 41273 157 1 0x10 40 0
- 5.820816 2 3 tcp 576 ------- 0 0.0 3.0 41273 157 1 0x10 40 0
r 5.821 2 0 ack 40 ------- 0 3.0 0.0 1 153 39129 0x18 40 0
+ 5.82172 2 0 ack 40 ------- 0 3.0 0.0 1 154 39129 0x18 40 0
- 5.82172 2 0 ack 40 ------- 0 3.0 0.0 1 154 39129 0x18 40 0
+ 5.826576 2 3 tcp 576 ------- 0 0.0 3.0 41809 158 1 0x10 40 0
- 5.826576 2 3 tcp 576 ------- 0 0.0 3.0 41809 158 1 0x10 40 0
r 5.82676 2 0 ack 40 ------- 0 3.0 0.0 1 154 39129 0x18 40 0
r 5.915056 2 3 tcp 576 ------- 0 0.0 3.0 40201 155 1 0x10 40 0
r 5.920816 2 3 tcp 576 ------- 0 0.0 3.0 40737 156 1 0x10 40 0
r 5.926576 2 3 tcp 576 ------- 0 0.0 3.0 41273 157 1 0x10 40 0
r 5.932336 2 3 tcp 576 ------- 0 0.0 3.0 41809 158 1 0x10 40 0
+ 6.015456 2 0 ack 40 ------- 0 3.0 0.0 1 159 39129 0x18 40 0
- 6.015456 2 0 ack 40 ------- 0 3.0 0.0 1 159 39129 0x18 40 0
r 6.020496 2 0 ack 40 ------- 0 3.0 0.0 1 159 39129 0x18 40 0
+ 6.021216 2 0 ack 40 ------- 0 3.0 0.0 1 160 39129 0x18 40 0
- 6.021216 2 0 ack 40 ------- 0 3.0 0.0 1 160 39129 0x18 40 0
r 6.026256 2 0 ack 40 ------- 0 3.0 0.0 1 160 39129 0x18 40 0
+ 6.026976 2 0 ack 40 ------- 0 3.0 0.0 1 161 39129 0x18 40 0
- 6.026976 2 0 ack 40 ------- 0 3.0 0.0 1 161 39129 0x18 40 0
+ 6.031832 2 3 tcp 576 ------- 0 0.0 3.0 39129 163 1 0x10 40 0
- 6.031832 2 3 tcp 576 ------- 0 0.0 3.0 39129 163 1 0x10 40 0
r 6.032016 2 0 ack 40 ------- 0 3.0 0.0 1 161 39129 0x18 40 0
+ 6.032736 2 0 ack 40 ------- 0 3.0 0.0 1 162 39129 0x18 40 0
- 6.032736 2 0 ack 40 ------- 0 3.0 0.0 1 162 39129 0x18 40 0
+ 6.037592 2 3 tcp 576 ---A--- 0 0.0 3.0 42345 164 1 0x90 40 0
- 6.037592 2 3 tcp 576 ---A--- 0 0.0 3.0 42345 164 1 0x90 40 0
r 6.037776 2 0 ack 40 ------- 0 3.0 0.0 1 162 39129 0x18 40 0