v testName droppedlastseg
+ 0.70504 2 3 tcp 40 ------- 0 0.0 3.0 0 0 -1 0xa 40 0
- 0.70504 2 3 tcp 40 ------- 0 0.0 3.0 0 0 -1 0xa 40 0
r 0.80544 2 3 tcp 40 ------- 0 0.0 3.0 0 0 -1 0xa 40 0
+ 0.90584 2 0 ack 40 ------- 0 3.0 0.0 0 1 1 0x1a 40 0
- 0.90584 2 0 ack 40 ------- 0 3.0 0.0 0 1 1 0x1a 40 0
r 0.91088 2 0 ack 40 ------- 0 3.0 0.0 0 1 1 0x1a 40 0
+ 0.91592 2 3 tcp 40 ------- 0 0.0 3.0 1 2 1 0x10 40 0
- 0.91592 2 3 tcp 40 ------- 0 0.0 3.0 1 2 1 0x10 40 0
+ 0.916496 2 3 tcp 576 ------- 0 0.0 3.0 1 3 1 0x10 40 0
- 0.916496 2 3 tcp 576 ------- 0 0.0 3.0 1 3 1 0x10 40 0
r 1.01632 2 3 tcp 40 ------- 0 0.0 3.0 1 2 1 0x10 40 0
r 1.022256 2 3 tcp 576 ------- 0 0.0 3.0 1 3 1 0x10 40 0
+ 1.122656 2 0 ack 40 ------- 0 3.0 0.0 1 4 537 0x18 40 0
- 1.122656 2 0 ack 40 ------- 0 3.0 0.0 1 4 537 0x18 40 0
r 1.127696 2 0 ack 40 ------- 0 3.0 0.0 1 4 537 0x18 40 0
+ 1.133272 2 3 tcp 576 ------- 0 0.0 3.0 537 5 1 0x10 40 0
- 1.133272 2 3 tcp 576 ------- 0 0.0 3.0 537 5 1 0x10 40 0
+ 1.133848 2 3 tcp 576 ------- 0 0.0 3.0 1073 6 1 0x10 40 0
- 1.139032 2 3 tcp 576 ------- 0 0.0 3.0 1073 6 1 0x10 40 0
r 1.239032 2 3 tcp 576 ------- 0 0.0 3.0 537 5 1 0x10 40 0
r 1.244792 2 3 tcp 576 ------- 0 0.0 3.0 1073 6 1 0x10 40 0
+ 1.339432 2 0 ack 40 ------- 0 3.0 0.0 1 7 1073 0x18 40 0
- 1.339432 2 0 ack 40 ------- 0 3.0 0.0 1 7 1073 0x18 40 0
r 1.344472 2 0 ack 40 ------- 0 3.0 0.0 1 7 1073 0x18 40 0
+ 1.345192 2 0 ack 40 ------- 0 3.0 0.0 1 8 1609 0x18 40 0
- 1.345192 2 0 ack 40 ------- 0 3.0 0.0 1 8 1609 0x18 40 0
+ 1.350048 2 3 tcp 576 ------- 0 0.0 3.0 1609 9 1 0x10 40 0
- 1.350048 2 3 tcp 576 ------- 0 0.0 3.0 1609 9 1 0x10 40 0
r 1.350232 2 0 ack 40 ------- 0 3.0 0.0 1 8 1609 0x18 40 0
+ 1.350624 2 3 tcp 576 ------- 0 0.0 3.0 2145 10 1 0x10 40 0
- 1.355808 2 3 tcp 576 ------- 0 0.0 3.0 2145 10 1 0x10 40 0
+ 1.355808 2 3 tcp 576 ------- 0 0.0 3.0 2681 11 1 0x10 40 0
+ 1.356384 2 3 tcp 576 ------- 0 0.0 3.0 3217 12 1 0x10 40 0
d 1.356384 2 3 tcp 576 ------- 0 0.0 3.0 3217 12 1 0x10 40 0
- 1.361568 2 3 tcp 576 ------- 0 0.0 3.0 2681 11 1 0x10 40 0
r 1.455808 2 3 tcp 576 ------- 0 0.0 3.0 1609 9 1 0x10 40 0
r 1.461568 2 3 tcp 576 ------- 0 0.0 3.0 2145 10 1 0x10 40 0
r 1.467328 2 3 tcp 576 ------- 0 0.0 3.0 2681 11 1 0x10 40 0
+ 1.50504 2 3 tcp 40 ------- 0 0.0 3.0 3753 16 1 0x19 40 0
- 1.50504 2 3 tcp 40 ------- 0 0.0 3.0 3753 16 1 0x19 40 0
+ 1.556208 2 0 ack 40 ------- 0 3.0 0.0 1 13 2145 0x18 40 0
- 1.556208 2 0 ack 40 ------- 0 3.0 0.0 1 13 2145 0x18 40 0
r 1.561248 2 0 ack 40 ------- 0 3.0 0.0 1 13 2145 0x18 40 0
+ 1.561968 2 0 ack 40 ------- 0 3.0 0.0 1 14 2681 0x18 40 0
- 1.561968 2 0 ack 40 ------- 0 3.0 0.0 1 14 2681 0x18 40 0
r 1.567008 2 0 ack 40 ------- 0 3.0 0.0 1 14 2681 0x18 40 0
+ 1.567728 2 0 ack 40 ------- 0 3.0 0.0 1 15 3217 0x18 40 0
- 1.567728 2 0 ack 40 ------- 0 3.0 0.0 1 15 3217 0x18 40 0
r 1.572768 2 0 ack 40 ------- 0 3.0 0.0 1 15 3217 0x18 40 0
r 1.60544 2 3 tcp 40 ------- 0 0.0 3.0 3753 16 1 0x19 40 0
+ 1.70584 2 0 ack 40 ------- 0 3.0 0.0 1 17 3217 0x18 40 0
- 1.70584 2 0 ack 40 ------- 0 3.0 0.0 1 17 3217 0x18 40 0
r 1.71088 2 0 ack 40 ------- 0 3.0 0.0 1 17 3217 0x18 40 0
+ 3.078344 2 3 tcp 576 ------- 0 0.0 3.0 3217 18 1 0x19 40 0
- 3.078344 2 3 tcp 576 ------- 0 0.0 3.0 3217 18 1 0x19 40 0
r 3.184104 2 3 tcp 576 ------- 0 0.0 3.0 3217 18 1 0x19 40 0
+ 3.284504 2 0 ack 40 ------- 0 3.0 0.0 1 19 3754 0x18 40 0
- 3.284504 2 0 ack 40 ------- 0 3.0 0.0 1 19 3754 0x18 40 0
+ 3.284904 2 0 ack 40 ------- 0 3.0 0.0 1 20 3754 0x19 40 0
- 3.284904 2 0 ack 40 ------- 0 3.0 0.0 1 20 3754 0x19 40 0
r 3.289544 2 0 ack 40 ------- 0 3.0 0.0 1 19 3754 0x18 40 0
r 3.289944 2 0 ack 40 ------- 0 3.0 0.0 1 20 3754 0x19 40 0
+ 3.294984 2 3 tcp 40 ------- 0 0.0 3.0 3754 21 2 0x18 40 0
- 3.294984 2 3 tcp 40 ------- 0 0.0 3.0 3754 21 2 0x18 40 0
r 3.395384 2 3 tcp 40 ------- 0 0.0 3.0 3754 21 2 0x18 40 0
