v testName droppedsyn
+ 0.70504 2 3 tcp 40 ------- 0 0.0 3.0 0 0 -1 0xa 40 0
d 0.70504 2 3 tcp 40 ------- 0 0.0 3.0 0 0 -1 0xa 40 0
+ 6.70504 2 3 tcp 40 ------- 0 0.0 3.0 0 1 -1 0xa 40 0
- 6.70504 2 3 tcp 40 ------- 0 0.0 3.0 0 1 -1 0xa 40 0
r 6.80544 2 3 tcp 40 ------- 0 0.0 3.0 0 1 -1 0xa 40 0
+ 6.90584 2 0 ack 40 ------- 0 3.0 0.0 0 2 1 0x1a 40 0
- 6.90584 2 0 ack 40 ------- 0 3.0 0.0 0 2 1 0x1a 40 0
r 6.91088 2 0 ack 40 ------- 0 3.0 0.0 0 2 1 0x1a 40 0
+ 6.91592 2 3 tcp 40 ------- 0 0.0 3.0 1 3 1 0x10 40 0
- 6.91592 2 3 tcp 40 ------- 0 0.0 3.0 1 3 1 0x10 40 0
+ 6.916496 2 3 tcp 576 ---A--- 0 0.0 3.0 1 4 1 0x90 40 0
- 6.916496 2 3 tcp 576 ---A--- 0 0.0 3.0 1 4 1 0x90 40 0
r 7.01632 2 3 tcp 40 ------- 0 0.0 3.0 1 3 1 0x10 40 0
r 7.022256 2 3 tcp 576 ---A--- 0 0.0 3.0 1 4 1 0x90 40 0
+ 7.122656 2 0 ack 40 ------- 0 3.0 0.0 1 5 537 0x18 40 0
- 7.122656 2 0 ack 40 ------- 0 3.0 0.0 1 5 537 0x18 40 0
r 7.127696 2 0 ack 40 ------- 0 3.0 0.0 1 5 537 0x18 40 0
+ 7.133272 2 3 tcp 576 ------- 0 0.0 3.0 537 6 1 0x10 40 0
- 7.133272 2 3 tcp 576 ------- 0 0.0 3.0 537 6 1 0x10 40 0
+ 7.133848 2 3 tcp 576 ------- 0 0.0 3.0 1073 7 1 0x10 40 0
- 7.139032 2 3 tcp 576 ------- 0 0.0 3.0 1073 7 1 0x10 40 0
r 7.239032 2 3 tcp 576 ------- 0 0.0 3.0 537 6 1 0x10 40 0
r 7.244792 2 3 tcp 576 ------- 0 0.0 3.0 1073 7 1 0x10 40 0
+ 7.339432 2 0 ack 40 ------- 0 3.0 0.0 1 8 1073 0x18 40 0
- 7.339432 2 0 ack 40 ------- 0 3.0 0.0 1 8 1073 0x18 40 0
r 7.344472 2 0 ack 40 ------- 0 3.0 0.0 1 8 1073 0x18 40 0
+ 7.345192 2 0 ack 40 ------- 0 3.0 0.0 1 9 1609 0x18 40 0
- 7.345192 2 0 ack 40 ------- 0 3.0 0.0 1 9 1609 0x18 40 0
+ 7.350048 2 3 tcp 576 ------- 0 0.0 3.0 1609 10 1 0x10 40 0
- 7.350048 2 3 tcp 576 ------- 0 0.0 3.0 1609 10 1 0x10 40 0
r 7.350232 2 0 ack 40 ------- 0 3.0 0.0 1 9 1609 0x18 40 0
+ 7.355808 2 3 tcp 576 ------- 0 0.0 3.0 2145 11 1 0x10 40 0
- 7.355808 2 3 tcp 576 ------- 0 0.0 3.0 2145 11 1 0x10 40 0
r 7.455808 2 3 tcp 576 ------- 0 0.0 3.0 1609 10 1 0x10 40 0
r 7.461568 2 3 tcp 576 ------- 0 0.0 3.0 2145 11 1 0x10 40 0
+ 7.556208 2 0 ack 40 ------- 0 3.0 0.0 1 12 2145 0x18 40 0
- 7.556208 2 0 ack 40 ------- 0 3.0 0.0 1 12 2145 0x18 40 0
r 7.561248 2 0 ack 40 ------- 0 3.0 0.0 1 12 2145 0x18 40 0
+ 7.561968 2 0 ack 40 ------- 0 3.0 0.0 1 13 2681 0x18 40 0
- 7.561968 2 0 ack 40 ------- 0 3.0 0.0 1 13 2681 0x18 40 0
+ 7.566824 2 3 tcp 576 ------- 0 0.0 3.0 2681 14 1 0x10 40 0
- 7.566824 2 3 tcp 576 ------- 0 0.0 3.0 2681 14 1 0x10 40 0
r 7.567008 2 0 ack 40 ------- 0 3.0 0.0 1 13 2681 0x18 40 0
+ 7.5674 2 3 tcp 576 ------- 0 0.0 3.0 3217 15 1 0x10 40 0
- 7.572584 2 3 tcp 576 ------- 0 0.0 3.0 3217 15 1 0x10 40 0
+ 7.572584 2 3 tcp 576 ------- 0 0.0 3.0 3753 16 1 0x10 40 0
- 7.578344 2 3 tcp 576 ------- 0 0.0 3.0 3753 16 1 0x10 40 0
r 7.672584 2 3 tcp 576 ------- 0 0.0 3.0 2681 14 1 0x10 40 0
r 7.678344 2 3 tcp 576 ------- 0 0.0 3.0 3217 15 1 0x10 40 0
r 7.684104 2 3 tcp 576 ------- 0 0.0 3.0 3753 16 1 0x10 40 0
+ 7.772984 2 0 ack 40 ------- 0 3.0 0.0 1 17 3217 0x18 40 0
- 7.772984 2 0 ack 40 ------- 0 3.0 0.0 1 17 3217 0x18 40 0
r 7.778024 2 0 ack 40 ------- 0 3.0 0.0 1 17 3217 0x18 40 0
+ 7.778744 2 0 ack 40 ------- 0 3.0 0.0 1 18 3753 0x18 40 0
- 7.778744 2 0 ack 40 ------- 0 3.0 0.0 1 18 3753 0x18 40 0
+ 7.7836 2 3 tcp 576 ------- 0 0.0 3.0 4289 20 1 0x10 40 0
- 7.7836 2 3 tcp 576 ------- 0 0.0 3.0 4289 20 1 0x10 40 0
r 7.783784 2 0 ack 40 ------- 0 3.0 0.0 1 18 3753 0x18 40 0
+ 7.784504 2 0 ack 40 ------- 0 3.0 0.0 1 19 4289 0x18 40 0
- 7.784504 2 0 ack 40 ------- 0 3.0 0.0 1 19 4289 0x18 40 0
+ 7.78936 2 3 tcp 576 ------- 0 0.0 3.0 4825 21 1 0x10 40 0
- 7.78936 2 3 tcp 576 ------- 0 0.0 3.0 4825 21 1 0x10 40 0
r 7.789544 2 0 ack 40 ------- 0 3.0 0.0 1 19 4289 0x18 40 0
+ 7.789936 2 3 tcp 576 ------- 0 0.0 3.0 5361 22 1 0x10 40 0
- 7.79512 2 3 tcp 576 ------- 0 0.0 3.0 5361 22 1 0x10 40 0
+ 7.79512 2 3 tcp 576 ------- 0 0.0 3.0 5897 23 1 0x10 40 0
- 7.80088 2 3 tcp 576 ------- 0 0.0 3.0 5897 23 1 0x10 40 0
r 7.88936 2 3 tcp 576 ------- 0 0.0 3.0 4289 20 1 0x10 40 0
r 7.89512 2 3 tcp 576 ------- 0 0.0 3.0 4825 21 1 0x10 40 0
r 7.90088 2 3 tcp 576 ------- 0 0.0 3.0 5361 22 1 0x10 40 0
r 7.90664 2 3 tcp 576 ------- 0 0.0 3.0 5897 23 1 0x10 40 0
+ 7.98976 2 0 ack 40 ------- 0 3.0 0.0 1 24 4825 0x18 40 0
- 7.98976 2 0 ack 40 ------- 0 3.0 0.0 1 24 4825 0x18 40 0
r 7.9948 2 0 ack 40 ------- 0 3.0 0.0 1 24 4825 0x18 40 0
+ 7.99552 2 0 ack 40 ------- 0 3.0 0.0 1 25 5361 0x18 40 0
- 7.99552 2 0 ack 40 ------- 0 3.0 0.0 1 25 5361 0x18 40 0
+ 8.000376 2 3 tcp 576 ------- 0 0.0 3.0 6433 28 1 0x10 40 0
- 8.000376 2 3 tcp 576 ------- 0 0.0 3.0 6433 28 1 0x10 40 0
r 8.00056 2 0 ack 40 ------- 0 3.0 0.0 1 25 5361 0x18 40 0
+ 8.00128 2 0 ack 40 ------- 0 3.0 0.0 1 26 5897 0x18 40 0
- 8.00128 2 0 ack 40 ------- 0 3.0 0.0 1 26 5897 0x18 40 0
+ 8.006136 2 3 tcp 576 ------- 0 0.0 3.0 6969 29 1 0x10 40 0
- 8.006136 2 3 tcp 576 ------- 0 0.0 3.0 6969 29 1 0x10 40 0
r 8.00632 2 0 ack 40 ------- 0 3.0 0.0 1 26 5897 0x18 40 0
+ 8.00704 2 0 ack 40 ------- 0 3.0 0.0 1 27 6433 0x18 40 0
- 8.00704 2 0 ack 40 ------- 0 3.0 0.0 1 27 6433 0x18 40 0
+ 8.011896 2 3 tcp 576 ------- 0 0.0 3.0 7505 30 1 0x10 40 0
- 8.011896 2 3 tcp 576 ------- 0 0.0 3.0 7505 30 1 0x10 40 0
r 8.01208 2 0 ack 40 ------- 0 3.0 0.0 1 27 6433 0x18 40 0
+ 8.017656 2 3 tcp 576 ------- 0 0.0 3.0 8041 31 1 0x10 40 0
- 8.017656 2 3 tcp 576 ------- 0 0.0 3.0 8041 31 1 0x10 40 0
+ 8.018232 2 3 tcp 576 ------- 0 0.0 3.0 8577 32 1 0x10 40 0
- 8.023416 2 3 tcp 576 ------- 0 0.0 3.0 8577 32 1 0x10 40 0
r 8.106136 2 3 tcp 576 ------- 0 0.0 3.0 6433 28 1 0x10 40 0
r 8.111896 2 3 tcp 576 ------- 0 0.0 3.0 6969 29 1 0x10 40 0
r 8.117656 2 3 tcp 576 ------- 0 0.0 3.0 7505 30 1 0x10 40 0
r 8.123416 2 3 tcp 576 ------- 0 0.0 3.0 8041 31 1 0x10 40 0
r 8.129176 2 3 tcp 576 ------- 0 0.0 3.0 8577 32 1 0x10 40 0
+ 8.206536 2 0 ack 40 ------- 0 3.0 0.0 1 33 6969 0x18 40 0
- 8.206536 2 0 ack 40 ------- 0 3.0 0.0 1 33 6969 0x18 40 0
r 8.211576 2 0 ack 40 ------- 0 3.0 0.0 1 33 6969 0x18 40 0
+ 8.212296 2 0 ack 40 ------- 0 3.0 0.0 1 34 7505 0x18 40 0
- 8.212296 2 0 ack 40 ------- 0 3.0 0.0 1 34 7505 0x18 40 0
+ 8.217152 2 3 tcp 576 ------- 0 0.0 3.0 9113 38 1 0x10 40 0
- 8.217152 2 3 tcp 576 ------- 0 0.0 3.0 9113 38 1 0x10 40 0
r 8.217336 2 0 ack 40 ------- 0 3.0 0.0 1 34 7505 0x18 40 0
+ 8.218056 2 0 ack 40 ------- 0 3.0 0.0 1 35 8041 0x18 40 0
- 8.218056 2 0 ack 40 ------- 0 3.0 0.0 1 35 8041 0x18 40 0
+ 8.222912 2 3 tcp 576 ------- 0 0.0 3.0 9649 39 1 0x10 40 0
- 8.222912 2 3 tcp 576 ------- 0 0.0 3.0 9649 39 1 0x10 40 0
r 8.223096 2 0 ack 40 ------- 0 3.0 0.0 1 35 8041 0x18 40 0
+ 8.223816 2 0 ack 40 ------- 0 3.0 0.0 1 36 8577 0x18 40 0
- 8.223816 2 0 ack 40 ------- 0 3.0 0.0 1 36 8577 0x18 40 0
+ 8.228672 2 3 tcp 576 ------- 0 0.0 3.0 10185 40 1 0x10 40 0
- 8.228672 2 3 tcp 576 ------- 0 0.0 3.0 10185 40 1 0x10 40 0
r 8.228856 2 0 ack 40 ------- 0 3.0 0.0 1 36 8577 0x18 40 0
+ 8.229576 2 0 ack 40 ------- 0 3.0 0.0 1 37 9113 0x18 40 0
- 8.229576 2 0 ack 40 ------- 0 3.0 0.0 1 37 9113 0x18 40 0
+ 8.234432 2 3 tcp 576 ------- 0 0.0 3.0 10721 41 1 0x10 40 0
- 8.234432 2 3 tcp 576 ------- 0 0.0 3.0 10721 41 1 0x10 40 0
r 8.234616 2 0 ack 40 ------- 0 3.0 0.0 1 37 9113 0x18 40 0
+ 8.240192 2 3 tcp 576 ------- 0 0.0 3.0 11257 42 1 0x10 40 0
- 8.240192 2 3 tcp 576 ------- 0 0.0 3.0 11257 42 1 0x10 40 0
+ 8.240768 2 3 tcp 576 ------- 0 0.0 3.0 11793 43 1 0x10 40 0
d 8.240768 2 3 tcp 576 ------- 0 0.0 3.0 11793 43 1 0x10 40 0
r 8.322912 2 3 tcp 576 ------- 0 0.0 3.0 9113 38 1 0x10 40 0
r 8.328672 2 3 tcp 576 ------- 0 0.0 3.0 9649 39 1 0x10 40 0
r 8.334432 2 3 tcp 576 ------- 0 0.0 3.0 10185 40 1 0x10 40 0
r 8.340192 2 3 tcp 576 ------- 0 0.0 3.0 10721 41 1 0x10 40 0
r 8.345952 2 3 tcp 576 ------- 0 0.0 3.0 11257 42 1 0x10 40 0
+ 8.423312 2 0 ack 40 ------- 0 3.0 0.0 1 44 9649 0x18 40 0
- 8.423312 2 0 ack 40 ------- 0 3.0 0.0 1 44 9649 0x18 40 0
r 8.428352 2 0 ack 40 ------- 0 3.0 0.0 1 44 9649 0x18 40 0
+ 8.429072 2 0 ack 40 ------- 0 3.0 0.0 1 45 10185 0x18 40 0
- 8.429072 2 0 ack 40 ------- 0 3.0 0.0 1 45 10185 0x18 40 0
+ 8.433928 2 3 tcp 576 ------- 0 0.0 3.0 12329 49 1 0x10 40 0
- 8.433928 2 3 tcp 576 ------- 0 0.0 3.0 12329 49 1 0x10 40 0
r 8.434112 2 0 ack 40 ------- 0 3.0 0.0 1 45 10185 0x18 40 0
+ 8.434832 2 0 ack 40 ------- 0 3.0 0.0 1 46 10721 0x18 40 0
- 8.434832 2 0 ack 40 ------- 0 3.0 0.0 1 46 10721 0x18 40 0
+ 8.439688 2 3 tcp 576 ------- 0 0.0 3.0 12865 50 1 0x10 40 0
- 8.439688 2 3 tcp 576 ------- 0 0.0 3.0 12865 50 1 0x10 40 0
r 8.439872 2 0 ack 40 ------- 0 3.0 0.0 1 46 10721 0x18 40 0
+ 8.440592 2 0 ack 40 ------- 0 3.0 0.0 1 47 11257 0x18 40 0
- 8.440592 2 0 ack 40 ------- 0 3.0 0.0 1 47 11257 0x18 40 0
+ 8.445448 2 3 tcp 576 ------- 0 0.0 3.0 13401 51 1 0x10 40 0
- 8.445448 2 3 tcp 576 ------- 0 0.0 3.0 13401 51 1 0x10 40 0
r 8.445632 2 0 ack 40 ------- 0 3.0 0.0 1 47 11257 0x18 40 0
+ 8.446352 2 0 ack 40 ------- 0 3.0 0.0 1 48 11793 0x18 40 0
- 8.446352 2 0 ack 40 ------- 0 3.0 0.0 1 48 11793 0x18 40 0
+ 8.451208 2 3 tcp 576 ------- 0 0.0 3.0 13937 52 1 0x10 40 0
- 8.451208 2 3 tcp 576 ------- 0 0.0 3.0 13937 52 1 0x10 40 0
r 8.451392 2 0 ack 40 ------- 0 3.0 0.0 1 48 11793 0x18 40 0
+ 8.456968 2 3 tcp 576 ------- 0 0.0 3.0 14473 53 1 0x10 40 0
- 8.456968 2 3 tcp 576 ------- 0 0.0 3.0 14473 53 1 0x10 40 0
r 8.539688 2 3 tcp 576 ------- 0 0.0 3.0 12329 49 1 0x10 40 0
r 8.545448 2 3 tcp 576 ------- 0 0.0 3.0 12865 50 1 0x10 40 0
r 8.551208 2 3 tcp 576 ------- 0 0.0 3.0 13401 51 1 0x10 40 0
r 8.556968 2 3 tcp 576 ------- 0 0.0 3.0 13937 52 1 0x10 40 0
r 8.562728 2 3 tcp 576 ------- 0 0.0 3.0 14473 53 1 0x10 40 0
+ 8.640088 2 0 ack 40 ------- 0 3.0 0.0 1 54 11793 0x18 40 0
- 8.640088 2 0 ack 40 ------- 0 3.0 0.0 1 54 11793 0x18 40 0
r 8.645128 2 0 ack 40 ------- 0 3.0 0.0 1 54 11793 0x18 40 0
+ 8.645848 2 0 ack 40 ------- 0 3.0 0.0 1 55 11793 0x18 40 0
- 8.645848 2 0 ack 40 ------- 0 3.0 0.0 1 55 11793 0x18 40 0
r 8.650888 2 0 ack 40 ------- 0 3.0 0.0 1 55 11793 0x18 40 0
+ 8.651608 2 0 ack 40 ------- 0 3.0 0.0 1 56 11793 0x18 40 0
- 8.651608 2 0 ack 40 ------- 0 3.0 0.0 1 56 11793 0x18 40 0
r 8.656648 2 0 ack 40 ------- 0 3.0 0.0 1 56 11793 0x18 40 0
+ 8.657368 2 0 ack 40 ------- 0 3.0 0.0 1 57 11793 0x18 40 0
- 8.657368 2 0 ack 40 ------- 0 3.0 0.0 1 57 11793 0x18 40 0
+ 8.662224 2 3 tcp 576 ------- 0 0.0 3.0 11793 59 1 0x10 40 0
- 8.662224 2 3 tcp 576 ------- 0 0.0 3.0 11793 59 1 0x10 40 0
r 8.662408 2 0 ack 40 ------- 0 3.0 0.0 1 57 11793 0x18 40 0
+ 8.663128 2 0 ack 40 ------- 0 3.0 0.0 1 58 11793 0x18 40 0
- 8.663128 2 0 ack 40 ------- 0 3.0 0.0 1 58 11793 0x18 40 0
+ 8.667984 2 3 tcp 576 ---A--- 0 0.0 3.0 15009 60 1 0x90 40 0
- 8.667984 2 3 tcp 576 ---A--- 0 0.0 3.0 15009 60 1 0x90 40 0
r 8.668168 2 0 ack 40 ------- 0 3.0 0.0 1 58 11793 0x18 40 0
+ 8.673744 2 3 tcp 576 ------- 0 0.0 3.0 15545 61 1 0x10 40 0
- 8.673744 2 3 tcp 576 ------- 0 0.0 3.0 15545 61 1 0x10 40 0
r 8.767984 2 3 tcp 576 ------- 0 0.0 3.0 11793 59 1 0x10 40 0
r 8.773744 2 3 tcp 576 ---A--- 0 0.0 3.0 15009 60 1 0x90 40 0
r 8.779504 2 3 tcp 576 ------- 0 0.0 3.0 15545 61 1 0x10 40 0
+ 8.868384 2 0 ack 40 ------- 0 3.0 0.0 1 62 15009 0x18 40 0
- 8.868384 2 0 ack 40 ------- 0 3.0 0.0 1 62 15009 0x18 40 0
r 8.873424 2 0 ack 40 ------- 0 3.0 0.0 1 62 15009 0x18 40 0
+ 8.874144 2 0 ack 40 ------- 0 3.0 0.0 1 63 15545 0x18 40 0
- 8.874144 2 0 ack 40 ------- 0 3.0 0.0 1 63 15545 0x18 40 0
+ 8.879 2 3 tcp 576 ------- 0 0.0 3.0 16081 65 1 0x10 40 0
- 8.879 2 3 tcp 576 ------- 0 0.0 3.0 16081 65 1 0x10 40 0
r 8.879184 2 0 ack 40 ------- 0 3.0 0.0 1 63 15545 0x18 40 0
+ 8.879904 2 0 ack 40 ------- 0 3.0 0.0 1 64 16081 0x18 40 0
- 8.879904 2 0 ack 40 ------- 0 3.0 0.0 1 64 16081 0x18 40 0
+ 8.88476 2 3 tcp 576 ------- 0 0.0 3.0 16617 66 1 0x10 40 0
- 8.88476 2 3 tcp 576 ------- 0 0.0 3.0 16617 66 1 0x10 40 0
r 8.884944 2 0 ack 40 ------- 0 3.0 0.0 1 64 16081 0x18 40 0
+ 8.89052 2 3 tcp 576 ------- 0 0.0 3.0 17153 67 1 0x10 40 0
- 8.89052 2 3 tcp 576 ------- 0 0.0 3.0 17153 67 1 0x10 40 0
r 8.98476 2 3 tcp 576 ------- 0 0.0 3.0 16081 65 1 0x10 40 0
r 8.99052 2 3 tcp 576 ------- 0 0.0 3.0 16617 66 1 0x10 40 0
r 8.99628 2 3 tcp 576 ------- 0 0.0 3.0 17153 67 1 0x10 40 0
+ 9.08516 2 0 ack 40 ------- 0 3.0 0.0 1 68 16617 0x18 40 0
- 9.08516 2 0 ack 40 ------- 0 3.0 0.0 1 68 16617 0x18 40 0
r 9.0902 2 0 ack 40 ------- 0 3.0 0.0 1 68 16617 0x18 40 0
+ 9.09092 2 0 ack 40 ------- 0 3.0 0.0 1 69 17153 0x18 40 0
- 9.09092 2 0 ack 40 ------- 0 3.0 0.0 1 69 17153 0x18 40 0
+ 9.095776 2 3 tcp 576 ------- 0 0.0 3.0 17689 71 1 0x10 40 0
- 9.095776 2 3 tcp 576 ------- 0 0.0 3.0 17689 71 1 0x10 40 0
r 9.09596 2 0 ack 40 ------- 0 3.0 0.0 1 69 17153 0x18 40 0
+ 9.096352 2 3 tcp 576 ------- 0 0.0 3.0 18225 72 1 0x10 40 0
+ 9.09668 2 0 ack 40 ------- 0 3.0 0.0 1 70 17689 0x18 40 0
- 9.09668 2 0 ack 40 ------- 0 3.0 0.0 1 70 17689 0x18 40 0
- 9.101536 2 3 tcp 576 ------- 0 0.0 3.0 18225 72 1 0x10 40 0
+ 9.101536 2 3 tcp 576 ------- 0 0.0 3.0 18761 73 1 0x10 40 0
r 9.10172 2 0 ack 40 ------- 0 3.0 0.0 1 70 17689 0x18 40 0
- 9.107296 2 3 tcp 576 ------- 0 0.0 3.0 18761 73 1 0x10 40 0
+ 9.107296 2 3 tcp 576 ------- 0 0.0 3.0 19297 74 1 0x10 40 0
- 9.113056 2 3 tcp 576 ------- 0 0.0 3.0 19297 74 1 0x10 40 0
r 9.201536 2 3 tcp 576 ------- 0 0.0 3.0 17689 71 1 0x10 40 0
r 9.207296 2 3 tcp 576 ------- 0 0.0 3.0 18225 72 1 0x10 40 0
r 9.213056 2 3 tcp 576 ------- 0 0.0 3.0 18761 73 1 0x10 40 0
r 9.218816 2 3 tcp 576 ------- 0 0.0 3.0 19297 74 1 0x10 40 0
+ 9.301936 2 0 ack 40 ------- 0 3.0 0.0 1 75 18225 0x18 40 0
- 9.301936 2 0 ack 40 ------- 0 3.0 0.0 1 75 18225 0x18 40 0
r 9.306976 2 0 ack 40 ------- 0 3.0 0.0 1 75 18225 0x18 40 0
+ 9.307696 2 0 ack 40 ------- 0 3.0 0.0 1 76 18761 0x18 40 0
- 9.307696 2 0 ack 40 ------- 0 3.0 0.0 1 76 18761 0x18 40 0
+ 9.312552 2 3 tcp 576 ------- 0 0.0 3.0 19833 79 1 0x10 40 0
- 9.312552 2 3 tcp 576 ------- 0 0.0 3.0 19833 79 1 0x10 40 0
r 9.312736 2 0 ack 40 ------- 0 3.0 0.0 1 76 18761 0x18 40 0
+ 9.313456 2 0 ack 40 ------- 0 3.0 0.0 1 77 19297 0x18 40 0
- 9.313456 2 0 ack 40 ------- 0 3.0 0.0 1 77 19297 0x18 40 0
+ 9.318312 2 3 tcp 576 ------- 0 0.0 3.0 20369 80 1 0x10 40 0
- 9.318312 2 3 tcp 576 ------- 0 0.0 3.0 20369 80 1 0x10 40 0
r 9.318496 2 0 ack 40 ------- 0 3.0 0.0 1 77 19297 0x18 40 0
+ 9.318888 2 3 tcp 576 ------- 0 0.0 3.0 20905 81 1 0x10 40 0
+ 9.319216 2 0 ack 40 ------- 0 3.0 0.0 1 78 19833 0x18 40 0
- 9.319216 2 0 ack 40 ------- 0 3.0 0.0 1 78 19833 0x18 40 0
- 9.324072 2 3 tcp 576 ------- 0 0.0 3.0 20905 81 1 0x10 40 0
+ 9.324072 2 3 tcp 576 ------- 0 0.0 3.0 21441 82 1 0x10 40 0
r 9.324256 2 0 ack 40 ------- 0 3.0 0.0 1 78 19833 0x18 40 0
- 9.329832 2 3 tcp 576 ------- 0 0.0 3.0 21441 82 1 0x10 40 0
+ 9.329832 2 3 tcp 576 ------- 0 0.0 3.0 21977 83 1 0x10 40 0
- 9.335592 2 3 tcp 576 ------- 0 0.0 3.0 21977 83 1 0x10 40 0
r 9.418312 2 3 tcp 576 ------- 0 0.0 3.0 19833 79 1 0x10 40 0
r 9.424072 2 3 tcp 576 ------- 0 0.0 3.0 20369 80 1 0x10 40 0
r 9.429832 2 3 tcp 576 ------- 0 0.0 3.0 20905 81 1 0x10 40 0
r 9.435592 2 3 tcp 576 ------- 0 0.0 3.0 21441 82 1 0x10 40 0
r 9.441352 2 3 tcp 576 ------- 0 0.0 3.0 21977 83 1 0x10 40 0
+ 9.518712 2 0 ack 40 ------- 0 3.0 0.0 1 84 20369 0x18 40 0
- 9.518712 2 0 ack 40 ------- 0 3.0 0.0 1 84 20369 0x18 40 0
r 9.523752 2 0 ack 40 ------- 0 3.0 0.0 1 84 20369 0x18 40 0
+ 9.524472 2 0 ack 40 ------- 0 3.0 0.0 1 85 20905 0x18 40 0
- 9.524472 2 0 ack 40 ------- 0 3.0 0.0 1 85 20905 0x18 40 0
+ 9.529328 2 3 tcp 576 ------- 0 0.0 3.0 22513 89 1 0x10 40 0
- 9.529328 2 3 tcp 576 ------- 0 0.0 3.0 22513 89 1 0x10 40 0
r 9.529512 2 0 ack 40 ------- 0 3.0 0.0 1 85 20905 0x18 40 0
+ 9.530232 2 0 ack 40 ------- 0 3.0 0.0 1 86 21441 0x18 40 0
- 9.530232 2 0 ack 40 ------- 0 3.0 0.0 1 86 21441 0x18 40 0
+ 9.535088 2 3 tcp 576 ------- 0 0.0 3.0 23049 90 1 0x10 40 0
- 9.535088 2 3 tcp 576 ------- 0 0.0 3.0 23049 90 1 0x10 40 0
r 9.535272 2 0 ack 40 ------- 0 3.0 0.0 1 86 21441 0x18 40 0
+ 9.535992 2 0 ack 40 ------- 0 3.0 0.0 1 87 21977 0x18 40 0
- 9.535992 2 0 ack 40 ------- 0 3.0 0.0 1 87 21977 0x18 40 0
+ 9.540848 2 3 tcp 576 ------- 0 0.0 3.0 23585 91 1 0x10 40 0
- 9.540848 2 3 tcp 576 ------- 0 0.0 3.0 23585 91 1 0x10 40 0
r 9.541032 2 0 ack 40 ------- 0 3.0 0.0 1 87 21977 0x18 40 0
+ 9.541752 2 0 ack 40 ------- 0 3.0 0.0 1 88 22513 0x18 40 0
- 9.541752 2 0 ack 40 ------- 0 3.0 0.0 1 88 22513 0x18 40 0
+ 9.546608 2 3 tcp 576 ------- 0 0.0 3.0 24121 92 1 0x10 40 0
- 9.546608 2 3 tcp 576 ------- 0 0.0 3.0 24121 92 1 0x10 40 0
r 9.546792 2 0 ack 40 ------- 0 3.0 0.0 1 88 22513 0x18 40 0
+ 9.547184 2 3 tcp 576 ------- 0 0.0 3.0 24657 93 1 0x10 40 0
d 9.547184 2 3 tcp 576 ------- 0 0.0 3.0 24657 93 1 0x10 40 0
+ 9.552368 2 3 tcp 576 ------- 0 0.0 3.0 25193 94 1 0x10 40 0
- 9.552368 2 3 tcp 576 ------- 0 0.0 3.0 25193 94 1 0x10 40 0
r 9.635088 2 3 tcp 576 ------- 0 0.0 3.0 22513 89 1 0x10 40 0
r 9.640848 2 3 tcp 576 ------- 0 0.0 3.0 23049 90 1 0x10 40 0
r 9.646608 2 3 tcp 576 ------- 0 0.0 3.0 23585 91 1 0x10 40 0
r 9.652368 2 3 tcp 576 ------- 0 0.0 3.0 24121 92 1 0x10 40 0
r 9.658128 2 3 tcp 576 ------- 0 0.0 3.0 25193 94 1 0x10 40 0
+ 9.735488 2 0 ack 40 ------- 0 3.0 0.0 1 95 23049 0x18 40 0
- 9.735488 2 0 ack 40 ------- 0 3.0 0.0 1 95 23049 0x18 40 0
r 9.740528 2 0 ack 40 ------- 0 3.0 0.0 1 95 23049 0x18 40 0
+ 9.741248 2 0 ack 40 ------- 0 3.0 0.0 1 96 23585 0x18 40 0
- 9.741248 2 0 ack 40 ------- 0 3.0 0.0 1 96 23585 0x18 40 0
+ 9.746104 2 3 tcp 576 ------- 0 0.0 3.0 25729 100 1 0x10 40 0
- 9.746104 2 3 tcp 576 ------- 0 0.0 3.0 25729 100 1 0x10 40 0
r 9.746288 2 0 ack 40 ------- 0 3.0 0.0 1 96 23585 0x18 40 0
+ 9.747008 2 0 ack 40 ------- 0 3.0 0.0 1 97 24121 0x18 40 0
- 9.747008 2 0 ack 40 ------- 0 3.0 0.0 1 97 24121 0x18 40 0
+ 9.751864 2 3 tcp 576 ------- 0 0.0 3.0 26265 101 1 0x10 40 0
- 9.751864 2 3 tcp 576 ------- 0 0.0 3.0 26265 101 1 0x10 40 0
r 9.752048 2 0 ack 40 ------- 0 3.0 0.0 1 97 24121 0x18 40 0
+ 9.752768 2 0 ack 40 ------- 0 3.0 0.0 1 98 24657 0x18 40 0
- 9.752768 2 0 ack 40 ------- 0 3.0 0.0 1 98 24657 0x18 40 0
+ 9.757624 2 3 tcp 576 ------- 0 0.0 3.0 26801 102 1 0x10 40 0
- 9.757624 2 3 tcp 576 ------- 0 0.0 3.0 26801 102 1 0x10 40 0
r 9.757808 2 0 ack 40 ------- 0 3.0 0.0 1 98 24657 0x18 40 0
+ 9.758528 2 0 ack 40 ------- 0 3.0 0.0 1 99 24657 0x18 40 0
- 9.758528 2 0 ack 40 ------- 0 3.0 0.0 1 99 24657 0x18 40 0
+ 9.763384 2 3 tcp 576 ------- 0 0.0 3.0 27337 103 1 0x10 40 0
- 9.763384 2 3 tcp 576 ------- 0 0.0 3.0 27337 103 1 0x10 40 0
r 9.763568 2 0 ack 40 ------- 0 3.0 0.0 1 99 24657 0x18 40 0
r 9.851864 2 3 tcp 576 ------- 0 0.0 3.0 25729 100 1 0x10 40 0
r 9.857624 2 3 tcp 576 ------- 0 0.0 3.0 26265 101 1 0x10 40 0
r 9.863384 2 3 tcp 576 ------- 0 0.0 3.0 26801 102 1 0x10 40 0
r 9.869144 2 3 tcp 576 ------- 0 0.0 3.0 27337 103 1 0x10 40 0
+ 9.952264 2 0 ack 40 ------- 0 3.0 0.0 1 104 24657 0x18 40 0
- 9.952264 2 0 ack 40 ------- 0 3.0 0.0 1 104 24657 0x18 40 0
r 9.957304 2 0 ack 40 ------- 0 3.0 0.0 1 104 24657 0x18 40 0
+ 9.958024 2 0 ack 40 ------- 0 3.0 0.0 1 105 24657 0x18 40 0
- 9.958024 2 0 ack 40 ------- 0 3.0 0.0 1 105 24657 0x18 40 0
r 9.963064 2 0 ack 40 ------- 0 3.0 0.0 1 105 24657 0x18 40 0
+ 9.963784 2 0 ack 40 ------- 0 3.0 0.0 1 106 24657 0x18 40 0
- 9.963784 2 0 ack 40 ------- 0 3.0 0.0 1 106 24657 0x18 40 0
+ 9.96864 2 3 tcp 576 ------- 0 0.0 3.0 24657 108 1 0x10 40 0
- 9.96864 2 3 tcp 576 ------- 0 0.0 3.0 24657 108 1 0x10 40 0
r 9.968824 2 0 ack 40 ------- 0 3.0 0.0 1 106 24657 0x18 40 0
+ 9.969544 2 0 ack 40 ------- 0 3.0 0.0 1 107 24657 0x18 40 0
- 9.969544 2 0 ack 40 ------- 0 3.0 0.0 1 107 24657 0x18 40 0
+ 9.9744 2 3 tcp 576 ---A--- 0 0.0 3.0 27873 109 1 0x90 40 0
- 9.9744 2 3 tcp 576 ---A--- 0 0.0 3.0 27873 109 1 0x90 40 0
r 9.974584 2 0 ack 40 ------- 0 3.0 0.0 1 107 24657 0x18 40 0
+ 9.98016 2 3 tcp 576 ------- 0 0.0 3.0 28409 110 1 0x10 40 0
- 9.98016 2 3 tcp 576 ------- 0 0.0 3.0 28409 110 1 0x10 40 0
r 10.0744 2 3 tcp 576 ------- 0 0.0 3.0 24657 108 1 0x10 40 0
r 10.08016 2 3 tcp 576 ---A--- 0 0.0 3.0 27873 109 1 0x90 40 0
r 10.08592 2 3 tcp 576 ------- 0 0.0 3.0 28409 110 1 0x10 40 0
+ 10.1748 2 0 ack 40 ------- 0 3.0 0.0 1 111 27873 0x18 40 0
- 10.1748 2 0 ack 40 ------- 0 3.0 0.0 1 111 27873 0x18 40 0
r 10.17984 2 0 ack 40 ------- 0 3.0 0.0 1 111 27873 0x18 40 0
+ 10.18056 2 0 ack 40 ------- 0 3.0 0.0 1 112 28409 0x18 40 0
- 10.18056 2 0 ack 40 ------- 0 3.0 0.0 1 112 28409 0x18 40 0
+ 10.185416 2 3 tcp 576 ------- 0 0.0 3.0 28945 114 1 0x10 40 0
- 10.185416 2 3 tcp 576 ------- 0 0.0 3.0 28945 114 1 0x10 40 0
r 10.1856 2 0 ack 40 ------- 0 3.0 0.0 1 112 28409 0x18 40 0
+ 10.18632 2 0 ack 40 ------- 0 3.0 0.0 1 113 28945 0x18 40 0
- 10.18632 2 0 ack 40 ------- 0 3.0 0.0 1 113 28945 0x18 40 0
+ 10.191176 2 3 tcp 576 ------- 0 0.0 3.0 29481 115 1 0x10 40 0
- 10.191176 2 3 tcp 576 ------- 0 0.0 3.0 29481 115 1 0x10 40 0
r 10.19136 2 0 ack 40 ------- 0 3.0 0.0 1 113 28945 0x18 40 0
+ 10.196936 2 3 tcp 576 ------- 0 0.0 3.0 30017 116 1 0x10 40 0
- 10.196936 2 3 tcp 576 ------- 0 0.0 3.0 30017 116 1 0x10 40 0
r 10.291176 2 3 tcp 576 ------- 0 0.0 3.0 28945 114 1 0x10 40 0
r 10.296936 2 3 tcp 576 ------- 0 0.0 3.0 29481 115 1 0x10 40 0
r 10.302696 2 3 tcp 576 ------- 0 0.0 3.0 30017 116 1 0x10 40 0
+ 10.391576 2 0 ack 40 ------- 0 3.0 0.0 1 117 29481 0x18 40 0
- 10.391576 2 0 ack 40 ------- 0 3.0 0.0 1 117 29481 0x18 40 0
r 10.396616 2 0 ack 40 ------- 0 3.0 0.0 1 117 29481 0x18 40 0
+ 10.397336 2 0 ack 40 ------- 0 3.0 0.0 1 118 30017 0x18 40 0
- 10.397336 2 0 ack 40 ------- 0 3.0 0.0 1 118 30017 0x18 40 0
+ 10.402192 2 3 tcp 576 ------- 0 0.0 3.0 30553 120 1 0x10 40 0
- 10.402192 2 3 tcp 576 ------- 0 0.0 3.0 30553 120 1 0x10 40 0
r 10.402376 2 0 ack 40 ------- 0 3.0 0.0 1 118 30017 0x18 40 0
+ 10.402768 2 3 tcp 576 ------- 0 0.0 3.0 31089 121 1 0x10 40 0
+ 10.403096 2 0 ack 40 ------- 0 3.0 0.0 1 119 30553 0x18 40 0
- 10.403096 2 0 ack 40 ------- 0 3.0 0.0 1 119 30553 0x18 40 0
- 10.407952 2 3 tcp 576 ------- 0 0.0 3.0 31089 121 1 0x10 40 0
+ 10.407952 2 3 tcp 576 ------- 0 0.0 3.0 31625 122 1 0x10 40 0
r 10.408136 2 0 ack 40 ------- 0 3.0 0.0 1 119 30553 0x18 40 0
- 10.413712 2 3 tcp 576 ------- 0 0.0 3.0 31625 122 1 0x10 40 0
+ 10.413712 2 3 tcp 576 ------- 0 0.0 3.0 32161 123 1 0x10 40 0
- 10.419472 2 3 tcp 576 ------- 0 0.0 3.0 32161 123 1 0x10 40 0
r 10.507952 2 3 tcp 576 ------- 0 0.0 3.0 30553 120 1 0x10 40 0
r 10.513712 2 3 tcp 576 ------- 0 0.0 3.0 31089 121 1 0x10 40 0
r 10.519472 2 3 tcp 576 ------- 0 0.0 3.0 31625 122 1 0x10 40 0
r 10.525232 2 3 tcp 576 ------- 0 0.0 3.0 32161 123 1 0x10 40 0
+ 10.608352 2 0 ack 40 ------- 0 3.0 0.0 1 124 31089 0x18 40 0
- 10.608352 2 0 ack 40 ------- 0 3.0 0.0 1 124 31089 0x18 40 0
r 10.613392 2 0 ack 40 ------- 0 3.0 0.0 1 124 31089 0x18 40 0
+ 10.614112 2 0 ack 40 ------- 0 3.0 0.0 1 125 31625 0x18 40 0
- 10.614112 2 0 ack 40 ------- 0 3.0 0.0 1 125 31625 0x18 40 0
+ 10.618968 2 3 tcp 576 ------- 0 0.0 3.0 32697 128 1 0x10 40 0
- 10.618968 2 3 tcp 576 ------- 0 0.0 3.0 32697 128 1 0x10 40 0
r 10.619152 2 0 ack 40 ------- 0 3.0 0.0 1 125 31625 0x18 40 0
+ 10.619872 2 0 ack 40 ------- 0 3.0 0.0 1 126 32161 0x18 40 0
- 10.619872 2 0 ack 40 ------- 0 3.0 0.0 1 126 32161 0x18 40 0
+ 10.624728 2 3 tcp 576 ------- 0 0.0 3.0 33233 129 1 0x10 40 0
- 10.624728 2 3 tcp 576 ------- 0 0.0 3.0 33233 129 1 0x10 40 0
r 10.624912 2 0 ack 40 ------- 0 3.0 0.0 1 126 32161 0x18 40 0
+ 10.625304 2 3 tcp 576 ------- 0 0.0 3.0 33769 130 1 0x10 40 0
+ 10.625632 2 0 ack 40 ------- 0 3.0 0.0 1 127 32697 0x18 40 0
- 10.625632 2 0 ack 40 ------- 0 3.0 0.0 1 127 32697 0x18 40 0
- 10.630488 2 3 tcp 576 ------- 0 0.0 3.0 33769 130 1 0x10 40 0
+ 10.630488 2 3 tcp 576 ------- 0 0.0 3.0 34305 131 1 0x10 40 0
r 10.630672 2 0 ack 40 ------- 0 3.0 0.0 1 127 32697 0x18 40 0
- 10.636248 2 3 tcp 576 ------- 0 0.0 3.0 34305 131 1 0x10 40 0
+ 10.636248 2 3 tcp 576 ------- 0 0.0 3.0 34841 132 1 0x10 40 0
- 10.642008 2 3 tcp 576 ------- 0 0.0 3.0 34841 132 1 0x10 40 0
r 10.724728 2 3 tcp 576 ------- 0 0.0 3.0 32697 128 1 0x10 40 0
r 10.730488 2 3 tcp 576 ------- 0 0.0 3.0 33233 129 1 0x10 40 0
r 10.736248 2 3 tcp 576 ------- 0 0.0 3.0 33769 130 1 0x10 40 0
r 10.742008 2 3 tcp 576 ------- 0 0.0 3.0 34305 131 1 0x10 40 0
r 10.747768 2 3 tcp 576 ------- 0 0.0 3.0 34841 132 1 0x10 40 0
+ 10.825128 2 0 ack 40 ------- 0 3.0 0.0 1 133 33233 0x18 40 0
- 10.825128 2 0 ack 40 ------- 0 3.0 0.0 1 133 33233 0x18 40 0
r 10.830168 2 0 ack 40 ------- 0 3.0 0.0 1 133 33233 0x18 40 0
+ 10.830888 2 0 ack 40 ------- 0 3.0 0.0 1 134 33769 0x18 40 0
- 10.830888 2 0 ack 40 ------- 0 3.0 0.0 1 134 33769 0x18 40 0
+ 10.835744 2 3 tcp 576 ------- 0 0.0 3.0 35377 138 1 0x10 40 0
- 10.835744 2 3 tcp 576 ------- 0 0.0 3.0 35377 138 1 0x10 40 0
r 10.835928 2 0 ack 40 ------- 0 3.0 0.0 1 134 33769 0x18 40 0
+ 10.836648 2 0 ack 40 ------- 0 3.0 0.0 1 135 34305 0x18 40 0
- 10.836648 2 0 ack 40 ------- 0 3.0 0.0 1 135 34305 0x18 40 0
+ 10.841504 2 3 tcp 576 ------- 0 0.0 3.0 35913 139 1 0x10 40 0
- 10.841504 2 3 tcp 576 ------- 0 0.0 3.0 35913 139 1 0x10 40 0
r 10.841688 2 0 ack 40 ------- 0 3.0 0.0 1 135 34305 0x18 40 0
+ 10.842408 2 0 ack 40 ------- 0 3.0 0.0 1 136 34841 0x18 40 0
- 10.842408 2 0 ack 40 ------- 0 3.0 0.0 1 136 34841 0x18 40 0
+ 10.847264 2 3 tcp 576 ------- 0 0.0 3.0 36449 140 1 0x10 40 0
- 10.847264 2 3 tcp 576 ------- 0 0.0 3.0 36449 140 1 0x10 40 0
r 10.847448 2 0 ack 40 ------- 0 3.0 0.0 1 136 34841 0x18 40 0
+ 10.848168 2 0 ack 40 ------- 0 3.0 0.0 1 137 35377 0x18 40 0
- 10.848168 2 0 ack 40 ------- 0 3.0 0.0 1 137 35377 0x18 40 0
+ 10.853024 2 3 tcp 576 ------- 0 0.0 3.0 36985 141 1 0x10 40 0
- 10.853024 2 3 tcp 576 ------- 0 0.0 3.0 36985 141 1 0x10 40 0
r 10.853208 2 0 ack 40 ------- 0 3.0 0.0 1 137 35377 0x18 40 0
+ 10.8536 2 3 tcp 576 ------- 0 0.0 3.0 37521 142 1 0x10 40 0
d 10.8536 2 3 tcp 576 ------- 0 0.0 3.0 37521 142 1 0x10 40 0
+ 10.858784 2 3 tcp 576 ------- 0 0.0 3.0 38057 143 1 0x10 40 0
- 10.858784 2 3 tcp 576 ------- 0 0.0 3.0 38057 143 1 0x10 40 0
r 10.941504 2 3 tcp 576 ------- 0 0.0 3.0 35377 138 1 0x10 40 0
r 10.947264 2 3 tcp 576 ------- 0 0.0 3.0 35913 139 1 0x10 40 0
r 10.953024 2 3 tcp 576 ------- 0 0.0 3.0 36449 140 1 0x10 40 0
r 10.958784 2 3 tcp 576 ------- 0 0.0 3.0 36985 141 1 0x10 40 0
r 10.964544 2 3 tcp 576 ------- 0 0.0 3.0 38057 143 1 0x10 40 0
+ 11.041904 2 0 ack 40 ------- 0 3.0 0.0 1 144 35913 0x18 40 0
- 11.041904 2 0 ack 40 ------- 0 3.0 0.0 1 144 35913 0x18 40 0
r 11.046944 2 0 ack 40 ------- 0 3.0 0.0 1 144 35913 0x18 40 0
+ 11.047664 2 0 ack 40 ------- 0 3.0 0.0 1 145 36449 0x18 40 0
- 11.047664 2 0 ack 40 ------- 0 3.0 0.0 1 145 36449 0x18 40 0
+ 11.05252 2 3 tcp 576 ------- 0 0.0 3.0 38593 149 1 0x10 40 0
- 11.05252 2 3 tcp 576 ------- 0 0.0 3.0 38593 149 1 0x10 40 0
r 11.052704 2 0 ack 40 ------- 0 3.0 0.0 1 145 36449 0x18 40 0
+ 11.053424 2 0 ack 40 ------- 0 3.0 0.0 1 146 36985 0x18 40 0
- 11.053424 2 0 ack 40 ------- 0 3.0 0.0 1 146 36985 0x18 40 0
+ 11.05828 2 3 tcp 576 ------- 0 0.0 3.0 39129 150 1 0x10 40 0
- 11.05828 2 3 tcp 576 ------- 0 0.0 3.0 39129 150 1 0x10 40 0
r 11.058464 2 0 ack 40 ------- 0 3.0 0.0 1 146 36985 0x18 40 0
+ 11.059184 2 0 ack 40 ------- 0 3.0 0.0 1 147 37521 0x18 40 0
- 11.059184 2 0 ack 40 ------- 0 3.0 0.0 1 147 37521 0x18 40 0
+ 11.06404 2 3 tcp 576 ------- 0 0.0 3.0 39665 151 1 0x10 40 0
- 11.06404 2 3 tcp 576 ------- 0 0.0 3.0 39665 151 1 0x10 40 0
r 11.064224 2 0 ack 40 ------- 0 3.0 0.0 1 147 37521 0x18 40 0
+ 11.064944 2 0 ack 40 ------- 0 3.0 0.0 1 148 37521 0x18 40 0
- 11.064944 2 0 ack 40 ------- 0 3.0 0.0 1 148 37521 0x18 40 0
+ 11.0698 2 3 tcp 576 ------- 0 0.0 3.0 40201 152 1 0x10 40 0
- 11.0698 2 3 tcp 576 ------- 0 0.0 3.0 40201 152 1 0x10 40 0
r 11.069984 2 0 ack 40 ------- 0 3.0 0.0 1 148 37521 0x18 40 0
r 11.15828 2 3 tcp 576 ------- 0 0.0 3.0 38593 149 1 0x10 40 0
r 11.16404 2 3 tcp 576 ------- 0 0.0 3.0 39129 150 1 0x10 40 0
r 11.1698 2 3 tcp 576 ------- 0 0.0 3.0 39665 151 1 0x10 40 0
r 11.17556 2 3 tcp 576 ------- 0 0.0 3.0 40201 152 1 0x10 40 0
+ 11.25868 2 0 ack 40 ------- 0 3.0 0.0 1 153 37521 0x18 40 0
- 11.25868 2 0 ack 40 ------- 0 3.0 0.0 1 153 37521 0x18 40 0
r 11.26372 2 0 ack 40 ------- 0 3.0 0.0 1 153 37521 0x18 40 0
+ 11.26444 2 0 ack 40 ------- 0 3.0 0.0 1 154 37521 0x18 40 0
- 11.26444 2 0 ack 40 ------- 0 3.0 0.0 1 154 37521 0x18 40 0
r 11.26948 2 0 ack 40 ------- 0 3.0 0.0 1 154 37521 0x18 40 0
+ 11.2702 2 0 ack 40 ------- 0 3.0 0.0 1 155 37521 0x18 40 0
- 11.2702 2 0 ack 40 ------- 0 3.0 0.0 1 155 37521 0x18 40 0
+ 11.275056 2 3 tcp 576 ------- 0 0.0 3.0 37521 157 1 0x10 40 0
- 11.275056 2 3 tcp 576 ------- 0 0.0 3.0 37521 157 1 0x10 40 0
r 11.27524 2 0 ack 40 ------- 0 3.0 0.0 1 155 37521 0x18 40 0
+ 11.27596 2 0 ack 40 ------- 0 3.0 0.0 1 156 37521 0x18 40 0
- 11.27596 2 0 ack 40 ------- 0 3.0 0.0 1 156 37521 0x18 40 0
+ 11.280816 2 3 tcp 576 ---A--- 0 0.0 3.0 40737 158 1 0x90 40 0
- 11.280816 2 3 tcp 576 ---A--- 0 0.0 3.0 40737 158 1 0x90 40 0
r 11.281 2 0 ack 40 ------- 0 3.0 0.0 1 156 37521 0x18 40 0
+ 11.286576 2 3 tcp 576 ------- 0 0.0 3.0 41273 159 1 0x10 40 0
- 11.286576 2 3 tcp 576 ------- 0 0.0 3.0 41273 159 1 0x10 40 0
r 11.380816 2 3 tcp 576 ------- 0 0.0 3.0 37521 157 1 0x10 40 0
r 11.386576 2 3 tcp 576 ---A--- 0 0.0 3.0 40737 158 1 0x90 40 0
r 11.392336 2 3 tcp 576 ------- 0 0.0 3.0 41273 159 1 0x10 40 0
+ 11.481216 2 0 ack 40 ------- 0 3.0 0.0 1 160 40737 0x18 40 0
- 11.481216 2 0 ack 40 ------- 0 3.0 0.0 1 160 40737 0x18 40 0
r 11.486256 2 0 ack 40 ------- 0 3.0 0.0 1 160 40737 0x18 40 0
+ 11.486976 2 0 ack 40 ------- 0 3.0 0.0 1 161 41273 0x18 40 0
- 11.486976 2 0 ack 40 ------- 0 3.0 0.0 1 161 41273 0x18 40 0
+ 11.491832 2 3 tcp 576 ------- 0 0.0 3.0 41809 163 1 0x10 40 0
- 11.491832 2 3 tcp 576 ------- 0 0.0 3.0 41809 163 1 0x10 40 0
r 11.492016 2 0 ack 40 ------- 0 3.0 0.0 1 161 41273 0x18 40 0
+ 11.492736 2 0 ack 40 ------- 0 3.0 0.0 1 162 41809 0x18 40 0
- 11.492736 2 0 ack 40 ------- 0 3.0 0.0 1 162 41809 0x18 40 0