v testName droppedfirstseg
+ 0.70504 2 3 tcp 40 ------- 0 0.0 3.0 0 0 -1 0xa 40 0
- 0.70504 2 3 tcp 40 ------- 0 0.0 3.0 0 0 -1 0xa 40 0
r 0.80544 2 3 tcp 40 ------- 0 0.0 3.0 0 0 -1 0xa 40 0
+ 0.90584 2 0 ack 40 ------- 0 3.0 0.0 0 1 1 0x1a 40 0
- 0.90584 2 0 ack 40 ------- 0 3.0 0.0 0 1 1 0x1a 40 0
r 0.91088 2 0 ack 40 ------- 0 3.0 0.0 0 1 1 0x1a 40 0
+ 0.91592 2 3 tcp 40 ------- 0 0.0 3.0 1 2 1 0x10 40 0
- 0.91592 2 3 tcp 40 ------- 0 0.0 3.0 1 2 1 0x10 40 0
+ 0.916496 2 3 tcp 576 ------- 0 0.0 3.0 1 3 1 0x10 40 0
d 0.916496 2 3 tcp 576 ------- 0 0.0 3.0 1 3 1 0x10 40 0
r 1.01632 2 3 tcp 40 ------- 0 0.0 3.0 1 2 1 0x10 40 0
+ 1.546456 2 3 tcp 576 ------- 0 0.0 3.0 1 4 1 0x10 40 0
- 1.546456 2 3 tcp 576 ------- 0 0.0 3.0 1 4 1 0x10 40 0
r 1.652216 2 3 tcp 576 ------- 0 0.0 3.0 1 4 1 0x10 40 0
+ 1.752616 2 0 ack 40 ------- 0 3.0 0.0 1 5 537 0x18 40 0
- 1.752616 2 0 ack 40 ------- 0 3.0 0.0 1 5 537 0x18 40 0
r 1.757656 2 0 ack 40 ------- 0 3.0 0.0 1 5 537 0x18 40 0
+ 1.763232 2 3 tcp 576 ---A--- 0 0.0 3.0 537 6 1 0x90 40 0
- 1.763232 2 3 tcp 576 ---A--- 0 0.0 3.0 537 6 1 0x90 40 0
+ 1.763808 2 3 tcp 576 ------- 0 0.0 3.0 1073 7 1 0x10 40 0
- 1.768992 2 3 tcp 576 ------- 0 0.0 3.0 1073 7 1 0x10 40 0
r 1.868992 2 3 tcp 576 ---A--- 0 0.0 3.0 537 6 1 0x90 40 0
r 1.874752 2 3 tcp 576 ------- 0 0.0 3.0 1073 7 1 0x10 40 0
+ 1.969392 2 0 ack 40 ------- 0 3.0 0.0 1 8 1073 0x18 40 0
- 1.969392 2 0 ack 40 ------- 0 3.0 0.0 1 8 1073 0x18 40 0
r 1.974432 2 0 ack 40 ------- 0 3.0 0.0 1 8 1073 0x18 40 0
+ 1.975152 2 0 ack 40 ------- 0 3.0 0.0 1 9 1609 0x18 40 0
- 1.975152 2 0 ack 40 ------- 0 3.0 0.0 1 9 1609 0x18 40 0
+ 1.980008 2 3 tcp 576 ------- 0 0.0 3.0 1609 10 1 0x10 40 0
- 1.980008 2 3 tcp 576 ------- 0 0.0 3.0 1609 10 1 0x10 40 0
r 1.980192 2 0 ack 40 ------- 0 3.0 0.0 1 9 1609 0x18 40 0
+ 1.985768 2 3 tcp 576 ------- 0 0.0 3.0 2145 11 1 0x10 40 0
- 1.985768 2 3 tcp 576 ------- 0 0.0 3.0 2145 11 1 0x10 40 0
r 2.085768 2 3 tcp 576 ------- 0 0.0 3.0 1609 10 1 0x10 40 0
r 2.091528 2 3 tcp 576 ------- 0 0.0 3.0 2145 11 1 0x10 40 0
+ 2.186168 2 0 ack 40 ------- 0 3.0 0.0 1 12 2145 0x18 40 0
- 2.186168 2 0 ack 40 ------- 0 3.0 0.0 1 12 2145 0x18 40 0
r 2.191208 2 0 ack 40 ------- 0 3.0 0.0 1 12 2145 0x18 40 0
+ 2.191928 2 0 ack 40 ------- 0 3.0 0.0 1 13 2681 0x18 40 0
- 2.191928 2 0 ack 40 ------- 0 3.0 0.0 1 13 2681 0x18 40 0
+ 2.196784 2 3 tcp 576 ------- 0 0.0 3.0 2681 14 1 0x10 40 0
- 2.196784 2 3 tcp 576 ------- 0 0.0 3.0 2681 14 1 0x10 40 0
r 2.196968 2 0 ack 40 ------- 0 3.0 0.0 1 13 2681 0x18 40 0
+ 2.19736 2 3 tcp 576 ------- 0 0.0 3.0 3217 15 1 0x10 40 0
- 2.202544 2 3 tcp 576 ------- 0 0.0 3.0 3217 15 1 0x10 40 0
+ 2.202544 2 3 tcp 576 ------- 0 0.0 3.0 3753 16 1 0x10 40 0
- 2.208304 2 3 tcp 576 ------- 0 0.0 3.0 3753 16 1 0x10 40 0
r 2.302544 2 3 tcp 576 ------- 0 0.0 3.0 2681 14 1 0x10 40 0
r 2.308304 2 3 tcp 576 ------- 0 0.0 3.0 3217 15 1 0x10 40 0
r 2.314064 2 3 tcp 576 ------- 0 0.0 3.0 3753 16 1 0x10 40 0
+ 2.402944 2 0 ack 40 ------- 0 3.0 0.0 1 17 3217 0x18 40 0
- 2.402944 2 0 ack 40 ------- 0 3.0 0.0 1 17 3217 0x18 40 0
r 2.407984 2 0 ack 40 ------- 0 3.0 0.0 1 17 3217 0x18 40 0
+ 2.408704 2 0 ack 40 ------- 0 3.0 0.0 1 18 3753 0x18 40 0
- 2.408704 2 0 ack 40 ------- 0 3.0 0.0 1 18 3753 0x18 40 0
+ 2.41356 2 3 tcp 576 ------- 0 0.0 3.0 4289 20 1 0x10 40 0
- 2.41356 2 3 tcp 576 ------- 0 0.0 3.0 4289 20 1 0x10 40 0
r 2.413744 2 0 ack 40 ------- 0 3.0 0.0 1 18 3753 0x18 40 0
+ 2.414464 2 0 ack 40 ------- 0 3.0 0.0 1 19 4289 0x18 40 0
- 2.414464 2 0 ack 40 ------- 0 3.0 0.0 1 19 4289 0x18 40 0
+ 2.41932 2 3 tcp 576 ------- 0 0.0 3.0 4825 21 1 0x10 40 0
- 2.41932 2 3 tcp 576 ------- 0 0.0 3.0 4825 21 1 0x10 40 0
r 2.419504 2 0 ack 40 ------- 0 3.0 0.0 1 19 4289 0x18 40 0
+ 2.419896 2 3 tcp 576 ------- 0 0.0 3.0 5361 22 1 0x10 40 0
- 2.42508 2 3 tcp 576 ------- 0 0.0 3.0 5361 22 1 0x10 40 0
+ 2.42508 2 3 tcp 576 ------- 0 0.0 3.0 5897 23 1 0x10 40 0
- 2.43084 2 3 tcp 576 ------- 0 0.0 3.0 5897 23 1 0x10 40 0
r 2.51932 2 3 tcp 576 ------- 0 0.0 3.0 4289 20 1 0x10 40 0
r 2.52508 2 3 tcp 576 ------- 0 0.0 3.0 4825 21 1 0x10 40 0
r 2.53084 2 3 tcp 576 ------- 0 0.0 3.0 5361 22 1 0x10 40 0
r 2.5366 2 3 tcp 576 ------- 0 0.0 3.0 5897 23 1 0x10 40 0
+ 2.61972 2 0 ack 40 ------- 0 3.0 0.0 1 24 4825 0x18 40 0
- 2.61972 2 0 ack 40 ------- 0 3.0 0.0 1 24 4825 0x18 40 0
r 2.62476 2 0 ack 40 ------- 0 3.0 0.0 1 24 4825 0x18 40 0
+ 2.62548 2 0 ack 40 ------- 0 3.0 0.0 1 25 5361 0x18 40 0
- 2.62548 2 0 ack 40 ------- 0 3.0 0.0 1 25 5361 0x18 40 0
+ 2.630336 2 3 tcp 576 ------- 0 0.0 3.0 6433 28 1 0x10 40 0
- 2.630336 2 3 tcp 576 ------- 0 0.0 3.0 6433 28 1 0x10 40 0
r 2.63052 2 0 ack 40 ------- 0 3.0 0.0 1 25 5361 0x18 40 0
+ 2.63124 2 0 ack 40 ------- 0 3.0 0.0 1 26 5897 0x18 40 0
- 2.63124 2 0 ack 40 ------- 0 3.0 0.0 1 26 5897 0x18 40 0
+ 2.636096 2 3 tcp 576 ------- 0 0.0 3.0 6969 29 1 0x10 40 0
- 2.636096 2 3 tcp 576 ------- 0 0.0 3.0 6969 29 1 0x10 40 0
r 2.63628 2 0 ack 40 ------- 0 3.0 0.0 1 26 5897 0x18 40 0
+ 2.637 2 0 ack 40 ------- 0 3.0 0.0 1 27 6433 0x18 40 0
- 2.637 2 0 ack 40 ------- 0 3.0 0.0 1 27 6433 0x18 40 0
+ 2.641856 2 3 tcp 576 ------- 0 0.0 3.0 7505 30 1 0x10 40 0
- 2.641856 2 3 tcp 576 ------- 0 0.0 3.0 7505 30 1 0x10 40 0
r 2.64204 2 0 ack 40 ------- 0 3.0 0.0 1 27 6433 0x18 40 0
+ 2.647616 2 3 tcp 576 ------- 0 0.0 3.0 8041 31 1 0x10 40 0
- 2.647616 2 3 tcp 576 ------- 0 0.0 3.0 8041 31 1 0x10 40 0
+ 2.648192 2 3 tcp 576 ------- 0 0.0 3.0 8577 32 1 0x10 40 0
- 2.653376 2 3 tcp 576 ------- 0 0.0 3.0 8577 32 1 0x10 40 0
r 2.736096 2 3 tcp 576 ------- 0 0.0 3.0 6433 28 1 0x10 40 0
r 2.741856 2 3 tcp 576 ------- 0 0.0 3.0 6969 29 1 0x10 40 0
r 2.747616 2 3 tcp 576 ------- 0 0.0 3.0 7505 30 1 0x10 40 0
r 2.753376 2 3 tcp 576 ------- 0 0.0 3.0 8041 31 1 0x10 40 0
r 2.759136 2 3 tcp 576 ------- 0 0.0 3.0 8577 32 1 0x10 40 0
+ 2.836496 2 0 ack 40 ------- 0 3.0 0.0 1 33 6969 0x18 40 0
- 2.836496 2 0 ack 40 ------- 0 3.0 0.0 1 33 6969 0x18 40 0
r 2.841536 2 0 ack 40 ------- 0 3.0 0.0 1 33 6969 0x18 40 0
+ 2.842256 2 0 ack 40 ------- 0 3.0 0.0 1 34 7505 0x18 40 0
- 2.842256 2 0 ack 40 ------- 0 3.0 0.0 1 34 7505 0x18 40 0
+ 2.847112 2 3 tcp 576 ------- 0 0.0 3.0 9113 38 1 0x10 40 0
- 2.847112 2 3 tcp 576 ------- 0 0.0 3.0 9113 38 1 0x10 40 0
r 2.847296 2 0 ack 40 ------- 0 3.0 0.0 1 34 7505 0x18 40 0
+ 2.848016 2 0 ack 40 ------- 0 3.0 0.0 1 35 8041 0x18 40 0
- 2.848016 2 0 ack 40 ------- 0 3.0 0.0 1 35 8041 0x18 40 0
+ 2.852872 2 3 tcp 576 ------- 0 0.0 3.0 9649 39 1 0x10 40 0
- 2.852872 2 3 tcp 576 ------- 0 0.0 3.0 9649 39 1 0x10 40 0
r 2.853056 2 0 ack 40 ------- 0 3.0 0.0 1 35 8041 0x18 40 0
+ 2.853776 2 0 ack 40 ------- 0 3.0 0.0 1 36 8577 0x18 40 0
- 2.853776 2 0 ack 40 ------- 0 3.0 0.0 1 36 8577 0x18 40 0
+ 2.858632 2 3 tcp 576 ------- 0 0.0 3.0 10185 40 1 0x10 40 0
- 2.858632 2 3 tcp 576 ------- 0 0.0 3.0 10185 40 1 0x10 40 0
r 2.858816 2 0 ack 40 ------- 0 3.0 0.0 1 36 8577 0x18 40 0
+ 2.859536 2 0 ack 40 ------- 0 3.0 0.0 1 37 9113 0x18 40 0
- 2.859536 2 0 ack 40 ------- 0 3.0 0.0 1 37 9113 0x18 40 0
+ 2.864392 2 3 tcp 576 ------- 0 0.0 3.0 10721 41 1 0x10 40 0
- 2.864392 2 3 tcp 576 ------- 0 0.0 3.0 10721 41 1 0x10 40 0
r 2.864576 2 0 ack 40 ------- 0 3.0 0.0 1 37 9113 0x18 40 0
+ 2.870152 2 3 tcp 576 ------- 0 0.0 3.0 11257 42 1 0x10 40 0
- 2.870152 2 3 tcp 576 ------- 0 0.0 3.0 11257 42 1 0x10 40 0
+ 2.870728 2 3 tcp 576 ------- 0 0.0 3.0 11793 43 1 0x10 40 0
- 2.875912 2 3 tcp 576 ------- 0 0.0 3.0 11793 43 1 0x10 40 0
r 2.952872 2 3 tcp 576 ------- 0 0.0 3.0 9113 38 1 0x10 40 0
r 2.958632 2 3 tcp 576 ------- 0 0.0 3.0 9649 39 1 0x10 40 0
r 2.964392 2 3 tcp 576 ------- 0 0.0 3.0 10185 40 1 0x10 40 0
r 2.970152 2 3 tcp 576 ------- 0 0.0 3.0 10721 41 1 0x10 40 0
r 2.975912 2 3 tcp 576 ------- 0 0.0 3.0 11257 42 1 0x10 40 0
r 2.981672 2 3 tcp 576 ------- 0 0.0 3.0 11793 43 1 0x10 40 0
+ 3.053272 2 0 ack 40 ------- 0 3.0 0.0 1 44 9649 0x18 40 0
- 3.053272 2 0 ack 40 ------- 0 3.0 0.0 1 44 9649 0x18 40 0
r 3.058312 2 0 ack 40 ------- 0 3.0 0.0 1 44 9649 0x18 40 0
+ 3.059032 2 0 ack 40 ------- 0 3.0 0.0 1 45 10185 0x18 40 0
- 3.059032 2 0 ack 40 ------- 0 3.0 0.0 1 45 10185 0x18 40 0
+ 3.063888 2 3 tcp 576 ------- 0 0.0 3.0 12329 50 1 0x10 40 0
- 3.063888 2 3 tcp 576 ------- 0 0.0 3.0 12329 50 1 0x10 40 0
r 3.064072 2 0 ack 40 ------- 0 3.0 0.0 1 45 10185 0x18 40 0
+ 3.064792 2 0 ack 40 ------- 0 3.0 0.0 1 46 10721 0x18 40 0
- 3.064792 2 0 ack 40 ------- 0 3.0 0.0 1 46 10721 0x18 40 0
+ 3.069648 2 3 tcp 576 ------- 0 0.0 3.0 12865 51 1 0x10 40 0
d 3.069648 2 3 tcp 576 ------- 0 0.0 3.0 12865 51 1 0x10 40 0
r 3.069832 2 0 ack 40 ------- 0 3.0 0.0 1 46 10721 0x18 40 0
+ 3.070552 2 0 ack 40 ------- 0 3.0 0.0 1 47 11257 0x18 40 0
- 3.070552 2 0 ack 40 ------- 0 3.0 0.0 1 47 11257 0x18 40 0
+ 3.075408 2 3 tcp 576 ------- 0 0.0 3.0 13401 52 1 0x10 40 0
- 3.075408 2 3 tcp 576 ------- 0 0.0 3.0 13401 52 1 0x10 40 0
r 3.075592 2 0 ack 40 ------- 0 3.0 0.0 1 47 11257 0x18 40 0
+ 3.076312 2 0 ack 40 ------- 0 3.0 0.0 1 48 11793 0x18 40 0
- 3.076312 2 0 ack 40 ------- 0 3.0 0.0 1 48 11793 0x18 40 0
+ 3.081168 2 3 tcp 576 ------- 0 0.0 3.0 13937 53 1 0x10 40 0
- 3.081168 2 3 tcp 576 ------- 0 0.0 3.0 13937 53 1 0x10 40 0
r 3.081352 2 0 ack 40 ------- 0 3.0 0.0 1 48 11793 0x18 40 0
+ 3.082072 2 0 ack 40 ------- 0 3.0 0.0 1 49 12329 0x18 40 0
- 3.082072 2 0 ack 40 ------- 0 3.0 0.0 1 49 12329 0x18 40 0
+ 3.086928 2 3 tcp 576 ------- 0 0.0 3.0 14473 54 1 0x10 40 0
- 3.086928 2 3 tcp 576 ------- 0 0.0 3.0 14473 54 1 0x10 40 0
r 3.087112 2 0 ack 40 ------- 0 3.0 0.0 1 49 12329 0x18 40 0
+ 3.092688 2 3 tcp 576 ------- 0 0.0 3.0 15009 55 1 0x10 40 0
- 3.092688 2 3 tcp 576 ------- 0 0.0 3.0 15009 55 1 0x10 40 0
+ 3.093264 2 3 tcp 576 ------- 0 0.0 3.0 15545 56 1 0x10 40 0
- 3.098448 2 3 tcp 576 ------- 0 0.0 3.0 15545 56 1 0x10 40 0
r 3.169648 2 3 tcp 576 ------- 0 0.0 3.0 12329 50 1 0x10 40 0
r 3.181168 2 3 tcp 576 ------- 0 0.0 3.0 13401 52 1 0x10 40 0
r 3.186928 2 3 tcp 576 ------- 0 0.0 3.0 13937 53 1 0x10 40 0
r 3.192688 2 3 tcp 576 ------- 0 0.0 3.0 14473 54 1 0x10 40 0
r 3.198448 2 3 tcp 576 ------- 0 0.0 3.0 15009 55 1 0x10 40 0
r 3.204208 2 3 tcp 576 ------- 0 0.0 3.0 15545 56 1 0x10 40 0
+ 3.270048 2 0 ack 40 ------- 0 3.0 0.0 1 57 12865 0x18 40 0
- 3.270048 2 0 ack 40 ------- 0 3.0 0.0 1 57 12865 0x18 40 0
r 3.275088 2 0 ack 40 ------- 0 3.0 0.0 1 57 12865 0x18 40 0
+ 3.280664 2 3 tcp 576 ------- 0 0.0 3.0 16081 63 1 0x10 40 0
- 3.280664 2 3 tcp 576 ------- 0 0.0 3.0 16081 63 1 0x10 40 0
+ 3.281568 2 0 ack 40 ------- 0 3.0 0.0 1 58 12865 0x18 40 0
- 3.281568 2 0 ack 40 ------- 0 3.0 0.0 1 58 12865 0x18 40 0
r 3.286608 2 0 ack 40 ------- 0 3.0 0.0 1 58 12865 0x18 40 0
+ 3.287328 2 0 ack 40 ------- 0 3.0 0.0 1 59 12865 0x18 40 0
- 3.287328 2 0 ack 40 ------- 0 3.0 0.0 1 59 12865 0x18 40 0
r 3.292368 2 0 ack 40 ------- 0 3.0 0.0 1 59 12865 0x18 40 0
+ 3.293088 2 0 ack 40 ------- 0 3.0 0.0 1 60 12865 0x18 40 0
- 3.293088 2 0 ack 40 ------- 0 3.0 0.0 1 60 12865 0x18 40 0
r 3.298128 2 0 ack 40 ------- 0 3.0 0.0 1 60 12865 0x18 40 0
+ 3.298848 2 0 ack 40 ------- 0 3.0 0.0 1 61 12865 0x18 40 0
- 3.298848 2 0 ack 40 ------- 0 3.0 0.0 1 61 12865 0x18 40 0
+ 3.303704 2 3 tcp 576 ------- 0 0.0 3.0 12865 64 1 0x10 40 0
- 3.303704 2 3 tcp 576 ------- 0 0.0 3.0 12865 64 1 0x10 40 0
r 3.303888 2 0 ack 40 ------- 0 3.0 0.0 1 61 12865 0x18 40 0
+ 3.304608 2 0 ack 40 ------- 0 3.0 0.0 1 62 12865 0x18 40 0
- 3.304608 2 0 ack 40 ------- 0 3.0 0.0 1 62 12865 0x18 40 0
r 3.309648 2 0 ack 40 ------- 0 3.0 0.0 1 62 12865 0x18 40 0
+ 3.315224 2 3 tcp 576 ---A--- 0 0.0 3.0 16617 65 1 0x90 40 0
- 3.315224 2 3 tcp 576 ---A--- 0 0.0 3.0 16617 65 1 0x90 40 0
r 3.386424 2 3 tcp 576 ------- 0 0.0 3.0 16081 63 1 0x10 40 0
r 3.409464 2 3 tcp 576 ------- 0 0.0 3.0 12865 64 1 0x10 40 0
r 3.420984 2 3 tcp 576 ---A--- 0 0.0 3.0 16617 65 1 0x90 40 0
+ 3.486824 2 0 ack 40 ------- 0 3.0 0.0 1 66 12865 0x18 40 0
- 3.486824 2 0 ack 40 ------- 0 3.0 0.0 1 66 12865 0x18 40 0
r 3.491864 2 0 ack 40 ------- 0 3.0 0.0 1 66 12865 0x18 40 0
+ 3.49744 2 3 tcp 576 ------- 0 0.0 3.0 17153 69 1 0x10 40 0
- 3.49744 2 3 tcp 576 ------- 0 0.0 3.0 17153 69 1 0x10 40 0
+ 3.509864 2 0 ack 40 ------- 0 3.0 0.0 1 67 16617 0x18 40 0
- 3.509864 2 0 ack 40 ------- 0 3.0 0.0 1 67 16617 0x18 40 0
r 3.514904 2 0 ack 40 ------- 0 3.0 0.0 1 67 16617 0x18 40 0
+ 3.52048 2 3 tcp 576 ------- 0 0.0 3.0 17689 70 1 0x10 40 0
- 3.52048 2 3 tcp 576 ------- 0 0.0 3.0 17689 70 1 0x10 40 0
+ 3.521384 2 0 ack 40 ------- 0 3.0 0.0 1 68 17153 0x18 40 0
- 3.521384 2 0 ack 40 ------- 0 3.0 0.0 1 68 17153 0x18 40 0
r 3.526424 2 0 ack 40 ------- 0 3.0 0.0 1 68 17153 0x18 40 0
+ 3.532 2 3 tcp 576 ------- 0 0.0 3.0 18225 71 1 0x10 40 0
- 3.532 2 3 tcp 576 ------- 0 0.0 3.0 18225 71 1 0x10 40 0
r 3.6032 2 3 tcp 576 ------- 0 0.0 3.0 17153 69 1 0x10 40 0
r 3.62624 2 3 tcp 576 ------- 0 0.0 3.0 17689 70 1 0x10 40 0
r 3.63776 2 3 tcp 576 ------- 0 0.0 3.0 18225 71 1 0x10 40 0
+ 3.7036 2 0 ack 40 ------- 0 3.0 0.0 1 72 17689 0x18 40 0
- 3.7036 2 0 ack 40 ------- 0 3.0 0.0 1 72 17689 0x18 40 0
r 3.70864 2 0 ack 40 ------- 0 3.0 0.0 1 72 17689 0x18 40 0
+ 3.714216 2 3 tcp 576 ------- 0 0.0 3.0 18761 75 1 0x10 40 0
- 3.714216 2 3 tcp 576 ------- 0 0.0 3.0 18761 75 1 0x10 40 0
+ 3.72664 2 0 ack 40 ------- 0 3.0 0.0 1 73 18225 0x18 40 0
- 3.72664 2 0 ack 40 ------- 0 3.0 0.0 1 73 18225 0x18 40 0
r 3.73168 2 0 ack 40 ------- 0 3.0 0.0 1 73 18225 0x18 40 0
+ 3.737256 2 3 tcp 576 ------- 0 0.0 3.0 19297 76 1 0x10 40 0
- 3.737256 2 3 tcp 576 ------- 0 0.0 3.0 19297 76 1 0x10 40 0
+ 3.737832 2 3 tcp 576 ------- 0 0.0 3.0 19833 77 1 0x10 40 0
+ 3.73816 2 0 ack 40 ------- 0 3.0 0.0 1 74 18761 0x18 40 0
- 3.73816 2 0 ack 40 ------- 0 3.0 0.0 1 74 18761 0x18 40 0
- 3.743016 2 3 tcp 576 ------- 0 0.0 3.0 19833 77 1 0x10 40 0
r 3.7432 2 0 ack 40 ------- 0 3.0 0.0 1 74 18761 0x18 40 0
+ 3.748776 2 3 tcp 576 ------- 0 0.0 3.0 20369 78 1 0x10 40 0
- 3.748776 2 3 tcp 576 ------- 0 0.0 3.0 20369 78 1 0x10 40 0
r 3.819976 2 3 tcp 576 ------- 0 0.0 3.0 18761 75 1 0x10 40 0
r 3.843016 2 3 tcp 576 ------- 0 0.0 3.0 19297 76 1 0x10 40 0
r 3.848776 2 3 tcp 576 ------- 0 0.0 3.0 19833 77 1 0x10 40 0
r 3.854536 2 3 tcp 576 ------- 0 0.0 3.0 20369 78 1 0x10 40 0
+ 3.920376 2 0 ack 40 ------- 0 3.0 0.0 1 79 19297 0x18 40 0
- 3.920376 2 0 ack 40 ------- 0 3.0 0.0 1 79 19297 0x18 40 0
r 3.925416 2 0 ack 40 ------- 0 3.0 0.0 1 79 19297 0x18 40 0
+ 3.930992 2 3 tcp 576 ------- 0 0.0 3.0 20905 83 1 0x10 40 0
- 3.930992 2 3 tcp 576 ------- 0 0.0 3.0 20905 83 1 0x10 40 0
+ 3.943416 2 0 ack 40 ------- 0 3.0 0.0 1 80 19833 0x18 40 0
- 3.943416 2 0 ack 40 ------- 0 3.0 0.0 1 80 19833 0x18 40 0
r 3.948456 2 0 ack 40 ------- 0 3.0 0.0 1 80 19833 0x18 40 0
+ 3.949176 2 0 ack 40 ------- 0 3.0 0.0 1 81 20369 0x18 40 0
- 3.949176 2 0 ack 40 ------- 0 3.0 0.0 1 81 20369 0x18 40 0
+ 3.954032 2 3 tcp 576 ------- 0 0.0 3.0 21441 84 1 0x10 40 0
- 3.954032 2 3 tcp 576 ------- 0 0.0 3.0 21441 84 1 0x10 40 0
r 3.954216 2 0 ack 40 ------- 0 3.0 0.0 1 81 20369 0x18 40 0
+ 3.954936 2 0 ack 40 ------- 0 3.0 0.0 1 82 20905 0x18 40 0
- 3.954936 2 0 ack 40 ------- 0 3.0 0.0 1 82 20905 0x18 40 0
+ 3.959792 2 3 tcp 576 ------- 0 0.0 3.0 21977 85 1 0x10 40 0
- 3.959792 2 3 tcp 576 ------- 0 0.0 3.0 21977 85 1 0x10 40 0
r 3.959976 2 0 ack 40 ------- 0 3.0 0.0 1 82 20905 0x18 40 0
+ 3.960368 2 3 tcp 576 ------- 0 0.0 3.0 22513 86 1 0x10 40 0
- 3.965552 2 3 tcp 576 ------- 0 0.0 3.0 22513 86 1 0x10 40 0
+ 3.965552 2 3 tcp 576 ------- 0 0.0 3.0 23049 87 1 0x10 40 0
- 3.971312 2 3 tcp 576 ------- 0 0.0 3.0 23049 87 1 0x10 40 0
r 4.036752 2 3 tcp 576 ------- 0 0.0 3.0 20905 83 1 0x10 40 0
r 4.059792 2 3 tcp 576 ------- 0 0.0 3.0 21441 84 1 0x10 40 0
r 4.065552 2 3 tcp 576 ------- 0 0.0 3.0 21977 85 1 0x10 40 0
r 4.071312 2 3 tcp 576 ------- 0 0.0 3.0 22513 86 1 0x10 40 0
r 4.077072 2 3 tcp 576 ------- 0 0.0 3.0 23049 87 1 0x10 40 0
+ 4.137152 2 0 ack 40 ------- 0 3.0 0.0 1 88 21441 0x18 40 0
- 4.137152 2 0 ack 40 ------- 0 3.0 0.0 1 88 21441 0x18 40 0
r 4.142192 2 0 ack 40 ------- 0 3.0 0.0 1 88 21441 0x18 40 0
+ 4.147768 2 3 tcp 576 ------- 0 0.0 3.0 23585 93 1 0x10 40 0
- 4.147768 2 3 tcp 576 ------- 0 0.0 3.0 23585 93 1 0x10 40 0
+ 4.160192 2 0 ack 40 ------- 0 3.0 0.0 1 89 21977 0x18 40 0
- 4.160192 2 0 ack 40 ------- 0 3.0 0.0 1 89 21977 0x18 40 0
r 4.165232 2 0 ack 40 ------- 0 3.0 0.0 1 89 21977 0x18 40 0
+ 4.165952 2 0 ack 40 ------- 0 3.0 0.0 1 90 22513 0x18 40 0
- 4.165952 2 0 ack 40 ------- 0 3.0 0.0 1 90 22513 0x18 40 0
+ 4.170808 2 3 tcp 576 ------- 0 0.0 3.0 24121 94 1 0x10 40 0
- 4.170808 2 3 tcp 576 ------- 0 0.0 3.0 24121 94 1 0x10 40 0
r 4.170992 2 0 ack 40 ------- 0 3.0 0.0 1 90 22513 0x18 40 0
+ 4.171712 2 0 ack 40 ------- 0 3.0 0.0 1 91 23049 0x18 40 0
- 4.171712 2 0 ack 40 ------- 0 3.0 0.0 1 91 23049 0x18 40 0
+ 4.176568 2 3 tcp 576 ------- 0 0.0 3.0 24657 95 1 0x10 40 0
- 4.176568 2 3 tcp 576 ------- 0 0.0 3.0 24657 95 1 0x10 40 0
r 4.176752 2 0 ack 40 ------- 0 3.0 0.0 1 91 23049 0x18 40 0
+ 4.177472 2 0 ack 40 ------- 0 3.0 0.0 1 92 23585 0x18 40 0
- 4.177472 2 0 ack 40 ------- 0 3.0 0.0 1 92 23585 0x18 40 0
+ 4.182328 2 3 tcp 576 ------- 0 0.0 3.0 25193 96 1 0x10 40 0
- 4.182328 2 3 tcp 576 ------- 0 0.0 3.0 25193 96 1 0x10 40 0
r 4.182512 2 0 ack 40 ------- 0 3.0 0.0 1 92 23585 0x18 40 0
+ 4.188088 2 3 tcp 576 ------- 0 0.0 3.0 25729 97 1 0x10 40 0
d 4.188088 2 3 tcp 576 ------- 0 0.0 3.0 25729 97 1 0x10 40 0
+ 4.188664 2 3 tcp 576 ------- 0 0.0 3.0 26265 98 1 0x10 40 0
- 4.188664 2 3 tcp 576 ------- 0 0.0 3.0 26265 98 1 0x10 40 0
r 4.253528 2 3 tcp 576 ------- 0 0.0 3.0 23585 93 1 0x10 40 0
r 4.276568 2 3 tcp 576 ------- 0 0.0 3.0 24121 94 1 0x10 40 0
r 4.282328 2 3 tcp 576 ------- 0 0.0 3.0 24657 95 1 0x10 40 0
r 4.288088 2 3 tcp 576 ------- 0 0.0 3.0 25193 96 1 0x10 40 0
r 4.294424 2 3 tcp 576 ------- 0 0.0 3.0 26265 98 1 0x10 40 0
+ 4.353928 2 0 ack 40 ------- 0 3.0 0.0 1 99 24121 0x18 40 0
- 4.353928 2 0 ack 40 ------- 0 3.0 0.0 1 99 24121 0x18 40 0
r 4.358968 2 0 ack 40 ------- 0 3.0 0.0 1 99 24121 0x18 40 0
+ 4.364544 2 3 tcp 576 ------- 0 0.0 3.0 26801 104 1 0x10 40 0
- 4.364544 2 3 tcp 576 ------- 0 0.0 3.0 26801 104 1 0x10 40 0
+ 4.376968 2 0 ack 40 ------- 0 3.0 0.0 1 100 24657 0x18 40 0
- 4.376968 2 0 ack 40 ------- 0 3.0 0.0 1 100 24657 0x18 40 0
r 4.382008 2 0 ack 40 ------- 0 3.0 0.0 1 100 24657 0x18 40 0
+ 4.382728 2 0 ack 40 ------- 0 3.0 0.0 1 101 25193 0x18 40 0
- 4.382728 2 0 ack 40 ------- 0 3.0 0.0 1 101 25193 0x18 40 0
+ 4.387584 2 3 tcp 576 ------- 0 0.0 3.0 27337 105 1 0x10 40 0
- 4.387584 2 3 tcp 576 ------- 0 0.0 3.0 27337 105 1 0x10 40 0
r 4.387768 2 0 ack 40 ------- 0 3.0 0.0 1 101 25193 0x18 40 0
+ 4.388488 2 0 ack 40 ------- 0 3.0 0.0 1 102 25729 0x18 40 0
- 4.388488 2 0 ack 40 ------- 0 3.0 0.0 1 102 25729 0x18 40 0
+ 4.393344 2 3 tcp 576 ------- 0 0.0 3.0 27873 106 1 0x10 40 0
- 4.393344 2 3 tcp 576 ------- 0 0.0 3.0 27873 106 1 0x10 40 0
r 4.393528 2 0 ack 40 ------- 0 3.0 0.0 1 102 25729 0x18 40 0
+ 4.394824 2 0 ack 40 ------- 0 3.0 0.0 1 103 25729 0x18 40 0
- 4.394824 2 0 ack 40 ------- 0 3.0 0.0 1 103 25729 0x18 40 0
+ 4.399104 2 3 tcp 576 ------- 0 0.0 3.0 28409 107 1 0x10 40 0
- 4.399104 2 3 tcp 576 ------- 0 0.0 3.0 28409 107 1 0x10 40 0
r 4.399864 2 0 ack 40 ------- 0 3.0 0.0 1 103 25729 0x18 40 0
r 4.470304 2 3 tcp 576 ------- 0 0.0 3.0 26801 104 1 0x10 40 0
r 4.493344 2 3 tcp 576 ------- 0 0.0 3.0 27337 105 1 0x10 40 0
r 4.499104 2 3 tcp 576 ------- 0 0.0 3.0 27873 106 1 0x10 40 0
r 4.504864 2 3 tcp 576 ------- 0 0.0 3.0 28409 107 1 0x10 40 0
+ 4.570704 2 0 ack 40 ------- 0 3.0 0.0 1 108 25729 0x18 40 0
- 4.570704 2 0 ack 40 ------- 0 3.0 0.0 1 108 25729 0x18 40 0
r 4.575744 2 0 ack 40 ------- 0 3.0 0.0 1 108 25729 0x18 40 0
+ 4.593744 2 0 ack 40 ------- 0 3.0 0.0 1 109 25729 0x18 40 0
- 4.593744 2 0 ack 40 ------- 0 3.0 0.0 1 109 25729 0x18 40 0
r 4.598784 2 0 ack 40 ------- 0 3.0 0.0 1 109 25729 0x18 40 0
+ 4.599504 2 0 ack 40 ------- 0 3.0 0.0 1 110 25729 0x18 40 0
- 4.599504 2 0 ack 40 ------- 0 3.0 0.0 1 110 25729 0x18 40 0
+ 4.60436 2 3 tcp 576 ------- 0 0.0 3.0 25729 112 1 0x10 40 0
- 4.60436 2 3 tcp 576 ------- 0 0.0 3.0 25729 112 1 0x10 40 0
r 4.604544 2 0 ack 40 ------- 0 3.0 0.0 1 110 25729 0x18 40 0
+ 4.605264 2 0 ack 40 ------- 0 3.0 0.0 1 111 25729 0x18 40 0
- 4.605264 2 0 ack 40 ------- 0 3.0 0.0 1 111 25729 0x18 40 0
+ 4.61012 2 3 tcp 576 ---A--- 0 0.0 3.0 28945 113 1 0x90 40 0
- 4.61012 2 3 tcp 576 ---A--- 0 0.0 3.0 28945 113 1 0x90 40 0
r 4.610304 2 0 ack 40 ------- 0 3.0 0.0 1 111 25729 0x18 40 0
+ 4.61588 2 3 tcp 576 ------- 0 0.0 3.0 29481 114 1 0x10 40 0
- 4.61588 2 3 tcp 576 ------- 0 0.0 3.0 29481 114 1 0x10 40 0
r 4.71012 2 3 tcp 576 ------- 0 0.0 3.0 25729 112 1 0x10 40 0
r 4.71588 2 3 tcp 576 ---A--- 0 0.0 3.0 28945 113 1 0x90 40 0
r 4.72164 2 3 tcp 576 ------- 0 0.0 3.0 29481 114 1 0x10 40 0
+ 4.81052 2 0 ack 40 ------- 0 3.0 0.0 1 115 28945 0x18 40 0
- 4.81052 2 0 ack 40 ------- 0 3.0 0.0 1 115 28945 0x18 40 0
r 4.81556 2 0 ack 40 ------- 0 3.0 0.0 1 115 28945 0x18 40 0
+ 4.81628 2 0 ack 40 ------- 0 3.0 0.0 1 116 29481 0x18 40 0
- 4.81628 2 0 ack 40 ------- 0 3.0 0.0 1 116 29481 0x18 40 0
+ 4.821136 2 3 tcp 576 ------- 0 0.0 3.0 30017 118 1 0x10 40 0
- 4.821136 2 3 tcp 576 ------- 0 0.0 3.0 30017 118 1 0x10 40 0
r 4.82132 2 0 ack 40 ------- 0 3.0 0.0 1 116 29481 0x18 40 0
+ 4.82204 2 0 ack 40 ------- 0 3.0 0.0 1 117 30017 0x18 40 0
- 4.82204 2 0 ack 40 ------- 0 3.0 0.0 1 117 30017 0x18 40 0
+ 4.826896 2 3 tcp 576 ------- 0 0.0 3.0 30553 119 1 0x10 40 0
- 4.826896 2 3 tcp 576 ------- 0 0.0 3.0 30553 119 1 0x10 40 0
r 4.82708 2 0 ack 40 ------- 0 3.0 0.0 1 117 30017 0x18 40 0
+ 4.832656 2 3 tcp 576 ------- 0 0.0 3.0 31089 120 1 0x10 40 0
- 4.832656 2 3 tcp 576 ------- 0 0.0 3.0 31089 120 1 0x10 40 0
r 4.926896 2 3 tcp 576 ------- 0 0.0 3.0 30017 118 1 0x10 40 0
r 4.932656 2 3 tcp 576 ------- 0 0.0 3.0 30553 119 1 0x10 40 0
r 4.938416 2 3 tcp 576 ------- 0 0.0 3.0 31089 120 1 0x10 40 0
+ 5.027296 2 0 ack 40 ------- 0 3.0 0.0 1 121 30553 0x18 40 0
- 5.027296 2 0 ack 40 ------- 0 3.0 0.0 1 121 30553 0x18 40 0
r 5.032336 2 0 ack 40 ------- 0 3.0 0.0 1 121 30553 0x18 40 0
+ 5.033056 2 0 ack 40 ------- 0 3.0 0.0 1 122 31089 0x18 40 0
- 5.033056 2 0 ack 40 ------- 0 3.0 0.0 1 122 31089 0x18 40 0
+ 5.037912 2 3 tcp 576 ------- 0 0.0 3.0 31625 124 1 0x10 40 0
- 5.037912 2 3 tcp 576 ------- 0 0.0 3.0 31625 124 1 0x10 40 0
r 5.038096 2 0 ack 40 ------- 0 3.0 0.0 1 122 31089 0x18 40 0
+ 5.038488 2 3 tcp 576 ------- 0 0.0 3.0 32161 125 1 0x10 40 0
+ 5.038816 2 0 ack 40 ------- 0 3.0 0.0 1 123 31625 0x18 40 0
- 5.038816 2 0 ack 40 ------- 0 3.0 0.0 1 123 31625 0x18 40 0
- 5.043672 2 3 tcp 576 ------- 0 0.0 3.0 32161 125 1 0x10 40 0
+ 5.043672 2 3 tcp 576 ------- 0 0.0 3.0 32697 126 1 0x10 40 0
r 5.043856 2 0 ack 40 ------- 0 3.0 0.0 1 123 31625 0x18 40 0
- 5.049432 2 3 tcp 576 ------- 0 0.0 3.0 32697 126 1 0x10 40 0
+ 5.049432 2 3 tcp 576 ------- 0 0.0 3.0 33233 127 1 0x10 40 0
- 5.055192 2 3 tcp 576 ------- 0 0.0 3.0 33233 127 1 0x10 40 0
r 5.143672 2 3 tcp 576 ------- 0 0.0 3.0 31625 124 1 0x10 40 0
r 5.149432 2 3 tcp 576 ------- 0 0.0 3.0 32161 125 1 0x10 40 0
r 5.155192 2 3 tcp 576 ------- 0 0.0 3.0 32697 126 1 0x10 40 0
r 5.160952 2 3 tcp 576 ------- 0 0.0 3.0 33233 127 1 0x10 40 0
+ 5.244072 2 0 ack 40 ------- 0 3.0 0.0 1 128 32161 0x18 40 0
- 5.244072 2 0 ack 40 ------- 0 3.0 0.0 1 128 32161 0x18 40 0
r 5.249112 2 0 ack 40 ------- 0 3.0 0.0 1 128 32161 0x18 40 0
+ 5.249832 2 0 ack 40 ------- 0 3.0 0.0 1 129 32697 0x18 40 0
- 5.249832 2 0 ack 40 ------- 0 3.0 0.0 1 129 32697 0x18 40 0
+ 5.254688 2 3 tcp 576 ------- 0 0.0 3.0 33769 132 1 0x10 40 0
- 5.254688 2 3 tcp 576 ------- 0 0.0 3.0 33769 132 1 0x10 40 0
r 5.254872 2 0 ack 40 ------- 0 3.0 0.0 1 129 32697 0x18 40 0
+ 5.255592 2 0 ack 40 ------- 0 3.0 0.0 1 130 33233 0x18 40 0
- 5.255592 2 0 ack 40 ------- 0 3.0 0.0 1 130 33233 0x18 40 0
+ 5.260448 2 3 tcp 576 ------- 0 0.0 3.0 34305 133 1 0x10 40 0
- 5.260448 2 3 tcp 576 ------- 0 0.0 3.0 34305 133 1 0x10 40 0
r 5.260632 2 0 ack 40 ------- 0 3.0 0.0 1 130 33233 0x18 40 0
+ 5.261024 2 3 tcp 576 ------- 0 0.0 3.0 34841 134 1 0x10 40 0
+ 5.261352 2 0 ack 40 ------- 0 3.0 0.0 1 131 33769 0x18 40 0
- 5.261352 2 0 ack 40 ------- 0 3.0 0.0 1 131 33769 0x18 40 0
- 5.266208 2 3 tcp 576 ------- 0 0.0 3.0 34841 134 1 0x10 40 0
+ 5.266208 2 3 tcp 576 ------- 0 0.0 3.0 35377 135 1 0x10 40 0
r 5.266392 2 0 ack 40 ------- 0 3.0 0.0 1 131 33769 0x18 40 0
- 5.271968 2 3 tcp 576 ------- 0 0.0 3.0 35377 135 1 0x10 40 0
+ 5.271968 2 3 tcp 576 ------- 0 0.0 3.0 35913 136 1 0x10 40 0
- 5.277728 2 3 tcp 576 ------- 0 0.0 3.0 35913 136 1 0x10 40 0
r 5.360448 2 3 tcp 576 ------- 0 0.0 3.0 33769 132 1 0x10 40 0
r 5.366208 2 3 tcp 576 ------- 0 0.0 3.0 34305 133 1 0x10 40 0
r 5.371968 2 3 tcp 576 ------- 0 0.0 3.0 34841 134 1 0x10 40 0
r 5.377728 2 3 tcp 576 ------- 0 0.0 3.0 35377 135 1 0x10 40 0
r 5.383488 2 3 tcp 576 ------- 0 0.0 3.0 35913 136 1 0x10 40 0
+ 5.460848 2 0 ack 40 ------- 0 3.0 0.0 1 137 34305 0x18 40 0
- 5.460848 2 0 ack 40 ------- 0 3.0 0.0 1 137 34305 0x18 40 0
r 5.465888 2 0 ack 40 ------- 0 3.0 0.0 1 137 34305 0x18 40 0
+ 5.466608 2 0 ack 40 ------- 0 3.0 0.0 1 138 34841 0x18 40 0
- 5.466608 2 0 ack 40 ------- 0 3.0 0.0 1 138 34841 0x18 40 0
+ 5.471464 2 3 tcp 576 ------- 0 0.0 3.0 36449 142 1 0x10 40 0
- 5.471464 2 3 tcp 576 ------- 0 0.0 3.0 36449 142 1 0x10 40 0
r 5.471648 2 0 ack 40 ------- 0 3.0 0.0 1 138 34841 0x18 40 0
+ 5.472368 2 0 ack 40 ------- 0 3.0 0.0 1 139 35377 0x18 40 0
- 5.472368 2 0 ack 40 ------- 0 3.0 0.0 1 139 35377 0x18 40 0
+ 5.477224 2 3 tcp 576 ------- 0 0.0 3.0 36985 143 1 0x10 40 0
- 5.477224 2 3 tcp 576 ------- 0 0.0 3.0 36985 143 1 0x10 40 0
r 5.477408 2 0 ack 40 ------- 0 3.0 0.0 1 139 35377 0x18 40 0
+ 5.478128 2 0 ack 40 ------- 0 3.0 0.0 1 140 35913 0x18 40 0
- 5.478128 2 0 ack 40 ------- 0 3.0 0.0 1 140 35913 0x18 40 0
+ 5.482984 2 3 tcp 576 ------- 0 0.0 3.0 37521 144 1 0x10 40 0
- 5.482984 2 3 tcp 576 ------- 0 0.0 3.0 37521 144 1 0x10 40 0
r 5.483168 2 0 ack 40 ------- 0 3.0 0.0 1 140 35913 0x18 40 0
+ 5.483888 2 0 ack 40 ------- 0 3.0 0.0 1 141 36449 0x18 40 0
- 5.483888 2 0 ack 40 ------- 0 3.0 0.0 1 141 36449 0x18 40 0
+ 5.488744 2 3 tcp 576 ------- 0 0.0 3.0 38057 145 1 0x10 40 0
- 5.488744 2 3 tcp 576 ------- 0 0.0 3.0 38057 145 1 0x10 40 0
r 5.488928 2 0 ack 40 ------- 0 3.0 0.0 1 141 36449 0x18 40 0
+ 5.48932 2 3 tcp 576 ------- 0 0.0 3.0 38593 146 1 0x10 40 0
d 5.48932 2 3 tcp 576 ------- 0 0.0 3.0 38593 146 1 0x10 40 0
+ 5.494504 2 3 tcp 576 ------- 0 0.0 3.0 39129 147 1 0x10 40 0
- 5.494504 2 3 tcp 576 ------- 0 0.0 3.0 39129 147 1 0x10 40 0
r 5.577224 2 3 tcp 576 ------- 0 0.0 3.0 36449 142 1 0x10 40 0
r 5.582984 2 3 tcp 576 ------- 0 0.0 3.0 36985 143 1 0x10 40 0
r 5.588744 2 3 tcp 576 ------- 0 0.0 3.0 37521 144 1 0x10 40 0
r 5.594504 2 3 tcp 576 ------- 0 0.0 3.0 38057 145 1 0x10 40 0
r 5.600264 2 3 tcp 576 ------- 0 0.0 3.0 39129 147 1 0x10 40 0
+ 5.677624 2 0 ack 40 ------- 0 3.0 0.0 1 148 36985 0x18 40 0
- 5.677624 2 0 ack 40 ------- 0 3.0 0.0 1 148 36985 0x18 40 0
r 5.682664 2 0 ack 40 ------- 0 3.0 0.0 1 148 36985 0x18 40 0
+ 5.683384 2 0 ack 40 ------- 0 3.0 0.0 1 149 37521 0x18 40 0
- 5.683384 2 0 ack 40 ------- 0 3.0 0.0 1 149 37521 0x18 40 0
+ 5.68824 2 3 tcp 576 ------- 0 0.0 3.0 39665 153 1 0x10 40 0
- 5.68824 2 3 tcp 576 ------- 0 0.0 3.0 39665 153 1 0x10 40 0
r 5.688424 2 0 ack 40 ------- 0 3.0 0.0 1 149 37521 0x18 40 0
+ 5.689144 2 0 ack 40 ------- 0 3.0 0.0 1 150 38057 0x18 40 0
- 5.689144 2 0 ack 40 ------- 0 3.0 0.0 1 150 38057 0x18 40 0
+ 5.694 2 3 tcp 576 ------- 0 0.0 3.0 40201 154 1 0x10 40 0
- 5.694 2 3 tcp 576 ------- 0 0.0 3.0 40201 154 1 0x10 40 0
r 5.694184 2 0 ack 40 ------- 0 3.0 0.0 1 150 38057 0x18 40 0
+ 5.694904 2 0 ack 40 ------- 0 3.0 0.0 1 151 38593 0x18 40 0
- 5.694904 2 0 ack 40 ------- 0 3.0 0.0 1 151 38593 0x18 40 0
+ 5.69976 2 3 tcp 576 ------- 0 0.0 3.0 40737 155 1 0x10 40 0
- 5.69976 2 3 tcp 576 ------- 0 0.0 3.0 40737 155 1 0x10 40 0
r 5.699944 2 0 ack 40 ------- 0 3.0 0.0 1 151 38593 0x18 40 0
+ 5.700664 2 0 ack 40 ------- 0 3.0 0.0 1 152 38593 0x18 40 0
- 5.700664 2 0 ack 40 ------- 0 3.0 0.0 1 152 38593 0x18 40 0
+ 5.70552 2 3 tcp 576 ------- 0 0.0 3.0 41273 156 1 0x10 40 0
- 5.70552 2 3 tcp 576 ------- 0 0.0 3.0 41273 156 1 0x10 40 0
r 5.705704 2 0 ack 40 ------- 0 3.0 0.0 1 152 38593 0x18 40 0
r 5.794 2 3 tcp 576 ------- 0 0.0 3.0 39665 153 1 0x10 40 0
r 5.79976 2 3 tcp 576 ------- 0 0.0 3.0 40201 154 1 0x10 40 0
r 5.80552 2 3 tcp 576 ------- 0 0.0 3.0 40737 155 1 0x10 40 0
r 5.81128 2 3 tcp 576 ------- 0 0.0 3.0 41273 156 1 0x10 40 0
+ 5.8944 2 0 ack 40 ------- 0 3.0 0.0 1 157 38593 0x18 40 0
- 5.8944 2 0 ack 40 ------- 0 3.0 0.0 1 157 38593 0x18 40 0
r 5.89944 2 0 ack 40 ------- 0 3.0 0.0 1 157 38593 0x18 40 0
+ 5.90016 2 0 ack 40 ------- 0 3.0 0.0 1 158 38593 0x18 40 0
- 5.90016 2 0 ack 40 ------- 0 3.0 0.0 1 158 38593 0x18 40 0
r 5.9052 2 0 ack 40 ------- 0 3.0 0.0 1 158 38593 0x18 40 0
+ 5.90592 2 0 ack 40 ------- 0 3.0 0.0 1 159 38593 0x18 40 0
- 5.90592 2 0 ack 40 ------- 0 3.0 0.0 1 159 38593 0x18 40 0
+ 5.910776 2 3 tcp 576 ------- 0 0.0 3.0 38593 161 1 0x10 40 0
- 5.910776 2 3 tcp 576 ------- 0 0.0 3.0 38593 161 1 0x10 40 0
r 5.91096 2 0 ack 40 ------- 0 3.0 0.0 1 159 38593 0x18 40 0
+ 5.91168 2 0 ack 40 ------- 0 3.0 0.0 1 160 38593 0x18 40 0
- 5.91168 2 0 ack 40 ------- 0 3.0 0.0 1 160 38593 0x18 40 0
+ 5.916536 2 3 tcp 576 ---A--- 0 0.0 3.0 41809 162 1 0x90 40 0
- 5.916536 2 3 tcp 576 ---A--- 0 0.0 3.0 41809 162 1 0x90 40 0
r 5.91672 2 0 ack 40 ------- 0 3.0 0.0 1 160 38593 0x18 40 0
+ 5.922296 2 3 tcp 576 ------- 0 0.0 3.0 42345 163 1 0x10 40 0
- 5.922296 2 3 tcp 576 ------- 0 0.0 3.0 42345 163 1 0x10 40 0
r 6.016536 2 3 tcp 576 ------- 0 0.0 3.0 38593 161 1 0x10 40 0
r 6.022296 2 3 tcp 576 ---A--- 0 0.0 3.0 41809 162 1 0x90 40 0
r 6.028056 2 3 tcp 576 ------- 0 0.0 3.0 42345 163 1 0x10 40 0
+ 6.116936 2 0 ack 40 ------- 0 3.0 0.0 1 164 41809 0x18 40 0