v testName ecn1
+ 0.70504 2 3 tcp 40 C--A--- 0 0.0 3.0 0 0 -1 0xca 40 0
- 0.70504 2 3 tcp 40 C--A--- 0 0.0 3.0 0 0 -1 0xca 40 0
r 0.80544 2 3 tcp 40 C--A--- 0 0.0 3.0 0 0 -1 0xca 40 0
+ 0.90584 2 0 ack 40 C------ 0 3.0 0.0 0 1 1 0x5a 40 0
- 0.90584 2 0 ack 40 C------ 0 3.0 0.0 0 1 1 0x5a 40 0
r 0.91088 2 0 ack 40 C------ 0 3.0 0.0 0 1 1 0x5a 40 0
+ 0.91592 2 3 tcp 40 ------- 0 0.0 3.0 1 2 1 0x10 40 0
- 0.91592 2 3 tcp 40 ------- 0 0.0 3.0 1 2 1 0x10 40 0
+ 0.916496 2 3 tcp 576 ------N 0 0.0 3.0 1 3 1 0x10 40 0
- 0.916496 2 3 tcp 576 ------N 0 0.0 3.0 1 3 1 0x10 40 0
r 1.01632 2 3 tcp 40 ------- 0 0.0 3.0 1 2 1 0x10 40 0
r 1.022256 2 3 tcp 576 ------N 0 0.0 3.0 1 3 1 0x10 40 0
+ 1.122656 2 0 ack 40 ------- 0 3.0 0.0 1 4 537 0x18 40 0
- 1.122656 2 0 ack 40 ------- 0 3.0 0.0 1 4 537 0x18 40 0
r 1.127696 2 0 ack 40 ------- 0 3.0 0.0 1 4 537 0x18 40 0
+ 1.133272 2 3 tcp 576 ------N 0 0.0 3.0 537 5 1 0x10 40 0
- 1.133272 2 3 tcp 576 ------N 0 0.0 3.0 537 5 1 0x10 40 0
+ 1.133848 2 3 tcp 576 ------N 0 0.0 3.0 1073 6 1 0x10 40 0
- 1.139032 2 3 tcp 576 ------N 0 0.0 3.0 1073 6 1 0x10 40 0
r 1.239032 2 3 tcp 576 ------N 0 0.0 3.0 537 5 1 0x10 40 0
r 1.244792 2 3 tcp 576 ------N 0 0.0 3.0 1073 6 1 0x10 40 0
+ 1.339432 2 0 ack 40 ------- 0 3.0 0.0 1 7 1073 0x18 40 0
- 1.339432 2 0 ack 40 ------- 0 3.0 0.0 1 7 1073 0x18 40 0
r 1.344472 2 0 ack 40 ------- 0 3.0 0.0 1 7 1073 0x18 40 0
+ 1.345192 2 0 ack 40 ------- 0 3.0 0.0 1 8 1609 0x18 40 0
- 1.345192 2 0 ack 40 ------- 0 3.0 0.0 1 8 1609 0x18 40 0
+ 1.350048 2 3 tcp 576 ------N 0 0.0 3.0 1609 9 1 0x10 40 0
- 1.350048 2 3 tcp 576 ------N 0 0.0 3.0 1609 9 1 0x10 40 0
r 1.350232 2 0 ack 40 ------- 0 3.0 0.0 1 8 1609 0x18 40 0
+ 1.350624 2 3 tcp 576 ------N 0 0.0 3.0 2145 10 1 0x10 40 0
- 1.355808 2 3 tcp 576 ------N 0 0.0 3.0 2145 10 1 0x10 40 0
+ 1.355808 2 3 tcp 576 ------N 0 0.0 3.0 2681 11 1 0x10 40 0
+ 1.356384 2 3 tcp 576 ------N 0 0.0 3.0 3217 12 1 0x10 40 0
- 1.361568 2 3 tcp 576 ------N 0 0.0 3.0 2681 11 1 0x10 40 0
- 1.367328 2 3 tcp 576 ------N 0 0.0 3.0 3217 12 1 0x10 40 0
r 1.455808 2 3 tcp 576 ------N 0 0.0 3.0 1609 9 1 0x10 40 0
r 1.461568 2 3 tcp 576 ------N 0 0.0 3.0 2145 10 1 0x10 40 0
r 1.467328 2 3 tcp 576 ------N 0 0.0 3.0 2681 11 1 0x10 40 0
r 1.473088 2 3 tcp 576 ------N 0 0.0 3.0 3217 12 1 0x10 40 0
+ 1.556208 2 0 ack 40 ------- 0 3.0 0.0 1 13 2145 0x18 40 0
- 1.556208 2 0 ack 40 ------- 0 3.0 0.0 1 13 2145 0x18 40 0
r 1.561248 2 0 ack 40 ------- 0 3.0 0.0 1 13 2145 0x18 40 0
+ 1.561968 2 0 ack 40 ------- 0 3.0 0.0 1 14 2681 0x18 40 0
- 1.561968 2 0 ack 40 ------- 0 3.0 0.0 1 14 2681 0x18 40 0
+ 1.566824 2 3 tcp 576 ------N 0 0.0 3.0 3753 17 1 0x10 40 0
- 1.566824 2 3 tcp 576 ----E-N 0 0.0 3.0 3753 17 1 0x10 40 0
r 1.567008 2 0 ack 40 ------- 0 3.0 0.0 1 14 2681 0x18 40 0
+ 1.5674 2 3 tcp 576 ------N 0 0.0 3.0 4289 18 1 0x10 40 0
+ 1.567728 2 0 ack 40 ------- 0 3.0 0.0 1 15 3217 0x18 40 0
- 1.567728 2 0 ack 40 ------- 0 3.0 0.0 1 15 3217 0x18 40 0
- 1.572584 2 3 tcp 576 ------N 0 0.0 3.0 4289 18 1 0x10 40 0
+ 1.572584 2 3 tcp 576 ------N 0 0.0 3.0 4825 19 1 0x10 40 0
r 1.572768 2 0 ack 40 ------- 0 3.0 0.0 1 15 3217 0x18 40 0
+ 1.57316 2 3 tcp 576 ------N 0 0.0 3.0 5361 20 1 0x10 40 0
+ 1.573488 2 0 ack 40 ------- 0 3.0 0.0 1 16 3753 0x18 40 0
- 1.573488 2 0 ack 40 ------- 0 3.0 0.0 1 16 3753 0x18 40 0
- 1.578344 2 3 tcp 576 ------N 0 0.0 3.0 4825 19 1 0x10 40 0
+ 1.578344 2 3 tcp 576 ------N 0 0.0 3.0 5897 21 1 0x10 40 0
r 1.578528 2 0 ack 40 ------- 0 3.0 0.0 1 16 3753 0x18 40 0
+ 1.57892 2 3 tcp 576 ------N 0 0.0 3.0 6433 22 1 0x10 40 0
- 1.584104 2 3 tcp 576 ------N 0 0.0 3.0 5361 20 1 0x10 40 0
+ 1.584104 2 3 tcp 576 ------N 0 0.0 3.0 6969 23 1 0x10 40 0
+ 1.58468 2 3 tcp 576 ------N 0 0.0 3.0 7505 24 1 0x10 40 0
- 1.589864 2 3 tcp 576 ------N 0 0.0 3.0 5897 21 1 0x10 40 0
- 1.595624 2 3 tcp 576 ------N 0 0.0 3.0 6433 22 1 0x10 40 0
- 1.601384 2 3 tcp 576 ------N 0 0.0 3.0 6969 23 1 0x10 40 0
- 1.607144 2 3 tcp 576 ------N 0 0.0 3.0 7505 24 1 0x10 40 0
r 1.672584 2 3 tcp 576 ----E-N 0 0.0 3.0 3753 17 1 0x10 40 0
r 1.678344 2 3 tcp 576 ------N 0 0.0 3.0 4289 18 1 0x10 40 0
r 1.684104 2 3 tcp 576 ------N 0 0.0 3.0 4825 19 1 0x10 40 0
r 1.689864 2 3 tcp 576 ------N 0 0.0 3.0 5361 20 1 0x10 40 0
r 1.695624 2 3 tcp 576 ------N 0 0.0 3.0 5897 21 1 0x10 40 0
r 1.701384 2 3 tcp 576 ------N 0 0.0 3.0 6433 22 1 0x10 40 0
r 1.707144 2 3 tcp 576 ------N 0 0.0 3.0 6969 23 1 0x10 40 0
r 1.712904 2 3 tcp 576 ------N 0 0.0 3.0 7505 24 1 0x10 40 0
+ 1.772984 2 0 ack 40 C------ 0 3.0 0.0 1 25 4289 0x58 40 0
- 1.772984 2 0 ack 40 C------ 0 3.0 0.0 1 25 4289 0x58 40 0
r 1.778024 2 0 ack 40 C------ 0 3.0 0.0 1 25 4289 0x58 40 0
+ 1.778744 2 0 ack 40 C------ 0 3.0 0.0 1 26 4825 0x58 40 0
- 1.778744 2 0 ack 40 C------ 0 3.0 0.0 1 26 4825 0x58 40 0
r 1.783784 2 0 ack 40 C------ 0 3.0 0.0 1 26 4825 0x58 40 0
+ 1.784504 2 0 ack 40 C------ 0 3.0 0.0 1 27 5361 0x58 40 0
- 1.784504 2 0 ack 40 C------ 0 3.0 0.0 1 27 5361 0x58 40 0
r 1.789544 2 0 ack 40 C------ 0 3.0 0.0 1 27 5361 0x58 40 0
+ 1.790264 2 0 ack 40 C------ 0 3.0 0.0 1 28 5897 0x58 40 0
- 1.790264 2 0 ack 40 C------ 0 3.0 0.0 1 28 5897 0x58 40 0
r 1.795304 2 0 ack 40 C------ 0 3.0 0.0 1 28 5897 0x58 40 0
+ 1.796024 2 0 ack 40 C------ 0 3.0 0.0 1 29 6433 0x58 40 0
- 1.796024 2 0 ack 40 C------ 0 3.0 0.0 1 29 6433 0x58 40 0
r 1.801064 2 0 ack 40 C------ 0 3.0 0.0 1 29 6433 0x58 40 0
+ 1.801784 2 0 ack 40 C------ 0 3.0 0.0 1 30 6969 0x58 40 0
- 1.801784 2 0 ack 40 C------ 0 3.0 0.0 1 30 6969 0x58 40 0
+ 1.80664 2 3 tcp 576 ---A--N 0 0.0 3.0 8041 33 1 0x90 40 0
- 1.80664 2 3 tcp 576 ---A--N 0 0.0 3.0 8041 33 1 0x90 40 0
r 1.806824 2 0 ack 40 C------ 0 3.0 0.0 1 30 6969 0x58 40 0
+ 1.807544 2 0 ack 40 C------ 0 3.0 0.0 1 31 7505 0x58 40 0
- 1.807544 2 0 ack 40 C------ 0 3.0 0.0 1 31 7505 0x58 40 0
+ 1.8124 2 3 tcp 576 ------N 0 0.0 3.0 8577 34 1 0x10 40 0
- 1.8124 2 3 tcp 576 ------N 0 0.0 3.0 8577 34 1 0x10 40 0
r 1.812584 2 0 ack 40 C------ 0 3.0 0.0 1 31 7505 0x58 40 0
+ 1.813304 2 0 ack 40 C------ 0 3.0 0.0 1 32 8041 0x58 40 0
- 1.813304 2 0 ack 40 C------ 0 3.0 0.0 1 32 8041 0x58 40 0
+ 1.81816 2 3 tcp 576 ------N 0 0.0 3.0 9113 35 1 0x10 40 0
- 1.81816 2 3 tcp 576 ------N 0 0.0 3.0 9113 35 1 0x10 40 0
r 1.818344 2 0 ack 40 C------ 0 3.0 0.0 1 32 8041 0x58 40 0
+ 1.82392 2 3 tcp 576 ------N 0 0.0 3.0 9649 36 1 0x10 40 0
- 1.82392 2 3 tcp 576 ------N 0 0.0 3.0 9649 36 1 0x10 40 0
r 1.9124 2 3 tcp 576 ---A--N 0 0.0 3.0 8041 33 1 0x90 40 0
r 1.91816 2 3 tcp 576 ------N 0 0.0 3.0 8577 34 1 0x10 40 0
r 1.92392 2 3 tcp 576 ------N 0 0.0 3.0 9113 35 1 0x10 40 0
r 1.92968 2 3 tcp 576 ------N 0 0.0 3.0 9649 36 1 0x10 40 0
+ 2.0128 2 0 ack 40 ------- 0 3.0 0.0 1 37 8577 0x18 40 0
- 2.0128 2 0 ack 40 ------- 0 3.0 0.0 1 37 8577 0x18 40 0
r 2.01784 2 0 ack 40 ------- 0 3.0 0.0 1 37 8577 0x18 40 0
+ 2.01856 2 0 ack 40 ------- 0 3.0 0.0 1 38 9113 0x18 40 0
- 2.01856 2 0 ack 40 ------- 0 3.0 0.0 1 38 9113 0x18 40 0
+ 2.023416 2 3 tcp 576 ------N 0 0.0 3.0 10185 41 1 0x10 40 0
- 2.023416 2 3 tcp 576 ------N 0 0.0 3.0 10185 41 1 0x10 40 0
r 2.0236 2 0 ack 40 ------- 0 3.0 0.0 1 38 9113 0x18 40 0
+ 2.02432 2 0 ack 40 ------- 0 3.0 0.0 1 39 9649 0x18 40 0
- 2.02432 2 0 ack 40 ------- 0 3.0 0.0 1 39 9649 0x18 40 0
+ 2.029176 2 3 tcp 576 ------N 0 0.0 3.0 10721 42 1 0x10 40 0
- 2.029176 2 3 tcp 576 ------N 0 0.0 3.0 10721 42 1 0x10 40 0
r 2.02936 2 0 ack 40 ------- 0 3.0 0.0 1 39 9649 0x18 40 0
+ 2.03008 2 0 ack 40 ------- 0 3.0 0.0 1 40 10185 0x18 40 0
- 2.03008 2 0 ack 40 ------- 0 3.0 0.0 1 40 10185 0x18 40 0
+ 2.034936 2 3 tcp 576 ------N 0 0.0 3.0 11257 43 1 0x10 40 0
- 2.034936 2 3 tcp 576 ------N 0 0.0 3.0 11257 43 1 0x10 40 0
r 2.03512 2 0 ack 40 ------- 0 3.0 0.0 1 40 10185 0x18 40 0
+ 2.040696 2 3 tcp 576 ------N 0 0.0 3.0 11793 44 1 0x10 40 0
- 2.040696 2 3 tcp 576 ------N 0 0.0 3.0 11793 44 1 0x10 40 0
r 2.129176 2 3 tcp 576 ------N 0 0.0 3.0 10185 41 1 0x10 40 0
r 2.134936 2 3 tcp 576 ------N 0 0.0 3.0 10721 42 1 0x10 40 0
r 2.140696 2 3 tcp 576 ------N 0 0.0 3.0 11257 43 1 0x10 40 0
r 2.146456 2 3 tcp 576 ------N 0 0.0 3.0 11793 44 1 0x10 40 0
+ 2.229576 2 0 ack 40 ------- 0 3.0 0.0 1 45 10721 0x18 40 0
- 2.229576 2 0 ack 40 ------- 0 3.0 0.0 1 45 10721 0x18 40 0
r 2.234616 2 0 ack 40 ------- 0 3.0 0.0 1 45 10721 0x18 40 0
+ 2.235336 2 0 ack 40 ------- 0 3.0 0.0 1 46 11257 0x18 40 0
- 2.235336 2 0 ack 40 ------- 0 3.0 0.0 1 46 11257 0x18 40 0
+ 2.240192 2 3 tcp 576 ------N 0 0.0 3.0 12329 49 1 0x10 40 0
- 2.240192 2 3 tcp 576 ------N 0 0.0 3.0 12329 49 1 0x10 40 0
r 2.240376 2 0 ack 40 ------- 0 3.0 0.0 1 46 11257 0x18 40 0
+ 2.240768 2 3 tcp 576 ------N 0 0.0 3.0 12865 50 1 0x10 40 0
+ 2.241096 2 0 ack 40 ------- 0 3.0 0.0 1 47 11793 0x18 40 0
- 2.241096 2 0 ack 40 ------- 0 3.0 0.0 1 47 11793 0x18 40 0
- 2.245952 2 3 tcp 576 ------N 0 0.0 3.0 12865 50 1 0x10 40 0
+ 2.245952 2 3 tcp 576 ------N 0 0.0 3.0 13401 51 1 0x10 40 0
r 2.246136 2 0 ack 40 ------- 0 3.0 0.0 1 47 11793 0x18 40 0
+ 2.246856 2 0 ack 40 ------- 0 3.0 0.0 1 48 12329 0x18 40 0
- 2.246856 2 0 ack 40 ------- 0 3.0 0.0 1 48 12329 0x18 40 0
- 2.251712 2 3 tcp 576 ------N 0 0.0 3.0 13401 51 1 0x10 40 0
+ 2.251712 2 3 tcp 576 ------N 0 0.0 3.0 13937 52 1 0x10 40 0
r 2.251896 2 0 ack 40 ------- 0 3.0 0.0 1 48 12329 0x18 40 0
- 2.257472 2 3 tcp 576 ------N 0 0.0 3.0 13937 52 1 0x10 40 0
+ 2.257472 2 3 tcp 576 ------N 0 0.0 3.0 14473 53 1 0x10 40 0
- 2.263232 2 3 tcp 576 ------N 0 0.0 3.0 14473 53 1 0x10 40 0
r 2.345952 2 3 tcp 576 ------N 0 0.0 3.0 12329 49 1 0x10 40 0
r 2.351712 2 3 tcp 576 ------N 0 0.0 3.0 12865 50 1 0x10 40 0
r 2.357472 2 3 tcp 576 ------N 0 0.0 3.0 13401 51 1 0x10 40 0
r 2.363232 2 3 tcp 576 ------N 0 0.0 3.0 13937 52 1 0x10 40 0
r 2.368992 2 3 tcp 576 ------N 0 0.0 3.0 14473 53 1 0x10 40 0
+ 2.446352 2 0 ack 40 ------- 0 3.0 0.0 1 54 12865 0x18 40 0
- 2.446352 2 0 ack 40 ------- 0 3.0 0.0 1 54 12865 0x18 40 0
r 2.451392 2 0 ack 40 ------- 0 3.0 0.0 1 54 12865 0x18 40 0
+ 2.452112 2 0 ack 40 ------- 0 3.0 0.0 1 55 13401 0x18 40 0
- 2.452112 2 0 ack 40 ------- 0 3.0 0.0 1 55 13401 0x18 40 0
+ 2.456968 2 3 tcp 576 ------N 0 0.0 3.0 15009 59 1 0x10 40 0
- 2.456968 2 3 tcp 576 ------N 0 0.0 3.0 15009 59 1 0x10 40 0
r 2.457152 2 0 ack 40 ------- 0 3.0 0.0 1 55 13401 0x18 40 0
+ 2.457872 2 0 ack 40 ------- 0 3.0 0.0 1 56 13937 0x18 40 0
- 2.457872 2 0 ack 40 ------- 0 3.0 0.0 1 56 13937 0x18 40 0
+ 2.462728 2 3 tcp 576 ------N 0 0.0 3.0 15545 60 1 0x10 40 0
- 2.462728 2 3 tcp 576 ------N 0 0.0 3.0 15545 60 1 0x10 40 0
r 2.462912 2 0 ack 40 ------- 0 3.0 0.0 1 56 13937 0x18 40 0
+ 2.463304 2 3 tcp 576 ------N 0 0.0 3.0 16081 61 1 0x10 40 0
+ 2.463632 2 0 ack 40 ------- 0 3.0 0.0 1 57 14473 0x18 40 0
- 2.463632 2 0 ack 40 ------- 0 3.0 0.0 1 57 14473 0x18 40 0
- 2.468488 2 3 tcp 576 ------N 0 0.0 3.0 16081 61 1 0x10 40 0
+ 2.468488 2 3 tcp 576 ------N 0 0.0 3.0 16617 62 1 0x10 40 0
r 2.468672 2 0 ack 40 ------- 0 3.0 0.0 1 57 14473 0x18 40 0
+ 2.469392 2 0 ack 40 ------- 0 3.0 0.0 1 58 15009 0x18 40 0
- 2.469392 2 0 ack 40 ------- 0 3.0 0.0 1 58 15009 0x18 40 0
- 2.474248 2 3 tcp 576 ------N 0 0.0 3.0 16617 62 1 0x10 40 0
+ 2.474248 2 3 tcp 576 ------N 0 0.0 3.0 17153 63 1 0x10 40 0
r 2.474432 2 0 ack 40 ------- 0 3.0 0.0 1 58 15009 0x18 40 0
- 2.480008 2 3 tcp 576 ------N 0 0.0 3.0 17153 63 1 0x10 40 0
+ 2.480008 2 3 tcp 576 ------N 0 0.0 3.0 17689 64 1 0x10 40 0
- 2.485768 2 3 tcp 576 ------N 0 0.0 3.0 17689 64 1 0x10 40 0
r 2.562728 2 3 tcp 576 ------N 0 0.0 3.0 15009 59 1 0x10 40 0
r 2.568488 2 3 tcp 576 ------N 0 0.0 3.0 15545 60 1 0x10 40 0
r 2.574248 2 3 tcp 576 ------N 0 0.0 3.0 16081 61 1 0x10 40 0
r 2.580008 2 3 tcp 576 ------N 0 0.0 3.0 16617 62 1 0x10 40 0
r 2.585768 2 3 tcp 576 ------N 0 0.0 3.0 17153 63 1 0x10 40 0
r 2.591528 2 3 tcp 576 ------N 0 0.0 3.0 17689 64 1 0x10 40 0
+ 2.663128 2 0 ack 40 ------- 0 3.0 0.0 1 65 15545 0x18 40 0
- 2.663128 2 0 ack 40 ------- 0 3.0 0.0 1 65 15545 0x18 40 0
r 2.668168 2 0 ack 40 ------- 0 3.0 0.0 1 65 15545 0x18 40 0
+ 2.668888 2 0 ack 40 ------- 0 3.0 0.0 1 66 16081 0x18 40 0
- 2.668888 2 0 ack 40 ------- 0 3.0 0.0 1 66 16081 0x18 40 0
+ 2.673744 2 3 tcp 576 ------N 0 0.0 3.0 18225 71 1 0x10 40 0
- 2.673744 2 3 tcp 576 ------N 0 0.0 3.0 18225 71 1 0x10 40 0
r 2.673928 2 0 ack 40 ------- 0 3.0 0.0 1 66 16081 0x18 40 0
+ 2.674648 2 0 ack 40 ------- 0 3.0 0.0 1 67 16617 0x18 40 0
- 2.674648 2 0 ack 40 ------- 0 3.0 0.0 1 67 16617 0x18 40 0
+ 2.679504 2 3 tcp 576 ------N 0 0.0 3.0 18761 72 1 0x10 40 0
- 2.679504 2 3 tcp 576 ------N 0 0.0 3.0 18761 72 1 0x10 40 0
r 2.679688 2 0 ack 40 ------- 0 3.0 0.0 1 67 16617 0x18 40 0
+ 2.680408 2 0 ack 40 ------- 0 3.0 0.0 1 68 17153 0x18 40 0
- 2.680408 2 0 ack 40 ------- 0 3.0 0.0 1 68 17153 0x18 40 0
+ 2.685264 2 3 tcp 576 ------N 0 0.0 3.0 19297 73 1 0x10 40 0
- 2.685264 2 3 tcp 576 ------N 0 0.0 3.0 19297 73 1 0x10 40 0
r 2.685448 2 0 ack 40 ------- 0 3.0 0.0 1 68 17153 0x18 40 0
+ 2.686168 2 0 ack 40 ------- 0 3.0 0.0 1 69 17689 0x18 40 0
- 2.686168 2 0 ack 40 ------- 0 3.0 0.0 1 69 17689 0x18 40 0
+ 2.691024 2 3 tcp 576 ------N 0 0.0 3.0 19833 74 1 0x10 40 0
- 2.691024 2 3 tcp 576 ----E-N 0 0.0 3.0 19833 74 1 0x10 40 0
r 2.691208 2 0 ack 40 ------- 0 3.0 0.0 1 69 17689 0x18 40 0
+ 2.6916 2 3 tcp 576 ------N 0 0.0 3.0 20369 75 1 0x10 40 0
+ 2.691928 2 0 ack 40 ------- 0 3.0 0.0 1 70 18225 0x18 40 0
- 2.691928 2 0 ack 40 ------- 0 3.0 0.0 1 70 18225 0x18 40 0
- 2.696784 2 3 tcp 576 ------N 0 0.0 3.0 20369 75 1 0x10 40 0
+ 2.696784 2 3 tcp 576 ------N 0 0.0 3.0 20905 76 1 0x10 40 0
r 2.696968 2 0 ack 40 ------- 0 3.0 0.0 1 70 18225 0x18 40 0
- 2.702544 2 3 tcp 576 ------N 0 0.0 3.0 20905 76 1 0x10 40 0
+ 2.702544 2 3 tcp 576 ------N 0 0.0 3.0 21441 77 1 0x10 40 0
- 2.708304 2 3 tcp 576 ------N 0 0.0 3.0 21441 77 1 0x10 40 0
r 2.779504 2 3 tcp 576 ------N 0 0.0 3.0 18225 71 1 0x10 40 0
r 2.785264 2 3 tcp 576 ------N 0 0.0 3.0 18761 72 1 0x10 40 0
r 2.791024 2 3 tcp 576 ------N 0 0.0 3.0 19297 73 1 0x10 40 0
r 2.796784 2 3 tcp 576 ----E-N 0 0.0 3.0 19833 74 1 0x10 40 0
r 2.802544 2 3 tcp 576 ------N 0 0.0 3.0 20369 75 1 0x10 40 0
r 2.808304 2 3 tcp 576 ------N 0 0.0 3.0 20905 76 1 0x10 40 0
r 2.814064 2 3 tcp 576 ------N 0 0.0 3.0 21441 77 1 0x10 40 0
+ 2.879904 2 0 ack 40 ------- 0 3.0 0.0 1 78 18761 0x18 40 0
- 2.879904 2 0 ack 40 ------- 0 3.0 0.0 1 78 18761 0x18 40 0
r 2.884944 2 0 ack 40 ------- 0 3.0 0.0 1 78 18761 0x18 40 0
+ 2.885664 2 0 ack 40 ------- 0 3.0 0.0 1 79 19297 0x18 40 0
- 2.885664 2 0 ack 40 ------- 0 3.0 0.0 1 79 19297 0x18 40 0
+ 2.89052 2 3 tcp 576 ------N 0 0.0 3.0 21977 85 1 0x10 40 0
- 2.89052 2 3 tcp 576 ------N 0 0.0 3.0 21977 85 1 0x10 40 0
r 2.890704 2 0 ack 40 ------- 0 3.0 0.0 1 79 19297 0x18 40 0
+ 2.891424 2 0 ack 40 ------- 0 3.0 0.0 1 80 19833 0x18 40 0
- 2.891424 2 0 ack 40 ------- 0 3.0 0.0 1 80 19833 0x18 40 0
+ 2.89628 2 3 tcp 576 ------N 0 0.0 3.0 22513 86 1 0x10 40 0
- 2.89628 2 3 tcp 576 ------N 0 0.0 3.0 22513 86 1 0x10 40 0
r 2.896464 2 0 ack 40 ------- 0 3.0 0.0 1 80 19833 0x18 40 0
+ 2.897184 2 0 ack 40 C------ 0 3.0 0.0 1 81 20369 0x58 40 0
- 2.897184 2 0 ack 40 C------ 0 3.0 0.0 1 81 20369 0x58 40 0
+ 2.90204 2 3 tcp 576 ------N 0 0.0 3.0 23049 87 1 0x10 40 0
- 2.90204 2 3 tcp 576 ------N 0 0.0 3.0 23049 87 1 0x10 40 0
r 2.902224 2 0 ack 40 C------ 0 3.0 0.0 1 81 20369 0x58 40 0
+ 2.902944 2 0 ack 40 C------ 0 3.0 0.0 1 82 20905 0x58 40 0
- 2.902944 2 0 ack 40 C------ 0 3.0 0.0 1 82 20905 0x58 40 0
r 2.907984 2 0 ack 40 C------ 0 3.0 0.0 1 82 20905 0x58 40 0
+ 2.908704 2 0 ack 40 C------ 0 3.0 0.0 1 83 21441 0x58 40 0
- 2.908704 2 0 ack 40 C------ 0 3.0 0.0 1 83 21441 0x58 40 0
r 2.913744 2 0 ack 40 C------ 0 3.0 0.0 1 83 21441 0x58 40 0
+ 2.914464 2 0 ack 40 C------ 0 3.0 0.0 1 84 21977 0x58 40 0
- 2.914464 2 0 ack 40 C------ 0 3.0 0.0 1 84 21977 0x58 40 0
r 2.919504 2 0 ack 40 C------ 0 3.0 0.0 1 84 21977 0x58 40 0
r 2.99628 2 3 tcp 576 ------N 0 0.0 3.0 21977 85 1 0x10 40 0
r 3.00204 2 3 tcp 576 ------N 0 0.0 3.0 22513 86 1 0x10 40 0
r 3.0078 2 3 tcp 576 ------N 0 0.0 3.0 23049 87 1 0x10 40 0
+ 3.09668 2 0 ack 40 C------ 0 3.0 0.0 1 88 22513 0x58 40 0
- 3.09668 2 0 ack 40 C------ 0 3.0 0.0 1 88 22513 0x58 40 0
r 3.10172 2 0 ack 40 C------ 0 3.0 0.0 1 88 22513 0x58 40 0
+ 3.10244 2 0 ack 40 C------ 0 3.0 0.0 1 89 23049 0x58 40 0
- 3.10244 2 0 ack 40 C------ 0 3.0 0.0 1 89 23049 0x58 40 0
+ 3.107296 2 3 tcp 576 ---A--N 0 0.0 3.0 23585 91 1 0x90 40 0
- 3.107296 2 3 tcp 576 ---A--N 0 0.0 3.0 23585 91 1 0x90 40 0
r 3.10748 2 0 ack 40 C------ 0 3.0 0.0 1 89 23049 0x58 40 0
+ 3.1082 2 0 ack 40 C------ 0 3.0 0.0 1 90 23585 0x58 40 0
- 3.1082 2 0 ack 40 C------ 0 3.0 0.0 1 90 23585 0x58 40 0
+ 3.113056 2 3 tcp 576 ------N 0 0.0 3.0 24121 92 1 0x10 40 0
- 3.113056 2 3 tcp 576 ------N 0 0.0 3.0 24121 92 1 0x10 40 0
r 3.11324 2 0 ack 40 C------ 0 3.0 0.0 1 90 23585 0x58 40 0
+ 3.118816 2 3 tcp 576 ------N 0 0.0 3.0 24657 93 1 0x10 40 0
- 3.118816 2 3 tcp 576 ------N 0 0.0 3.0 24657 93 1 0x10 40 0
r 3.213056 2 3 tcp 576 ---A--N 0 0.0 3.0 23585 91 1 0x90 40 0
r 3.218816 2 3 tcp 576 ------N 0 0.0 3.0 24121 92 1 0x10 40 0
r 3.224576 2 3 tcp 576 ------N 0 0.0 3.0 24657 93 1 0x10 40 0
+ 3.313456 2 0 ack 40 ------- 0 3.0 0.0 1 94 24121 0x18 40 0
- 3.313456 2 0 ack 40 ------- 0 3.0 0.0 1 94 24121 0x18 40 0
r 3.318496 2 0 ack 40 ------- 0 3.0 0.0 1 94 24121 0x18 40 0
+ 3.319216 2 0 ack 40 ------- 0 3.0 0.0 1 95 24657 0x18 40 0
- 3.319216 2 0 ack 40 ------- 0 3.0 0.0 1 95 24657 0x18 40 0
+ 3.324072 2 3 tcp 576 ------N 0 0.0 3.0 25193 97 1 0x10 40 0
- 3.324072 2 3 tcp 576 ------N 0 0.0 3.0 25193 97 1 0x10 40 0
r 3.324256 2 0 ack 40 ------- 0 3.0 0.0 1 95 24657 0x18 40 0
+ 3.324976 2 0 ack 40 ------- 0 3.0 0.0 1 96 25193 0x18 40 0
- 3.324976 2 0 ack 40 ------- 0 3.0 0.0 1 96 25193 0x18 40 0
+ 3.329832 2 3 tcp 576 ------N 0 0.0 3.0 25729 98 1 0x10 40 0
- 3.329832 2 3 tcp 576 ------N 0 0.0 3.0 25729 98 1 0x10 40 0
r 3.330016 2 0 ack 40 ------- 0 3.0 0.0 1 96 25193 0x18 40 0
+ 3.335592 2 3 tcp 576 ------N 0 0.0 3.0 26265 99 1 0x10 40 0
- 3.335592 2 3 tcp 576 ------N 0 0.0 3.0 26265 99 1 0x10 40 0
r 3.429832 2 3 tcp 576 ------N 0 0.0 3.0 25193 97 1 0x10 40 0
r 3.435592 2 3 tcp 576 ------N 0 0.0 3.0 25729 98 1 0x10 40 0
r 3.441352 2 3 tcp 576 ------N 0 0.0 3.0 26265 99 1 0x10 40 0
+ 3.530232 2 0 ack 40 ------- 0 3.0 0.0 1 100 25729 0x18 40 0
- 3.530232 2 0 ack 40 ------- 0 3.0 0.0 1 100 25729 0x18 40 0
r 3.535272 2 0 ack 40 ------- 0 3.0 0.0 1 100 25729 0x18 40 0
+ 3.535992 2 0 ack 40 ------- 0 3.0 0.0 1 101 26265 0x18 40 0
- 3.535992 2 0 ack 40 ------- 0 3.0 0.0 1 101 26265 0x18 40 0
+ 3.540848 2 3 tcp 576 ------N 0 0.0 3.0 26801 103 1 0x10 40 0
- 3.540848 2 3 tcp 576 ------N 0 0.0 3.0 26801 103 1 0x10 40 0
r 3.541032 2 0 ack 40 ------- 0 3.0 0.0 1 101 26265 0x18 40 0
+ 3.541424 2 3 tcp 576 ------N 0 0.0 3.0 27337 104 1 0x10 40 0
+ 3.541752 2 0 ack 40 ------- 0 3.0 0.0 1 102 26801 0x18 40 0
- 3.541752 2 0 ack 40 ------- 0 3.0 0.0 1 102 26801 0x18 40 0
- 3.546608 2 3 tcp 576 ------N 0 0.0 3.0 27337 104 1 0x10 40 0
+ 3.546608 2 3 tcp 576 ------N 0 0.0 3.0 27873 105 1 0x10 40 0
r 3.546792 2 0 ack 40 ------- 0 3.0 0.0 1 102 26801 0x18 40 0
- 3.552368 2 3 tcp 576 ------N 0 0.0 3.0 27873 105 1 0x10 40 0
+ 3.552368 2 3 tcp 576 ------N 0 0.0 3.0 28409 106 1 0x10 40 0
- 3.558128 2 3 tcp 576 ------N 0 0.0 3.0 28409 106 1 0x10 40 0
r 3.646608 2 3 tcp 576 ------N 0 0.0 3.0 26801 103 1 0x10 40 0
r 3.652368 2 3 tcp 576 ------N 0 0.0 3.0 27337 104 1 0x10 40 0
r 3.658128 2 3 tcp 576 ------N 0 0.0 3.0 27873 105 1 0x10 40 0
r 3.663888 2 3 tcp 576 ------N 0 0.0 3.0 28409 106 1 0x10 40 0
+ 3.747008 2 0 ack 40 ------- 0 3.0 0.0 1 107 27337 0x18 40 0
- 3.747008 2 0 ack 40 ------- 0 3.0 0.0 1 107 27337 0x18 40 0
r 3.752048 2 0 ack 40 ------- 0 3.0 0.0 1 107 27337 0x18 40 0
+ 3.752768 2 0 ack 40 ------- 0 3.0 0.0 1 108 27873 0x18 40 0
- 3.752768 2 0 ack 40 ------- 0 3.0 0.0 1 108 27873 0x18 40 0
+ 3.757624 2 3 tcp 576 ------N 0 0.0 3.0 28945 111 1 0x10 40 0
- 3.757624 2 3 tcp 576 ------N 0 0.0 3.0 28945 111 1 0x10 40 0
r 3.757808 2 0 ack 40 ------- 0 3.0 0.0 1 108 27873 0x18 40 0
+ 3.758528 2 0 ack 40 ------- 0 3.0 0.0 1 109 28409 0x18 40 0
- 3.758528 2 0 ack 40 ------- 0 3.0 0.0 1 109 28409 0x18 40 0
+ 3.763384 2 3 tcp 576 ------N 0 0.0 3.0 29481 112 1 0x10 40 0
- 3.763384 2 3 tcp 576 ------N 0 0.0 3.0 29481 112 1 0x10 40 0
r 3.763568 2 0 ack 40 ------- 0 3.0 0.0 1 109 28409 0x18 40 0
+ 3.76396 2 3 tcp 576 ------N 0 0.0 3.0 30017 113 1 0x10 40 0
+ 3.764288 2 0 ack 40 ------- 0 3.0 0.0 1 110 28945 0x18 40 0
- 3.764288 2 0 ack 40 ------- 0 3.0 0.0 1 110 28945 0x18 40 0
- 3.769144 2 3 tcp 576 ------N 0 0.0 3.0 30017 113 1 0x10 40 0
+ 3.769144 2 3 tcp 576 ------N 0 0.0 3.0 30553 114 1 0x10 40 0
r 3.769328 2 0 ack 40 ------- 0 3.0 0.0 1 110 28945 0x18 40 0
- 3.774904 2 3 tcp 576 ------N 0 0.0 3.0 30553 114 1 0x10 40 0
+ 3.774904 2 3 tcp 576 ------N 0 0.0 3.0 31089 115 1 0x10 40 0
- 3.780664 2 3 tcp 576 ------N 0 0.0 3.0 31089 115 1 0x10 40 0
r 3.863384 2 3 tcp 576 ------N 0 0.0 3.0 28945 111 1 0x10 40 0
r 3.869144 2 3 tcp 576 ------N 0 0.0 3.0 29481 112 1 0x10 40 0
r 3.874904 2 3 tcp 576 ------N 0 0.0 3.0 30017 113 1 0x10 40 0
r 3.880664 2 3 tcp 576 ------N 0 0.0 3.0 30553 114 1 0x10 40 0
r 3.886424 2 3 tcp 576 ------N 0 0.0 3.0 31089 115 1 0x10 40 0
+ 3.963784 2 0 ack 40 ------- 0 3.0 0.0 1 116 29481 0x18 40 0
- 3.963784 2 0 ack 40 ------- 0 3.0 0.0 1 116 29481 0x18 40 0
r 3.968824 2 0 ack 40 ------- 0 3.0 0.0 1 116 29481 0x18 40 0
+ 3.969544 2 0 ack 40 ------- 0 3.0 0.0 1 117 30017 0x18 40 0
- 3.969544 2 0 ack 40 ------- 0 3.0 0.0 1 117 30017 0x18 40 0
+ 3.9744 2 3 tcp 576 ------N 0 0.0 3.0 31625 121 1 0x10 40 0
- 3.9744 2 3 tcp 576 ------N 0 0.0 3.0 31625 121 1 0x10 40 0
r 3.974584 2 0 ack 40 ------- 0 3.0 0.0 1 117 30017 0x18 40 0
+ 3.975304 2 0 ack 40 ------- 0 3.0 0.0 1 118 30553 0x18 40 0
- 3.975304 2 0 ack 40 ------- 0 3.0 0.0 1 118 30553 0x18 40 0
+ 3.98016 2 3 tcp 576 ------N 0 0.0 3.0 32161 122 1 0x10 40 0
- 3.98016 2 3 tcp 576 ------N 0 0.0 3.0 32161 122 1 0x10 40 0
r 3.980344 2 0 ack 40 ------- 0 3.0 0.0 1 118 30553 0x18 40 0
+ 3.981064 2 0 ack 40 ------- 0 3.0 0.0 1 119 31089 0x18 40 0
- 3.981064 2 0 ack 40 ------- 0 3.0 0.0 1 119 31089 0x18 40 0
+ 3.98592 2 3 tcp 576 ------N 0 0.0 3.0 32697 123 1 0x10 40 0
- 3.98592 2 3 tcp 576 ------N 0 0.0 3.0 32697 123 1 0x10 40 0
r 3.986104 2 0 ack 40 ------- 0 3.0 0.0 1 119 31089 0x18 40 0
+ 3.986824 2 0 ack 40 ------- 0 3.0 0.0 1 120 31625 0x18 40 0
- 3.986824 2 0 ack 40 ------- 0 3.0 0.0 1 120 31625 0x18 40 0
+ 3.99168 2 3 tcp 576 ------N 0 0.0 3.0 33233 124 1 0x10 40 0
- 3.99168 2 3 tcp 576 ------N 0 0.0 3.0 33233 124 1 0x10 40 0
r 3.991864 2 0 ack 40 ------- 0 3.0 0.0 1 120 31625 0x18 40 0
+ 3.992256 2 3 tcp 576 ------N 0 0.0 3.0 33769 125 1 0x10 40 0
- 3.99744 2 3 tcp 576 ------N 0 0.0 3.0 33769 125 1 0x10 40 0
+ 3.99744 2 3 tcp 576 ------N 0 0.0 3.0 34305 126 1 0x10 40 0
- 4.0032 2 3 tcp 576 ------N 0 0.0 3.0 34305 126 1 0x10 40 0
r 4.08016 2 3 tcp 576 ------N 0 0.0 3.0 31625 121 1 0x10 40 0
r 4.08592 2 3 tcp 576 ------N 0 0.0 3.0 32161 122 1 0x10 40 0
r 4.09168 2 3 tcp 576 ------N 0 0.0 3.0 32697 123 1 0x10 40 0
r 4.09744 2 3 tcp 576 ------N 0 0.0 3.0 33233 124 1 0x10 40 0
r 4.1032 2 3 tcp 576 ------N 0 0.0 3.0 33769 125 1 0x10 40 0
r 4.10896 2 3 tcp 576 ------N 0 0.0 3.0 34305 126 1 0x10 40 0
+ 4.18056 2 0 ack 40 ------- 0 3.0 0.0 1 127 32161 0x18 40 0
- 4.18056 2 0 ack 40 ------- 0 3.0 0.0 1 127 32161 0x18 40 0
r 4.1856 2 0 ack 40 ------- 0 3.0 0.0 1 127 32161 0x18 40 0
+ 4.18632 2 0 ack 40 ------- 0 3.0 0.0 1 128 32697 0x18 40 0
- 4.18632 2 0 ack 40 ------- 0 3.0 0.0 1 128 32697 0x18 40 0
+ 4.191176 2 3 tcp 576 ------N 0 0.0 3.0 34841 133 1 0x10 40 0
- 4.191176 2 3 tcp 576 ------N 0 0.0 3.0 34841 133 1 0x10 40 0
r 4.19136 2 0 ack 40 ------- 0 3.0 0.0 1 128 32697 0x18 40 0
+ 4.19208 2 0 ack 40 ------- 0 3.0 0.0 1 129 33233 0x18 40 0
- 4.19208 2 0 ack 40 ------- 0 3.0 0.0 1 129 33233 0x18 40 0
+ 4.196936 2 3 tcp 576 ------N 0 0.0 3.0 35377 134 1 0x10 40 0
- 4.196936 2 3 tcp 576 ------N 0 0.0 3.0 35377 134 1 0x10 40 0
r 4.19712 2 0 ack 40 ------- 0 3.0 0.0 1 129 33233 0x18 40 0
+ 4.19784 2 0 ack 40 ------- 0 3.0 0.0 1 130 33769 0x18 40 0
- 4.19784 2 0 ack 40 ------- 0 3.0 0.0 1 130 33769 0x18 40 0
+ 4.202696 2 3 tcp 576 ------N 0 0.0 3.0 35913 135 1 0x10 40 0
- 4.202696 2 3 tcp 576 ----E-N 0 0.0 3.0 35913 135 1 0x10 40 0
r 4.20288 2 0 ack 40 ------- 0 3.0 0.0 1 130 33769 0x18 40 0
+ 4.2036 2 0 ack 40 ------- 0 3.0 0.0 1 131 34305 0x18 40 0
- 4.2036 2 0 ack 40 ------- 0 3.0 0.0 1 131 34305 0x18 40 0
+ 4.208456 2 3 tcp 576 ------N 0 0.0 3.0 36449 136 1 0x10 40 0
- 4.208456 2 3 tcp 576 ------N 0 0.0 3.0 36449 136 1 0x10 40 0
r 4.20864 2 0 ack 40 ------- 0 3.0 0.0 1 131 34305 0x18 40 0
+ 4.20936 2 0 ack 40 ------- 0 3.0 0.0 1 132 34841 0x18 40 0
- 4.20936 2 0 ack 40 ------- 0 3.0 0.0 1 132 34841 0x18 40 0
+ 4.214216 2 3 tcp 576 ------N 0 0.0 3.0 36985 137 1 0x10 40 0
- 4.214216 2 3 tcp 576 ------N 0 0.0 3.0 36985 137 1 0x10 40 0
r 4.2144 2 0 ack 40 ------- 0 3.0 0.0 1 132 34841 0x18 40 0
+ 4.214792 2 3 tcp 576 ------N 0 0.0 3.0 37521 138 1 0x10 40 0
+ 4.219976 2 3 tcp 576 ------N 0 0.0 3.0 38057 139 1 0x10 40 0
- 4.219976 2 3 tcp 576 ------N 0 0.0 3.0 37521 138 1 0x10 40 0
- 4.225736 2 3 tcp 576 ------N 0 0.0 3.0 38057 139 1 0x10 40 0
r 4.296936 2 3 tcp 576 ------N 0 0.0 3.0 34841 133 1 0x10 40 0
r 4.302696 2 3 tcp 576 ------N 0 0.0 3.0 35377 134 1 0x10 40 0
r 4.308456 2 3 tcp 576 ----E-N 0 0.0 3.0 35913 135 1 0x10 40 0
r 4.314216 2 3 tcp 576 ------N 0 0.0 3.0 36449 136 1 0x10 40 0
r 4.319976 2 3 tcp 576 ------N 0 0.0 3.0 36985 137 1 0x10 40 0
r 4.325736 2 3 tcp 576 ------N 0 0.0 3.0 37521 138 1 0x10 40 0
r 4.331496 2 3 tcp 576 ------N 0 0.0 3.0 38057 139 1 0x10 40 0
+ 4.397336 2 0 ack 40 ------- 0 3.0 0.0 1 140 35377 0x18 40 0
- 4.397336 2 0 ack 40 ------- 0 3.0 0.0 1 140 35377 0x18 40 0
r 4.402376 2 0 ack 40 ------- 0 3.0 0.0 1 140 35377 0x18 40 0
+ 4.403096 2 0 ack 40 ------- 0 3.0 0.0 1 141 35913 0x18 40 0
- 4.403096 2 0 ack 40 ------- 0 3.0 0.0 1 141 35913 0x18 40 0
+ 4.407952 2 3 tcp 576 ------N 0 0.0 3.0 38593 147 1 0x10 40 0
- 4.407952 2 3 tcp 576 ------N 0 0.0 3.0 38593 147 1 0x10 40 0
r 4.408136 2 0 ack 40 ------- 0 3.0 0.0 1 141 35913 0x18 40 0
+ 4.408856 2 0 ack 40 C------ 0 3.0 0.0 1 142 36449 0x58 40 0
- 4.408856 2 0 ack 40 C------ 0 3.0 0.0 1 142 36449 0x58 40 0
+ 4.413712 2 3 tcp 576 ------N 0 0.0 3.0 39129 148 1 0x10 40 0
- 4.413712 2 3 tcp 576 ------N 0 0.0 3.0 39129 148 1 0x10 40 0
r 4.413896 2 0 ack 40 C------ 0 3.0 0.0 1 142 36449 0x58 40 0
+ 4.414616 2 0 ack 40 C------ 0 3.0 0.0 1 143 36985 0x58 40 0
- 4.414616 2 0 ack 40 C------ 0 3.0 0.0 1 143 36985 0x58 40 0
r 4.419656 2 0 ack 40 C------ 0 3.0 0.0 1 143 36985 0x58 40 0
+ 4.420376 2 0 ack 40 C------ 0 3.0 0.0 1 144 37521 0x58 40 0
- 4.420376 2 0 ack 40 C------ 0 3.0 0.0 1 144 37521 0x58 40 0
r 4.425416 2 0 ack 40 C------ 0 3.0 0.0 1 144 37521 0x58 40 0
+ 4.426136 2 0 ack 40 C------ 0 3.0 0.0 1 145 38057 0x58 40 0
- 4.426136 2 0 ack 40 C------ 0 3.0 0.0 1 145 38057 0x58 40 0
r 4.431176 2 0 ack 40 C------ 0 3.0 0.0 1 145 38057 0x58 40 0
+ 4.431896 2 0 ack 40 C------ 0 3.0 0.0 1 146 38593 0x58 40 0
- 4.431896 2 0 ack 40 C------ 0 3.0 0.0 1 146 38593 0x58 40 0
r 4.436936 2 0 ack 40 C------ 0 3.0 0.0 1 146 38593 0x58 40 0
+ 4.442512 2 3 tcp 576 ---A--N 0 0.0 3.0 39665 149 1 0x90 40 0
- 4.442512 2 3 tcp 576 ---A--N 0 0.0 3.0 39665 149 1 0x90 40 0
r 4.513712 2 3 tcp 576 ------N 0 0.0 3.0 38593 147 1 0x10 40 0
r 4.519472 2 3 tcp 576 ------N 0 0.0 3.0 39129 148 1 0x10 40 0
r 4.548272 2 3 tcp 576 ---A--N 0 0.0 3.0 39665 149 1 0x90 40 0
+ 4.614112 2 0 ack 40 C------ 0 3.0 0.0 1 150 39129 0x58 40 0
- 4.614112 2 0 ack 40 C------ 0 3.0 0.0 1 150 39129 0x58 40 0
r 4.619152 2 0 ack 40 C------ 0 3.0 0.0 1 150 39129 0x58 40 0
+ 4.619872 2 0 ack 40 C------ 0 3.0 0.0 1 151 39665 0x58 40 0
- 4.619872 2 0 ack 40 C------ 0 3.0 0.0 1 151 39665 0x58 40 0
+ 4.624728 2 3 tcp 576 ------N 0 0.0 3.0 40201 153 1 0x10 40 0
- 4.624728 2 3 tcp 576 ------N 0 0.0 3.0 40201 153 1 0x10 40 0
r 4.624912 2 0 ack 40 C------ 0 3.0 0.0 1 151 39665 0x58 40 0
+ 4.630488 2 3 tcp 576 ------N 0 0.0 3.0 40737 154 1 0x10 40 0
- 4.630488 2 3 tcp 576 ------N 0 0.0 3.0 40737 154 1 0x10 40 0
+ 4.648672 2 0 ack 40 ------- 0 3.0 0.0 1 152 40201 0x18 40 0
- 4.648672 2 0 ack 40 ------- 0 3.0 0.0 1 152 40201 0x18 40 0
r 4.653712 2 0 ack 40 ------- 0 3.0 0.0 1 152 40201 0x18 40 0
+ 4.659288 2 3 tcp 576 ------N 0 0.0 3.0 41273 155 1 0x10 40 0
- 4.659288 2 3 tcp 576 ------N 0 0.0 3.0 41273 155 1 0x10 40 0
r 4.730488 2 3 tcp 576 ------N 0 0.0 3.0 40201 153 1 0x10 40 0
r 4.736248 2 3 tcp 576 ------N 0 0.0 3.0 40737 154 1 0x10 40 0
r 4.765048 2 3 tcp 576 ------N 0 0.0 3.0 41273 155 1 0x10 40 0
+ 4.830888 2 0 ack 40 ------- 0 3.0 0.0 1 156 40737 0x18 40 0
- 4.830888 2 0 ack 40 ------- 0 3.0 0.0 1 156 40737 0x18 40 0
r 4.835928 2 0 ack 40 ------- 0 3.0 0.0 1 156 40737 0x18 40 0
+ 4.836648 2 0 ack 40 ------- 0 3.0 0.0 1 157 41273 0x18 40 0
- 4.836648 2 0 ack 40 ------- 0 3.0 0.0 1 157 41273 0x18 40 0
+ 4.841504 2 3 tcp 576 ------N 0 0.0 3.0 41809 159 1 0x10 40 0
- 4.841504 2 3 tcp 576 ------N 0 0.0 3.0 41809 159 1 0x10 40 0
r 4.841688 2 0 ack 40 ------- 0 3.0 0.0 1 157 41273 0x18 40 0
+ 4.847264 2 3 tcp 576 ------N 0 0.0 3.0 42345 160 1 0x10 40 0
- 4.847264 2 3 tcp 576 ------N 0 0.0 3.0 42345 160 1 0x10 40 0
+ 4.865448 2 0 ack 40 ------- 0 3.0 0.0 1 158 41809 0x18 40 0
- 4.865448 2 0 ack 40 ------- 0 3.0 0.0 1 158 41809 0x18 40 0
r 4.870488 2 0 ack 40 ------- 0 3.0 0.0 1 158 41809 0x18 40 0
+ 4.876064 2 3 tcp 576 ------N 0 0.0 3.0 42881 161 1 0x10 40 0
- 4.876064 2 3 tcp 576 ------N 0 0.0 3.0 42881 161 1 0x10 40 0
+ 4.87664 2 3 tcp 576 ------N 0 0.0 3.0 43417 162 1 0x10 40 0
- 4.881824 2 3 tcp 576 ------N 0 0.0 3.0 43417 162 1 0x10 40 0
r 4.947264 2 3 tcp 576 ------N 0 0.0 3.0 41809 159 1 0x10 40 0
r 4.953024 2 3 tcp 576 ------N 0 0.0 3.0 42345 160 1 0x10 40 0
r 4.981824 2 3 tcp 576 ------N 0 0.0 3.0 42881 161 1 0x10 40 0
r 4.987584 2 3 tcp 576 ------N 0 0.0 3.0 43417 162 1 0x10 40 0