v testName ecn2
+ 0.70504 2 3 tcp 40 C--A--- 0 0.0 3.0 0 0 -1 0xca 40 0
- 0.70504 2 3 tcp 40 C--A--- 0 0.0 3.0 0 0 -1 0xca 40 0
r 0.80544 2 3 tcp 40 C--A--- 0 0.0 3.0 0 0 -1 0xca 40 0
+ 0.90584 2 0 ack 40 C------ 0 3.0 0.0 0 1 1 0x5a 40 0
- 0.90584 2 0 ack 40 C------ 0 3.0 0.0 0 1 1 0x5a 40 0
r 0.91088 2 0 ack 40 C------ 0 3.0 0.0 0 1 1 0x5a 40 0
+ 0.91592 2 3 tcp 40 ------- 0 0.0 3.0 1 2 1 0x10 40 0
- 0.91592 2 3 tcp 40 ------- 0 0.0 3.0 1 2 1 0x10 40 0
+ 0.916496 2 3 tcp 576 ------N 0 0.0 3.0 1 3 1 0x10 40 0
- 0.916496 2 3 tcp 576 ------N 0 0.0 3.0 1 3 1 0x10 40 0
r 1.01632 2 3 tcp 40 ------- 0 0.0 3.0 1 2 1 0x10 40 0
r 1.022256 2 3 tcp 576 ------N 0 0.0 3.0 1 3 1 0x10 40 0
+ 1.122656 2 0 ack 40 ------- 0 3.0 0.0 1 4 537 0x18 40 0
- 1.122656 2 0 ack 40 ------- 0 3.0 0.0 1 4 537 0x18 40 0
r 1.127696 2 0 ack 40 ------- 0 3.0 0.0 1 4 537 0x18 40 0
+ 1.133272 2 3 tcp 576 ------N 0 0.0 3.0 537 5 1 0x10 40 0
- 1.133272 2 3 tcp 576 ------N 0 0.0 3.0 537 5 1 0x10 40 0
+ 1.133848 2 3 tcp 576 ------N 0 0.0 3.0 1073 6 1 0x10 40 0
- 1.139032 2 3 tcp 576 ------N 0 0.0 3.0 1073 6 1 0x10 40 0
r 1.239032 2 3 tcp 576 ------N 0 0.0 3.0 537 5 1 0x10 40 0
r 1.244792 2 3 tcp 576 ------N 0 0.0 3.0 1073 6 1 0x10 40 0
+ 1.339432 2 0 ack 40 ------- 0 3.0 0.0 1 7 1073 0x18 40 0
- 1.339432 2 0 ack 40 ------- 0 3.0 0.0 1 7 1073 0x18 40 0
r 1.344472 2 0 ack 40 ------- 0 3.0 0.0 1 7 1073 0x18 40 0
+ 1.345192 2 0 ack 40 ------- 0 3.0 0.0 1 8 1609 0x18 40 0
- 1.345192 2 0 ack 40 ------- 0 3.0 0.0 1 8 1609 0x18 40 0
+ 1.350048 2 3 tcp 576 ------N 0 0.0 3.0 1609 9 1 0x10 40 0
- 1.350048 2 3 tcp 576 ------N 0 0.0 3.0 1609 9 1 0x10 40 0
r 1.350232 2 0 ack 40 ------- 0 3.0 0.0 1 8 1609 0x18 40 0
+ 1.350624 2 3 tcp 576 ------N 0 0.0 3.0 2145 10 1 0x10 40 0
- 1.355808 2 3 tcp 576 ------N 0 0.0 3.0 2145 10 1 0x10 40 0
+ 1.355808 2 3 tcp 576 ------N 0 0.0 3.0 2681 11 1 0x10 40 0
+ 1.356384 2 3 tcp 576 ------N 0 0.0 3.0 3217 12 1 0x10 40 0
- 1.361568 2 3 tcp 576 ------N 0 0.0 3.0 2681 11 1 0x10 40 0
- 1.367328 2 3 tcp 576 ------N 0 0.0 3.0 3217 12 1 0x10 40 0
r 1.455808 2 3 tcp 576 ------N 0 0.0 3.0 1609 9 1 0x10 40 0
r 1.461568 2 3 tcp 576 ------N 0 0.0 3.0 2145 10 1 0x10 40 0
r 1.467328 2 3 tcp 576 ------N 0 0.0 3.0 2681 11 1 0x10 40 0
r 1.473088 2 3 tcp 576 ------N 0 0.0 3.0 3217 12 1 0x10 40 0
+ 1.556208 2 0 ack 40 ------- 0 3.0 0.0 1 13 2145 0x18 40 0
- 1.556208 2 0 ack 40 ------- 0 3.0 0.0 1 13 2145 0x18 40 0
r 1.561248 2 0 ack 40 ------- 0 3.0 0.0 1 13 2145 0x18 40 0
+ 1.561968 2 0 ack 40 ------- 0 3.0 0.0 1 14 2681 0x18 40 0
- 1.561968 2 0 ack 40 ------- 0 3.0 0.0 1 14 2681 0x18 40 0
+ 1.566824 2 3 tcp 576 ------N 0 0.0 3.0 3753 17 1 0x10 40 0
- 1.566824 2 3 tcp 576 ------N 0 0.0 3.0 3753 17 1 0x10 40 0
r 1.567008 2 0 ack 40 ------- 0 3.0 0.0 1 14 2681 0x18 40 0
+ 1.5674 2 3 tcp 576 ------N 0 0.0 3.0 4289 18 1 0x10 40 0
+ 1.567728 2 0 ack 40 ------- 0 3.0 0.0 1 15 3217 0x18 40 0
- 1.567728 2 0 ack 40 ------- 0 3.0 0.0 1 15 3217 0x18 40 0
- 1.572584 2 3 tcp 576 ------N 0 0.0 3.0 4289 18 1 0x10 40 0
+ 1.572584 2 3 tcp 576 ------N 0 0.0 3.0 4825 19 1 0x10 40 0
r 1.572768 2 0 ack 40 ------- 0 3.0 0.0 1 15 3217 0x18 40 0
+ 1.57316 2 3 tcp 576 ------N 0 0.0 3.0 5361 20 1 0x10 40 0
+ 1.573488 2 0 ack 40 ------- 0 3.0 0.0 1 16 3753 0x18 40 0
- 1.573488 2 0 ack 40 ------- 0 3.0 0.0 1 16 3753 0x18 40 0
- 1.578344 2 3 tcp 576 ------N 0 0.0 3.0 4825 19 1 0x10 40 0
+ 1.578344 2 3 tcp 576 ------N 0 0.0 3.0 5897 21 1 0x10 40 0
r 1.578528 2 0 ack 40 ------- 0 3.0 0.0 1 16 3753 0x18 40 0
+ 1.57892 2 3 tcp 576 ------N 0 0.0 3.0 6433 22 1 0x10 40 0
- 1.584104 2 3 tcp 576 ------N 0 0.0 3.0 5361 20 1 0x10 40 0
+ 1.584104 2 3 tcp 576 ------N 0 0.0 3.0 6969 23 1 0x10 40 0
+ 1.58468 2 3 tcp 576 ------N 0 0.0 3.0 7505 24 1 0x10 40 0
- 1.589864 2 3 tcp 576 ------N 0 0.0 3.0 5897 21 1 0x10 40 0
- 1.595624 2 3 tcp 576 ------N 0 0.0 3.0 6433 22 1 0x10 40 0
- 1.601384 2 3 tcp 576 ------N 0 0.0 3.0 6969 23 1 0x10 40 0
- 1.607144 2 3 tcp 576 ------N 0 0.0 3.0 7505 24 1 0x10 40 0
r 1.672584 2 3 tcp 576 ------N 0 0.0 3.0 3753 17 1 0x10 40 0
r 1.678344 2 3 tcp 576 ------N 0 0.0 3.0 4289 18 1 0x10 40 0
r 1.684104 2 3 tcp 576 ------N 0 0.0 3.0 4825 19 1 0x10 40 0
r 1.689864 2 3 tcp 576 ------N 0 0.0 3.0 5361 20 1 0x10 40 0
r 1.695624 2 3 tcp 576 ------N 0 0.0 3.0 5897 21 1 0x10 40 0
r 1.701384 2 3 tcp 576 ------N 0 0.0 3.0 6433 22 1 0x10 40 0
r 1.707144 2 3 tcp 576 ------N 0 0.0 3.0 6969 23 1 0x10 40 0
r 1.712904 2 3 tcp 576 ------N 0 0.0 3.0 7505 24 1 0x10 40 0
+ 1.772984 2 0 ack 40 ------- 0 3.0 0.0 1 25 4289 0x18 40 0
- 1.772984 2 0 ack 40 ------- 0 3.0 0.0 1 25 4289 0x18 40 0
r 1.778024 2 0 ack 40 ------- 0 3.0 0.0 1 25 4289 0x18 40 0
+ 1.778744 2 0 ack 40 ------- 0 3.0 0.0 1 26 4825 0x18 40 0
- 1.778744 2 0 ack 40 ------- 0 3.0 0.0 1 26 4825 0x18 40 0
+ 1.7836 2 3 tcp 576 ------N 0 0.0 3.0 8041 33 1 0x10 40 0
- 1.7836 2 3 tcp 576 ------N 0 0.0 3.0 8041 33 1 0x10 40 0
r 1.783784 2 0 ack 40 ------- 0 3.0 0.0 1 26 4825 0x18 40 0
+ 1.784176 2 3 tcp 576 ------N 0 0.0 3.0 8577 34 1 0x10 40 0
+ 1.784504 2 0 ack 40 ------- 0 3.0 0.0 1 27 5361 0x18 40 0
- 1.784504 2 0 ack 40 ------- 0 3.0 0.0 1 27 5361 0x18 40 0
- 1.78936 2 3 tcp 576 ------N 0 0.0 3.0 8577 34 1 0x10 40 0
+ 1.78936 2 3 tcp 576 ------N 0 0.0 3.0 9113 35 1 0x10 40 0
r 1.789544 2 0 ack 40 ------- 0 3.0 0.0 1 27 5361 0x18 40 0
+ 1.789936 2 3 tcp 576 ------N 0 0.0 3.0 9649 36 1 0x10 40 0
+ 1.790264 2 0 ack 40 ------- 0 3.0 0.0 1 28 5897 0x18 40 0
- 1.790264 2 0 ack 40 ------- 0 3.0 0.0 1 28 5897 0x18 40 0
- 1.79512 2 3 tcp 576 ------N 0 0.0 3.0 9113 35 1 0x10 40 0
+ 1.79512 2 3 tcp 576 ------N 0 0.0 3.0 10185 37 1 0x10 40 0
r 1.795304 2 0 ack 40 ------- 0 3.0 0.0 1 28 5897 0x18 40 0
+ 1.795696 2 3 tcp 576 ------N 0 0.0 3.0 10721 38 1 0x10 40 0
+ 1.796024 2 0 ack 40 ------- 0 3.0 0.0 1 29 6433 0x18 40 0
- 1.796024 2 0 ack 40 ------- 0 3.0 0.0 1 29 6433 0x18 40 0
- 1.80088 2 3 tcp 576 ------N 0 0.0 3.0 9649 36 1 0x10 40 0
+ 1.80088 2 3 tcp 576 ------N 0 0.0 3.0 11257 39 1 0x10 40 0
r 1.801064 2 0 ack 40 ------- 0 3.0 0.0 1 29 6433 0x18 40 0
+ 1.801456 2 3 tcp 576 ------N 0 0.0 3.0 11793 40 1 0x10 40 0
+ 1.801784 2 0 ack 40 ------- 0 3.0 0.0 1 30 6969 0x18 40 0
- 1.801784 2 0 ack 40 ------- 0 3.0 0.0 1 30 6969 0x18 40 0
- 1.80664 2 3 tcp 576 ------N 0 0.0 3.0 10185 37 1 0x10 40 0
+ 1.80664 2 3 tcp 576 ------N 0 0.0 3.0 12329 41 1 0x10 40 0
r 1.806824 2 0 ack 40 ------- 0 3.0 0.0 1 30 6969 0x18 40 0
+ 1.807216 2 3 tcp 576 ------N 0 0.0 3.0 12865 42 1 0x10 40 0
+ 1.807544 2 0 ack 40 ------- 0 3.0 0.0 1 31 7505 0x18 40 0
- 1.807544 2 0 ack 40 ------- 0 3.0 0.0 1 31 7505 0x18 40 0
- 1.8124 2 3 tcp 576 ------N 0 0.0 3.0 10721 38 1 0x10 40 0
+ 1.8124 2 3 tcp 576 ------N 0 0.0 3.0 13401 43 1 0x10 40 0
r 1.812584 2 0 ack 40 ------- 0 3.0 0.0 1 31 7505 0x18 40 0
+ 1.812976 2 3 tcp 576 ------N 0 0.0 3.0 13937 44 1 0x10 40 0
d 1.812976 2 3 tcp 576 ------N 0 0.0 3.0 13937 44 1 0x10 40 0
+ 1.813304 2 0 ack 40 ------- 0 3.0 0.0 1 32 8041 0x18 40 0
- 1.813304 2 0 ack 40 ------- 0 3.0 0.0 1 32 8041 0x18 40 0
- 1.81816 2 3 tcp 576 ------N 0 0.0 3.0 11257 39 1 0x10 40 0
+ 1.81816 2 3 tcp 576 ------N 0 0.0 3.0 14473 45 1 0x10 40 0
r 1.818344 2 0 ack 40 ------- 0 3.0 0.0 1 32 8041 0x18 40 0
+ 1.818736 2 3 tcp 576 ------N 0 0.0 3.0 15009 46 1 0x10 40 0
d 1.818736 2 3 tcp 576 ------N 0 0.0 3.0 15009 46 1 0x10 40 0
- 1.82392 2 3 tcp 576 ------N 0 0.0 3.0 11793 40 1 0x10 40 0
+ 1.82392 2 3 tcp 576 ------N 0 0.0 3.0 15545 47 1 0x10 40 0
+ 1.824496 2 3 tcp 576 ------N 0 0.0 3.0 16081 48 1 0x10 40 0
d 1.824496 2 3 tcp 576 ------N 0 0.0 3.0 16081 48 1 0x10 40 0
- 1.82968 2 3 tcp 576 ------N 0 0.0 3.0 12329 41 1 0x10 40 0
- 1.83544 2 3 tcp 576 ------N 0 0.0 3.0 12865 42 1 0x10 40 0
- 1.8412 2 3 tcp 576 ------N 0 0.0 3.0 13401 43 1 0x10 40 0
- 1.84696 2 3 tcp 576 ------N 0 0.0 3.0 14473 45 1 0x10 40 0
- 1.85272 2 3 tcp 576 ------N 0 0.0 3.0 15545 47 1 0x10 40 0
r 1.88936 2 3 tcp 576 ------N 0 0.0 3.0 8041 33 1 0x10 40 0
r 1.89512 2 3 tcp 576 ------N 0 0.0 3.0 8577 34 1 0x10 40 0
r 1.90088 2 3 tcp 576 ------N 0 0.0 3.0 9113 35 1 0x10 40 0
r 1.90664 2 3 tcp 576 ------N 0 0.0 3.0 9649 36 1 0x10 40 0
r 1.9124 2 3 tcp 576 ------N 0 0.0 3.0 10185 37 1 0x10 40 0
r 1.91816 2 3 tcp 576 ------N 0 0.0 3.0 10721 38 1 0x10 40 0
r 1.92392 2 3 tcp 576 ------N 0 0.0 3.0 11257 39 1 0x10 40 0
r 1.92968 2 3 tcp 576 ------N 0 0.0 3.0 11793 40 1 0x10 40 0
r 1.93544 2 3 tcp 576 ------N 0 0.0 3.0 12329 41 1 0x10 40 0
r 1.9412 2 3 tcp 576 ------N 0 0.0 3.0 12865 42 1 0x10 40 0
r 1.94696 2 3 tcp 576 ------N 0 0.0 3.0 13401 43 1 0x10 40 0
r 1.95272 2 3 tcp 576 ------N 0 0.0 3.0 14473 45 1 0x10 40 0
r 1.95848 2 3 tcp 576 ------N 0 0.0 3.0 15545 47 1 0x10 40 0
+ 1.98976 2 0 ack 40 ------- 0 3.0 0.0 1 49 8577 0x18 40 0
- 1.98976 2 0 ack 40 ------- 0 3.0 0.0 1 49 8577 0x18 40 0
r 1.9948 2 0 ack 40 ------- 0 3.0 0.0 1 49 8577 0x18 40 0
+ 1.99552 2 0 ack 40 ------- 0 3.0 0.0 1 50 9113 0x18 40 0
- 1.99552 2 0 ack 40 ------- 0 3.0 0.0 1 50 9113 0x18 40 0
+ 2.000376 2 3 tcp 576 ------N 0 0.0 3.0 16617 62 1 0x10 40 0
- 2.000376 2 3 tcp 576 ------N 0 0.0 3.0 16617 62 1 0x10 40 0
r 2.00056 2 0 ack 40 ------- 0 3.0 0.0 1 50 9113 0x18 40 0
+ 2.000952 2 3 tcp 576 ------N 0 0.0 3.0 17153 63 1 0x10 40 0
+ 2.00128 2 0 ack 40 ------- 0 3.0 0.0 1 51 9649 0x18 40 0
- 2.00128 2 0 ack 40 ------- 0 3.0 0.0 1 51 9649 0x18 40 0
- 2.006136 2 3 tcp 576 ------N 0 0.0 3.0 17153 63 1 0x10 40 0
+ 2.006136 2 3 tcp 576 ------N 0 0.0 3.0 17689 64 1 0x10 40 0
r 2.00632 2 0 ack 40 ------- 0 3.0 0.0 1 51 9649 0x18 40 0
+ 2.006712 2 3 tcp 576 ------N 0 0.0 3.0 18225 65 1 0x10 40 0
+ 2.00704 2 0 ack 40 ------- 0 3.0 0.0 1 52 10185 0x18 40 0
- 2.00704 2 0 ack 40 ------- 0 3.0 0.0 1 52 10185 0x18 40 0
- 2.011896 2 3 tcp 576 ------N 0 0.0 3.0 17689 64 1 0x10 40 0
+ 2.011896 2 3 tcp 576 ------N 0 0.0 3.0 18761 66 1 0x10 40 0
r 2.01208 2 0 ack 40 ------- 0 3.0 0.0 1 52 10185 0x18 40 0
+ 2.012472 2 3 tcp 576 ------N 0 0.0 3.0 19297 67 1 0x10 40 0
+ 2.0128 2 0 ack 40 ------- 0 3.0 0.0 1 53 10721 0x18 40 0
- 2.0128 2 0 ack 40 ------- 0 3.0 0.0 1 53 10721 0x18 40 0
- 2.017656 2 3 tcp 576 ------N 0 0.0 3.0 18225 65 1 0x10 40 0
+ 2.017656 2 3 tcp 576 ------N 0 0.0 3.0 19833 68 1 0x10 40 0
r 2.01784 2 0 ack 40 ------- 0 3.0 0.0 1 53 10721 0x18 40 0
+ 2.018232 2 3 tcp 576 ------N 0 0.0 3.0 20369 69 1 0x10 40 0
+ 2.01856 2 0 ack 40 ------- 0 3.0 0.0 1 54 11257 0x18 40 0
- 2.01856 2 0 ack 40 ------- 0 3.0 0.0 1 54 11257 0x18 40 0
- 2.023416 2 3 tcp 576 ------N 0 0.0 3.0 18761 66 1 0x10 40 0
+ 2.023416 2 3 tcp 576 ------N 0 0.0 3.0 20905 70 1 0x10 40 0
r 2.0236 2 0 ack 40 ------- 0 3.0 0.0 1 54 11257 0x18 40 0
+ 2.023992 2 3 tcp 576 ------N 0 0.0 3.0 21441 71 1 0x10 40 0
+ 2.02432 2 0 ack 40 ------- 0 3.0 0.0 1 55 11793 0x18 40 0
- 2.02432 2 0 ack 40 ------- 0 3.0 0.0 1 55 11793 0x18 40 0
- 2.029176 2 3 tcp 576 ------N 0 0.0 3.0 19297 67 1 0x10 40 0
+ 2.029176 2 3 tcp 576 ------N 0 0.0 3.0 21977 72 1 0x10 40 0
r 2.02936 2 0 ack 40 ------- 0 3.0 0.0 1 55 11793 0x18 40 0
+ 2.029752 2 3 tcp 576 ------N 0 0.0 3.0 22513 73 1 0x10 40 0
d 2.029752 2 3 tcp 576 ------N 0 0.0 3.0 22513 73 1 0x10 40 0
+ 2.03008 2 0 ack 40 ------- 0 3.0 0.0 1 56 12329 0x18 40 0
- 2.03008 2 0 ack 40 ------- 0 3.0 0.0 1 56 12329 0x18 40 0
- 2.034936 2 3 tcp 576 ------N 0 0.0 3.0 19833 68 1 0x10 40 0
+ 2.034936 2 3 tcp 576 ------N 0 0.0 3.0 23049 74 1 0x10 40 0
r 2.03512 2 0 ack 40 ------- 0 3.0 0.0 1 56 12329 0x18 40 0
+ 2.035512 2 3 tcp 576 ------N 0 0.0 3.0 23585 75 1 0x10 40 0
d 2.035512 2 3 tcp 576 ------N 0 0.0 3.0 23585 75 1 0x10 40 0
+ 2.03584 2 0 ack 40 ------- 0 3.0 0.0 1 57 12865 0x18 40 0
- 2.03584 2 0 ack 40 ------- 0 3.0 0.0 1 57 12865 0x18 40 0
- 2.040696 2 3 tcp 576 ------N 0 0.0 3.0 20369 69 1 0x10 40 0
+ 2.040696 2 3 tcp 576 ------N 0 0.0 3.0 24121 76 1 0x10 40 0
r 2.04088 2 0 ack 40 ------- 0 3.0 0.0 1 57 12865 0x18 40 0
+ 2.041272 2 3 tcp 576 ------N 0 0.0 3.0 24657 77 1 0x10 40 0
d 2.041272 2 3 tcp 576 ------N 0 0.0 3.0 24657 77 1 0x10 40 0
+ 2.0416 2 0 ack 40 ------- 0 3.0 0.0 1 58 13401 0x18 40 0
- 2.0416 2 0 ack 40 ------- 0 3.0 0.0 1 58 13401 0x18 40 0
- 2.046456 2 3 tcp 576 ------N 0 0.0 3.0 20905 70 1 0x10 40 0
+ 2.046456 2 3 tcp 576 ------N 0 0.0 3.0 25193 78 1 0x10 40 0
r 2.04664 2 0 ack 40 ------- 0 3.0 0.0 1 58 13401 0x18 40 0
+ 2.047032 2 3 tcp 576 ------N 0 0.0 3.0 25729 79 1 0x10 40 0
d 2.047032 2 3 tcp 576 ------N 0 0.0 3.0 25729 79 1 0x10 40 0
+ 2.04736 2 0 ack 40 ------- 0 3.0 0.0 1 59 13937 0x18 40 0
- 2.04736 2 0 ack 40 ------- 0 3.0 0.0 1 59 13937 0x18 40 0
- 2.052216 2 3 tcp 576 ------N 0 0.0 3.0 21441 71 1 0x10 40 0
+ 2.052216 2 3 tcp 576 ------N 0 0.0 3.0 26265 80 1 0x10 40 0
r 2.0524 2 0 ack 40 ------- 0 3.0 0.0 1 59 13937 0x18 40 0
+ 2.052792 2 3 tcp 576 ------N 0 0.0 3.0 26801 81 1 0x10 40 0
d 2.052792 2 3 tcp 576 ------N 0 0.0 3.0 26801 81 1 0x10 40 0
+ 2.05312 2 0 ack 40 ------- 0 3.0 0.0 1 60 13937 0x18 40 0
- 2.05312 2 0 ack 40 ------- 0 3.0 0.0 1 60 13937 0x18 40 0
- 2.057976 2 3 tcp 576 ------N 0 0.0 3.0 21977 72 1 0x10 40 0
+ 2.057976 2 3 tcp 576 ------N 0 0.0 3.0 27337 82 1 0x10 40 0
r 2.05816 2 0 ack 40 ------- 0 3.0 0.0 1 60 13937 0x18 40 0
+ 2.058552 2 3 tcp 576 ------N 0 0.0 3.0 27873 83 1 0x10 40 0
d 2.058552 2 3 tcp 576 ------N 0 0.0 3.0 27873 83 1 0x10 40 0
+ 2.05888 2 0 ack 40 ------- 0 3.0 0.0 1 61 13937 0x18 40 0
- 2.05888 2 0 ack 40 ------- 0 3.0 0.0 1 61 13937 0x18 40 0
- 2.063736 2 3 tcp 576 ------N 0 0.0 3.0 23049 74 1 0x10 40 0
r 2.06392 2 0 ack 40 ------- 0 3.0 0.0 1 61 13937 0x18 40 0
- 2.069496 2 3 tcp 576 ------N 0 0.0 3.0 24121 76 1 0x10 40 0
- 2.075256 2 3 tcp 576 ------N 0 0.0 3.0 25193 78 1 0x10 40 0
- 2.081016 2 3 tcp 576 ------N 0 0.0 3.0 26265 80 1 0x10 40 0
- 2.086776 2 3 tcp 576 ------N 0 0.0 3.0 27337 82 1 0x10 40 0
r 2.106136 2 3 tcp 576 ------N 0 0.0 3.0 16617 62 1 0x10 40 0
r 2.111896 2 3 tcp 576 ------N 0 0.0 3.0 17153 63 1 0x10 40 0
r 2.117656 2 3 tcp 576 ------N 0 0.0 3.0 17689 64 1 0x10 40 0
r 2.123416 2 3 tcp 576 ------N 0 0.0 3.0 18225 65 1 0x10 40 0
r 2.129176 2 3 tcp 576 ------N 0 0.0 3.0 18761 66 1 0x10 40 0
r 2.134936 2 3 tcp 576 ------N 0 0.0 3.0 19297 67 1 0x10 40 0
r 2.140696 2 3 tcp 576 ------N 0 0.0 3.0 19833 68 1 0x10 40 0
r 2.146456 2 3 tcp 576 ------N 0 0.0 3.0 20369 69 1 0x10 40 0
r 2.152216 2 3 tcp 576 ------N 0 0.0 3.0 20905 70 1 0x10 40 0
r 2.157976 2 3 tcp 576 ------N 0 0.0 3.0 21441 71 1 0x10 40 0
r 2.163736 2 3 tcp 576 ------N 0 0.0 3.0 21977 72 1 0x10 40 0
r 2.169496 2 3 tcp 576 ------N 0 0.0 3.0 23049 74 1 0x10 40 0
r 2.175256 2 3 tcp 576 ------N 0 0.0 3.0 24121 76 1 0x10 40 0
r 2.181016 2 3 tcp 576 ------N 0 0.0 3.0 25193 78 1 0x10 40 0
r 2.186776 2 3 tcp 576 ------N 0 0.0 3.0 26265 80 1 0x10 40 0
r 2.192536 2 3 tcp 576 ------N 0 0.0 3.0 27337 82 1 0x10 40 0
+ 2.206536 2 0 ack 40 ------- 0 3.0 0.0 1 84 13937 0x18 40 0
- 2.206536 2 0 ack 40 ------- 0 3.0 0.0 1 84 13937 0x18 40 0
r 2.211576 2 0 ack 40 ------- 0 3.0 0.0 1 84 13937 0x18 40 0
+ 2.212296 2 0 ack 40 ------- 0 3.0 0.0 1 85 13937 0x18 40 0
- 2.212296 2 0 ack 40 ------- 0 3.0 0.0 1 85 13937 0x18 40 0
+ 2.217152 2 3 tcp 576 ---A--N 0 0.0 3.0 13937 100 1 0x90 40 0
- 2.217152 2 3 tcp 576 ---A--N 0 0.0 3.0 13937 100 1 0x90 40 0
r 2.217336 2 0 ack 40 ------- 0 3.0 0.0 1 85 13937 0x18 40 0
+ 2.218056 2 0 ack 40 ------- 0 3.0 0.0 1 86 13937 0x18 40 0
- 2.218056 2 0 ack 40 ------- 0 3.0 0.0 1 86 13937 0x18 40 0
r 2.223096 2 0 ack 40 ------- 0 3.0 0.0 1 86 13937 0x18 40 0
+ 2.223816 2 0 ack 40 ------- 0 3.0 0.0 1 87 13937 0x18 40 0
- 2.223816 2 0 ack 40 ------- 0 3.0 0.0 1 87 13937 0x18 40 0
r 2.228856 2 0 ack 40 ------- 0 3.0 0.0 1 87 13937 0x18 40 0
+ 2.229576 2 0 ack 40 ------- 0 3.0 0.0 1 88 13937 0x18 40 0
- 2.229576 2 0 ack 40 ------- 0 3.0 0.0 1 88 13937 0x18 40 0
r 2.234616 2 0 ack 40 ------- 0 3.0 0.0 1 88 13937 0x18 40 0
+ 2.235336 2 0 ack 40 ------- 0 3.0 0.0 1 89 13937 0x18 40 0
- 2.235336 2 0 ack 40 ------- 0 3.0 0.0 1 89 13937 0x18 40 0
r 2.240376 2 0 ack 40 ------- 0 3.0 0.0 1 89 13937 0x18 40 0
+ 2.241096 2 0 ack 40 ------- 0 3.0 0.0 1 90 13937 0x18 40 0
- 2.241096 2 0 ack 40 ------- 0 3.0 0.0 1 90 13937 0x18 40 0
r 2.246136 2 0 ack 40 ------- 0 3.0 0.0 1 90 13937 0x18 40 0
+ 2.246856 2 0 ack 40 ------- 0 3.0 0.0 1 91 13937 0x18 40 0
- 2.246856 2 0 ack 40 ------- 0 3.0 0.0 1 91 13937 0x18 40 0
r 2.251896 2 0 ack 40 ------- 0 3.0 0.0 1 91 13937 0x18 40 0
+ 2.252616 2 0 ack 40 ------- 0 3.0 0.0 1 92 13937 0x18 40 0
- 2.252616 2 0 ack 40 ------- 0 3.0 0.0 1 92 13937 0x18 40 0
r 2.257656 2 0 ack 40 ------- 0 3.0 0.0 1 92 13937 0x18 40 0
+ 2.258376 2 0 ack 40 ------- 0 3.0 0.0 1 93 13937 0x18 40 0
- 2.258376 2 0 ack 40 ------- 0 3.0 0.0 1 93 13937 0x18 40 0
r 2.263416 2 0 ack 40 ------- 0 3.0 0.0 1 93 13937 0x18 40 0
+ 2.264136 2 0 ack 40 ------- 0 3.0 0.0 1 94 13937 0x18 40 0
- 2.264136 2 0 ack 40 ------- 0 3.0 0.0 1 94 13937 0x18 40 0
r 2.269176 2 0 ack 40 ------- 0 3.0 0.0 1 94 13937 0x18 40 0
+ 2.269896 2 0 ack 40 ------- 0 3.0 0.0 1 95 13937 0x18 40 0
- 2.269896 2 0 ack 40 ------- 0 3.0 0.0 1 95 13937 0x18 40 0
r 2.274936 2 0 ack 40 ------- 0 3.0 0.0 1 95 13937 0x18 40 0
+ 2.275656 2 0 ack 40 ------- 0 3.0 0.0 1 96 13937 0x18 40 0
- 2.275656 2 0 ack 40 ------- 0 3.0 0.0 1 96 13937 0x18 40 0
r 2.280696 2 0 ack 40 ------- 0 3.0 0.0 1 96 13937 0x18 40 0
+ 2.281416 2 0 ack 40 ------- 0 3.0 0.0 1 97 13937 0x18 40 0
- 2.281416 2 0 ack 40 ------- 0 3.0 0.0 1 97 13937 0x18 40 0
+ 2.286272 2 3 tcp 576 ------N 0 0.0 3.0 28409 101 1 0x10 40 0
- 2.286272 2 3 tcp 576 ------N 0 0.0 3.0 28409 101 1 0x10 40 0
r 2.286456 2 0 ack 40 ------- 0 3.0 0.0 1 97 13937 0x18 40 0
+ 2.287176 2 0 ack 40 ------- 0 3.0 0.0 1 98 13937 0x18 40 0
- 2.287176 2 0 ack 40 ------- 0 3.0 0.0 1 98 13937 0x18 40 0
+ 2.292032 2 3 tcp 576 ------N 0 0.0 3.0 28945 102 1 0x10 40 0
- 2.292032 2 3 tcp 576 ------N 0 0.0 3.0 28945 102 1 0x10 40 0
r 2.292216 2 0 ack 40 ------- 0 3.0 0.0 1 98 13937 0x18 40 0
+ 2.292936 2 0 ack 40 ------- 0 3.0 0.0 1 99 13937 0x18 40 0
- 2.292936 2 0 ack 40 ------- 0 3.0 0.0 1 99 13937 0x18 40 0
+ 2.297792 2 3 tcp 576 ------N 0 0.0 3.0 29481 103 1 0x10 40 0
- 2.297792 2 3 tcp 576 ------N 0 0.0 3.0 29481 103 1 0x10 40 0
r 2.297976 2 0 ack 40 ------- 0 3.0 0.0 1 99 13937 0x18 40 0
+ 2.303552 2 3 tcp 576 ------N 0 0.0 3.0 30017 104 1 0x10 40 0
- 2.303552 2 3 tcp 576 ------N 0 0.0 3.0 30017 104 1 0x10 40 0
r 2.322912 2 3 tcp 576 ---A--N 0 0.0 3.0 13937 100 1 0x90 40 0
r 2.392032 2 3 tcp 576 ------N 0 0.0 3.0 28409 101 1 0x10 40 0
r 2.397792 2 3 tcp 576 ------N 0 0.0 3.0 28945 102 1 0x10 40 0
r 2.403552 2 3 tcp 576 ------N 0 0.0 3.0 29481 103 1 0x10 40 0
r 2.409312 2 3 tcp 576 ------N 0 0.0 3.0 30017 104 1 0x10 40 0
+ 2.423312 2 0 ack 40 ------- 0 3.0 0.0 1 105 15009 0x18 40 0
- 2.423312 2 0 ack 40 ------- 0 3.0 0.0 1 105 15009 0x18 40 0
r 2.428352 2 0 ack 40 ------- 0 3.0 0.0 1 105 15009 0x18 40 0
+ 2.492432 2 0 ack 40 ------- 0 3.0 0.0 1 106 15009 0x18 40 0
- 2.492432 2 0 ack 40 ------- 0 3.0 0.0 1 106 15009 0x18 40 0
r 2.497472 2 0 ack 40 ------- 0 3.0 0.0 1 106 15009 0x18 40 0
+ 2.498192 2 0 ack 40 ------- 0 3.0 0.0 1 107 15009 0x18 40 0
- 2.498192 2 0 ack 40 ------- 0 3.0 0.0 1 107 15009 0x18 40 0
r 2.503232 2 0 ack 40 ------- 0 3.0 0.0 1 107 15009 0x18 40 0
+ 2.503952 2 0 ack 40 ------- 0 3.0 0.0 1 108 15009 0x18 40 0
- 2.503952 2 0 ack 40 ------- 0 3.0 0.0 1 108 15009 0x18 40 0
r 2.508992 2 0 ack 40 ------- 0 3.0 0.0 1 108 15009 0x18 40 0
+ 2.509712 2 0 ack 40 ------- 0 3.0 0.0 1 109 15009 0x18 40 0
- 2.509712 2 0 ack 40 ------- 0 3.0 0.0 1 109 15009 0x18 40 0
+ 2.514568 2 3 tcp 576 ---A--N 0 0.0 3.0 15009 110 1 0x90 40 0
- 2.514568 2 3 tcp 576 ---A--N 0 0.0 3.0 15009 110 1 0x90 40 0
r 2.514752 2 0 ack 40 ------- 0 3.0 0.0 1 109 15009 0x18 40 0
r 2.620328 2 3 tcp 576 ---A--N 0 0.0 3.0 15009 110 1 0x90 40 0
+ 2.720728 2 0 ack 40 ------- 0 3.0 0.0 1 111 16081 0x18 40 0
- 2.720728 2 0 ack 40 ------- 0 3.0 0.0 1 111 16081 0x18 40 0
r 2.725768 2 0 ack 40 ------- 0 3.0 0.0 1 111 16081 0x18 40 0
+ 4.231344 2 3 tcp 576 ---A--N 0 0.0 3.0 16081 112 1 0x90 40 0
- 4.231344 2 3 tcp 576 ---A--N 0 0.0 3.0 16081 112 1 0x90 40 0
r 4.337104 2 3 tcp 576 ---A--N 0 0.0 3.0 16081 112 1 0x90 40 0
+ 4.437504 2 0 ack 40 ------- 0 3.0 0.0 1 113 22513 0x18 40 0
- 4.437504 2 0 ack 40 ------- 0 3.0 0.0 1 113 22513 0x18 40 0
r 4.442544 2 0 ack 40 ------- 0 3.0 0.0 1 113 22513 0x18 40 0
+ 4.44812 2 3 tcp 576 ------N 0 0.0 3.0 22513 114 1 0x10 40 0
- 4.44812 2 3 tcp 576 ------N 0 0.0 3.0 22513 114 1 0x10 40 0
+ 4.448696 2 3 tcp 576 ------N 0 0.0 3.0 23049 115 1 0x10 40 0
- 4.45388 2 3 tcp 576 ------N 0 0.0 3.0 23049 115 1 0x10 40 0
r 4.55388 2 3 tcp 576 ------N 0 0.0 3.0 22513 114 1 0x10 40 0
r 4.55964 2 3 tcp 576 ------N 0 0.0 3.0 23049 115 1 0x10 40 0
+ 4.65428 2 0 ack 40 ------- 0 3.0 0.0 1 116 23585 0x18 40 0
- 4.65428 2 0 ack 40 ------- 0 3.0 0.0 1 116 23585 0x18 40 0
r 4.65932 2 0 ack 40 ------- 0 3.0 0.0 1 116 23585 0x18 40 0
+ 4.66004 2 0 ack 40 ------- 0 3.0 0.0 1 117 23585 0x18 40 0
- 4.66004 2 0 ack 40 ------- 0 3.0 0.0 1 117 23585 0x18 40 0
+ 4.664896 2 3 tcp 576 ------N 0 0.0 3.0 23585 118 1 0x10 40 0
- 4.664896 2 3 tcp 576 ------N 0 0.0 3.0 23585 118 1 0x10 40 0
r 4.66508 2 0 ack 40 ------- 0 3.0 0.0 1 117 23585 0x18 40 0
+ 4.665472 2 3 tcp 576 ------N 0 0.0 3.0 24121 119 1 0x10 40 0
+ 4.666048 2 3 tcp 576 ------N 0 0.0 3.0 24657 120 1 0x10 40 0
- 4.670656 2 3 tcp 576 ------N 0 0.0 3.0 24121 119 1 0x10 40 0
- 4.676416 2 3 tcp 576 ------N 0 0.0 3.0 24657 120 1 0x10 40 0
r 4.770656 2 3 tcp 576 ------N 0 0.0 3.0 23585 118 1 0x10 40 0
r 4.776416 2 3 tcp 576 ------N 0 0.0 3.0 24121 119 1 0x10 40 0
r 4.782176 2 3 tcp 576 ------N 0 0.0 3.0 24657 120 1 0x10 40 0
+ 4.871056 2 0 ack 40 ------- 0 3.0 0.0 1 121 24657 0x18 40 0
- 4.871056 2 0 ack 40 ------- 0 3.0 0.0 1 121 24657 0x18 40 0
r 4.876096 2 0 ack 40 ------- 0 3.0 0.0 1 121 24657 0x18 40 0
+ 4.876816 2 0 ack 40 ------- 0 3.0 0.0 1 122 24657 0x18 40 0
- 4.876816 2 0 ack 40 ------- 0 3.0 0.0 1 122 24657 0x18 40 0
+ 4.881672 2 3 tcp 576 ------N 0 0.0 3.0 25193 124 1 0x10 40 0
- 4.881672 2 3 tcp 576 ------N 0 0.0 3.0 25193 124 1 0x10 40 0
r 4.881856 2 0 ack 40 ------- 0 3.0 0.0 1 122 24657 0x18 40 0
+ 4.882248 2 3 tcp 576 ------N 0 0.0 3.0 25729 125 1 0x10 40 0
+ 4.882576 2 0 ack 40 ------- 0 3.0 0.0 1 123 25729 0x18 40 0
- 4.882576 2 0 ack 40 ------- 0 3.0 0.0 1 123 25729 0x18 40 0
- 4.887432 2 3 tcp 576 ------N 0 0.0 3.0 25729 125 1 0x10 40 0
r 4.887616 2 0 ack 40 ------- 0 3.0 0.0 1 123 25729 0x18 40 0
+ 4.893192 2 3 tcp 576 ------N 0 0.0 3.0 26265 126 1 0x10 40 0
- 4.893192 2 3 tcp 576 ------N 0 0.0 3.0 26265 126 1 0x10 40 0
+ 4.893768 2 3 tcp 576 ------N 0 0.0 3.0 26801 127 1 0x10 40 0
- 4.898952 2 3 tcp 576 ------N 0 0.0 3.0 26801 127 1 0x10 40 0
r 4.987432 2 3 tcp 576 ------N 0 0.0 3.0 25193 124 1 0x10 40 0
r 4.993192 2 3 tcp 576 ------N 0 0.0 3.0 25729 125 1 0x10 40 0
r 4.998952 2 3 tcp 576 ------N 0 0.0 3.0 26265 126 1 0x10 40 0
r 5.004712 2 3 tcp 576 ------N 0 0.0 3.0 26801 127 1 0x10 40 0
+ 5.087832 2 0 ack 40 ------- 0 3.0 0.0 1 128 25729 0x18 40 0
- 5.087832 2 0 ack 40 ------- 0 3.0 0.0 1 128 25729 0x18 40 0
r 5.092872 2 0 ack 40 ------- 0 3.0 0.0 1 128 25729 0x18 40 0
+ 5.093592 2 0 ack 40 ------- 0 3.0 0.0 1 129 26801 0x18 40 0
- 5.093592 2 0 ack 40 ------- 0 3.0 0.0 1 129 26801 0x18 40 0
r 5.098632 2 0 ack 40 ------- 0 3.0 0.0 1 129 26801 0x18 40 0
+ 5.099352 2 0 ack 40 ------- 0 3.0 0.0 1 130 26801 0x18 40 0
- 5.099352 2 0 ack 40 ------- 0 3.0 0.0 1 130 26801 0x18 40 0
+ 5.104208 2 3 tcp 576 ------N 0 0.0 3.0 27337 132 1 0x10 40 0
- 5.104208 2 3 tcp 576 ------N 0 0.0 3.0 27337 132 1 0x10 40 0
r 5.104392 2 0 ack 40 ------- 0 3.0 0.0 1 130 26801 0x18 40 0
+ 5.104784 2 3 tcp 576 ------N 0 0.0 3.0 27873 133 1 0x10 40 0
+ 5.105112 2 0 ack 40 ------- 0 3.0 0.0 1 131 27873 0x18 40 0
- 5.105112 2 0 ack 40 ------- 0 3.0 0.0 1 131 27873 0x18 40 0
- 5.109968 2 3 tcp 576 ------N 0 0.0 3.0 27873 133 1 0x10 40 0
r 5.110152 2 0 ack 40 ------- 0 3.0 0.0 1 131 27873 0x18 40 0
+ 5.115728 2 3 tcp 576 ------N 0 0.0 3.0 28409 134 1 0x10 40 0
- 5.115728 2 3 tcp 576 ------N 0 0.0 3.0 28409 134 1 0x10 40 0
+ 5.116304 2 3 tcp 576 ------N 0 0.0 3.0 28945 135 1 0x10 40 0
+ 5.11688 2 3 tcp 576 ------N 0 0.0 3.0 29481 136 1 0x10 40 0
- 5.121488 2 3 tcp 576 ------N 0 0.0 3.0 28945 135 1 0x10 40 0
- 5.127248 2 3 tcp 576 ------N 0 0.0 3.0 29481 136 1 0x10 40 0
r 5.209968 2 3 tcp 576 ------N 0 0.0 3.0 27337 132 1 0x10 40 0
r 5.215728 2 3 tcp 576 ------N 0 0.0 3.0 27873 133 1 0x10 40 0
r 5.221488 2 3 tcp 576 ------N 0 0.0 3.0 28409 134 1 0x10 40 0
r 5.227248 2 3 tcp 576 ------N 0 0.0 3.0 28945 135 1 0x10 40 0
r 5.233008 2 3 tcp 576 ------N 0 0.0 3.0 29481 136 1 0x10 40 0
+ 5.310368 2 0 ack 40 ------- 0 3.0 0.0 1 137 27873 0x18 40 0
- 5.310368 2 0 ack 40 ------- 0 3.0 0.0 1 137 27873 0x18 40 0
r 5.315408 2 0 ack 40 ------- 0 3.0 0.0 1 137 27873 0x18 40 0
+ 5.316128 2 0 ack 40 ------- 0 3.0 0.0 1 138 30553 0x18 40 0
- 5.316128 2 0 ack 40 ------- 0 3.0 0.0 1 138 30553 0x18 40 0
r 5.321168 2 0 ack 40 ------- 0 3.0 0.0 1 138 30553 0x18 40 0
+ 5.321888 2 0 ack 40 ------- 0 3.0 0.0 1 139 30553 0x18 40 0
- 5.321888 2 0 ack 40 ------- 0 3.0 0.0 1 139 30553 0x18 40 0
+ 5.326744 2 3 tcp 576 ------N 0 0.0 3.0 30553 142 1 0x10 40 0
- 5.326744 2 3 tcp 576 ------N 0 0.0 3.0 30553 142 1 0x10 40 0
r 5.326928 2 0 ack 40 ------- 0 3.0 0.0 1 139 30553 0x18 40 0
+ 5.32732 2 3 tcp 576 ------N 0 0.0 3.0 31089 143 1 0x10 40 0
+ 5.327648 2 0 ack 40 ------- 0 3.0 0.0 1 140 30553 0x18 40 0
- 5.327648 2 0 ack 40 ------- 0 3.0 0.0 1 140 30553 0x18 40 0
+ 5.327896 2 3 tcp 576 ------N 0 0.0 3.0 31625 144 1 0x10 40 0
+ 5.328472 2 3 tcp 576 ------N 0 0.0 3.0 32161 145 1 0x10 40 0
- 5.332504 2 3 tcp 576 ------N 0 0.0 3.0 31089 143 1 0x10 40 0
r 5.332688 2 0 ack 40 ------- 0 3.0 0.0 1 140 30553 0x18 40 0
+ 5.333408 2 0 ack 40 ------- 0 3.0 0.0 1 141 30553 0x18 40 0
- 5.333408 2 0 ack 40 ------- 0 3.0 0.0 1 141 30553 0x18 40 0
- 5.338264 2 3 tcp 576 ------N 0 0.0 3.0 31625 144 1 0x10 40 0
r 5.338448 2 0 ack 40 ------- 0 3.0 0.0 1 141 30553 0x18 40 0
- 5.344024 2 3 tcp 576 ------N 0 0.0 3.0 32161 145 1 0x10 40 0
r 5.432504 2 3 tcp 576 ------N 0 0.0 3.0 30553 142 1 0x10 40 0
r 5.438264 2 3 tcp 576 ------N 0 0.0 3.0 31089 143 1 0x10 40 0
r 5.444024 2 3 tcp 576 ------N 0 0.0 3.0 31625 144 1 0x10 40 0
r 5.449784 2 3 tcp 576 ------N 0 0.0 3.0 32161 145 1 0x10 40 0
+ 5.532904 2 0 ack 40 ------- 0 3.0 0.0 1 146 31089 0x18 40 0
- 5.532904 2 0 ack 40 ------- 0 3.0 0.0 1 146 31089 0x18 40 0
r 5.537944 2 0 ack 40 ------- 0 3.0 0.0 1 146 31089 0x18 40 0
+ 5.538664 2 0 ack 40 ------- 0 3.0 0.0 1 147 31625 0x18 40 0
- 5.538664 2 0 ack 40 ------- 0 3.0 0.0 1 147 31625 0x18 40 0
r 5.543704 2 0 ack 40 ------- 0 3.0 0.0 1 147 31625 0x18 40 0
+ 5.544424 2 0 ack 40 ------- 0 3.0 0.0 1 148 32161 0x18 40 0
- 5.544424 2 0 ack 40 ------- 0 3.0 0.0 1 148 32161 0x18 40 0
+ 5.54928 2 3 tcp 576 ------N 0 0.0 3.0 32697 150 1 0x10 40 0
- 5.54928 2 3 tcp 576 ------N 0 0.0 3.0 32697 150 1 0x10 40 0
r 5.549464 2 0 ack 40 ------- 0 3.0 0.0 1 148 32161 0x18 40 0
+ 5.550184 2 0 ack 40 ------- 0 3.0 0.0 1 149 32697 0x18 40 0
- 5.550184 2 0 ack 40 ------- 0 3.0 0.0 1 149 32697 0x18 40 0
+ 5.55504 2 3 tcp 576 ------N 0 0.0 3.0 33233 151 1 0x10 40 0
- 5.55504 2 3 tcp 576 ------N 0 0.0 3.0 33233 151 1 0x10 40 0
r 5.555224 2 0 ack 40 ------- 0 3.0 0.0 1 149 32697 0x18 40 0
+ 5.5608 2 3 tcp 576 ------N 0 0.0 3.0 33769 152 1 0x10 40 0
- 5.5608 2 3 tcp 576 ------N 0 0.0 3.0 33769 152 1 0x10 40 0
+ 5.561376 2 3 tcp 576 ------N 0 0.0 3.0 34305 153 1 0x10 40 0
- 5.56656 2 3 tcp 576 ------N 0 0.0 3.0 34305 153 1 0x10 40 0
r 5.65504 2 3 tcp 576 ------N 0 0.0 3.0 32697 150 1 0x10 40 0
r 5.6608 2 3 tcp 576 ------N 0 0.0 3.0 33233 151 1 0x10 40 0
r 5.66656 2 3 tcp 576 ------N 0 0.0 3.0 33769 152 1 0x10 40 0
r 5.67232 2 3 tcp 576 ------N 0 0.0 3.0 34305 153 1 0x10 40 0
+ 5.75544 2 0 ack 40 ------- 0 3.0 0.0 1 154 33233 0x18 40 0
- 5.75544 2 0 ack 40 ------- 0 3.0 0.0 1 154 33233 0x18 40 0
r 5.76048 2 0 ack 40 ------- 0 3.0 0.0 1 154 33233 0x18 40 0
+ 5.7612 2 0 ack 40 ------- 0 3.0 0.0 1 155 33769 0x18 40 0
- 5.7612 2 0 ack 40 ------- 0 3.0 0.0 1 155 33769 0x18 40 0
+ 5.766056 2 3 tcp 576 ------N 0 0.0 3.0 34841 158 1 0x10 40 0
- 5.766056 2 3 tcp 576 ------N 0 0.0 3.0 34841 158 1 0x10 40 0
r 5.76624 2 0 ack 40 ------- 0 3.0 0.0 1 155 33769 0x18 40 0
+ 5.76696 2 0 ack 40 ------- 0 3.0 0.0 1 156 34305 0x18 40 0
- 5.76696 2 0 ack 40 ------- 0 3.0 0.0 1 156 34305 0x18 40 0
+ 5.771816 2 3 tcp 576 ------N 0 0.0 3.0 35377 159 1 0x10 40 0
- 5.771816 2 3 tcp 576 ------N 0 0.0 3.0 35377 159 1 0x10 40 0
r 5.772 2 0 ack 40 ------- 0 3.0 0.0 1 156 34305 0x18 40 0
+ 5.77272 2 0 ack 40 ------- 0 3.0 0.0 1 157 34841 0x18 40 0
- 5.77272 2 0 ack 40 ------- 0 3.0 0.0 1 157 34841 0x18 40 0
+ 5.777576 2 3 tcp 576 ------N 0 0.0 3.0 35913 160 1 0x10 40 0
- 5.777576 2 3 tcp 576 ------N 0 0.0 3.0 35913 160 1 0x10 40 0
r 5.77776 2 0 ack 40 ------- 0 3.0 0.0 1 157 34841 0x18 40 0
+ 5.783336 2 3 tcp 576 ------N 0 0.0 3.0 36449 161 1 0x10 40 0
- 5.783336 2 3 tcp 576 ------N 0 0.0 3.0 36449 161 1 0x10 40 0
+ 5.783912 2 3 tcp 576 ------N 0 0.0 3.0 36985 162 1 0x10 40 0
- 5.789096 2 3 tcp 576 ------N 0 0.0 3.0 36985 162 1 0x10 40 0
r 5.871816 2 3 tcp 576 ------N 0 0.0 3.0 34841 158 1 0x10 40 0
r 5.877576 2 3 tcp 576 ------N 0 0.0 3.0 35377 159 1 0x10 40 0
r 5.883336 2 3 tcp 576 ------N 0 0.0 3.0 35913 160 1 0x10 40 0
r 5.889096 2 3 tcp 576 ------N 0 0.0 3.0 36449 161 1 0x10 40 0
r 5.894856 2 3 tcp 576 ------N 0 0.0 3.0 36985 162 1 0x10 40 0
+ 5.972216 2 0 ack 40 ------- 0 3.0 0.0 1 163 35377 0x18 40 0
- 5.972216 2 0 ack 40 ------- 0 3.0 0.0 1 163 35377 0x18 40 0
r 5.977256 2 0 ack 40 ------- 0 3.0 0.0 1 163 35377 0x18 40 0
+ 5.977976 2 0 ack 40 ------- 0 3.0 0.0 1 164 35913 0x18 40 0
- 5.977976 2 0 ack 40 ------- 0 3.0 0.0 1 164 35913 0x18 40 0
+ 5.982832 2 3 tcp 576 ------N 0 0.0 3.0 37521 168 1 0x10 40 0
- 5.982832 2 3 tcp 576 ------N 0 0.0 3.0 37521 168 1 0x10 40 0
r 5.983016 2 0 ack 40 ------- 0 3.0 0.0 1 164 35913 0x18 40 0
+ 5.983736 2 0 ack 40 ------- 0 3.0 0.0 1 165 36449 0x18 40 0