v testName full
+ 0.00504 2 3 tcp 40 ------- 0 0.0 3.0 0 0 -1 0xa 40 0
- 0.00504 2 3 tcp 40 ------- 0 0.0 3.0 0 0 -1 0xa 40 0
r 0.10544 2 3 tcp 40 ------- 0 0.0 3.0 0 0 -1 0xa 40 0
+ 0.20584 2 0 ack 40 ------- 0 3.0 0.0 0 1 1 0x1a 40 0
- 0.20584 2 0 ack 40 ------- 0 3.0 0.0 0 1 1 0x1a 40 0
r 0.21088 2 0 ack 40 ------- 0 3.0 0.0 0 1 1 0x1a 40 0
+ 0.21592 2 3 tcp 40 ------- 0 0.0 3.0 1 2 1 0x10 40 0
- 0.21592 2 3 tcp 40 ------- 0 0.0 3.0 1 2 1 0x10 40 0
+ 0.216496 2 3 tcp 576 ------- 0 0.0 3.0 1 3 1 0x10 40 0
- 0.216496 2 3 tcp 576 ------- 0 0.0 3.0 1 3 1 0x10 40 0
r 0.31632 2 3 tcp 40 ------- 0 0.0 3.0 1 2 1 0x10 40 0
r 0.322256 2 3 tcp 576 ------- 0 0.0 3.0 1 3 1 0x10 40 0
+ 0.422656 2 0 ack 40 ------- 0 3.0 0.0 1 4 537 0x18 40 0
- 0.422656 2 0 ack 40 ------- 0 3.0 0.0 1 4 537 0x18 40 0
r 0.427696 2 0 ack 40 ------- 0 3.0 0.0 1 4 537 0x18 40 0
+ 0.433272 2 3 tcp 576 ------- 0 0.0 3.0 537 5 1 0x10 40 0
- 0.433272 2 3 tcp 576 ------- 0 0.0 3.0 537 5 1 0x10 40 0
+ 0.433848 2 3 tcp 576 ------- 0 0.0 3.0 1073 6 1 0x10 40 0
- 0.439032 2 3 tcp 576 ------- 0 0.0 3.0 1073 6 1 0x10 40 0
r 0.539032 2 3 tcp 576 ------- 0 0.0 3.0 537 5 1 0x10 40 0
r 0.544792 2 3 tcp 576 ------- 0 0.0 3.0 1073 6 1 0x10 40 0
+ 0.639432 2 0 ack 40 ------- 0 3.0 0.0 1 7 1073 0x18 40 0
- 0.639432 2 0 ack 40 ------- 0 3.0 0.0 1 7 1073 0x18 40 0
r 0.644472 2 0 ack 40 ------- 0 3.0 0.0 1 7 1073 0x18 40 0
+ 0.645192 2 0 ack 40 ------- 0 3.0 0.0 1 8 1609 0x18 40 0
- 0.645192 2 0 ack 40 ------- 0 3.0 0.0 1 8 1609 0x18 40 0
+ 0.650048 2 3 tcp 576 ------- 0 0.0 3.0 1609 9 1 0x10 40 0
- 0.650048 2 3 tcp 576 ------- 0 0.0 3.0 1609 9 1 0x10 40 0
r 0.650232 2 0 ack 40 ------- 0 3.0 0.0 1 8 1609 0x18 40 0
+ 0.650624 2 3 tcp 576 ------- 0 0.0 3.0 2145 10 1 0x10 40 0
- 0.655808 2 3 tcp 576 ------- 0 0.0 3.0 2145 10 1 0x10 40 0
+ 0.655808 2 3 tcp 576 ------- 0 0.0 3.0 2681 11 1 0x10 40 0
+ 0.656384 2 3 tcp 576 ------- 0 0.0 3.0 3217 12 1 0x10 40 0
- 0.661568 2 3 tcp 576 ------- 0 0.0 3.0 2681 11 1 0x10 40 0
- 0.667328 2 3 tcp 576 ------- 0 0.0 3.0 3217 12 1 0x10 40 0
r 0.755808 2 3 tcp 576 ------- 0 0.0 3.0 1609 9 1 0x10 40 0
r 0.761568 2 3 tcp 576 ------- 0 0.0 3.0 2145 10 1 0x10 40 0
r 0.767328 2 3 tcp 576 ------- 0 0.0 3.0 2681 11 1 0x10 40 0
r 0.773088 2 3 tcp 576 ------- 0 0.0 3.0 3217 12 1 0x10 40 0
+ 0.856208 2 0 ack 40 ------- 0 3.0 0.0 1 13 2145 0x18 40 0
- 0.856208 2 0 ack 40 ------- 0 3.0 0.0 1 13 2145 0x18 40 0
r 0.861248 2 0 ack 40 ------- 0 3.0 0.0 1 13 2145 0x18 40 0
+ 0.861968 2 0 ack 40 ------- 0 3.0 0.0 1 14 2681 0x18 40 0
- 0.861968 2 0 ack 40 ------- 0 3.0 0.0 1 14 2681 0x18 40 0
+ 0.866824 2 3 tcp 576 ------- 0 0.0 3.0 3753 17 1 0x10 40 0
- 0.866824 2 3 tcp 576 ------- 0 0.0 3.0 3753 17 1 0x10 40 0
r 0.867008 2 0 ack 40 ------- 0 3.0 0.0 1 14 2681 0x18 40 0
+ 0.8674 2 3 tcp 576 ------- 0 0.0 3.0 4289 18 1 0x10 40 0
+ 0.867728 2 0 ack 40 ------- 0 3.0 0.0 1 15 3217 0x18 40 0
- 0.867728 2 0 ack 40 ------- 0 3.0 0.0 1 15 3217 0x18 40 0
- 0.872584 2 3 tcp 576 ------- 0 0.0 3.0 4289 18 1 0x10 40 0
+ 0.872584 2 3 tcp 576 ------- 0 0.0 3.0 4825 19 1 0x10 40 0
r 0.872768 2 0 ack 40 ------- 0 3.0 0.0 1 15 3217 0x18 40 0
+ 0.87316 2 3 tcp 576 ------- 0 0.0 3.0 5361 20 1 0x10 40 0
+ 0.873488 2 0 ack 40 ------- 0 3.0 0.0 1 16 3753 0x18 40 0
- 0.873488 2 0 ack 40 ------- 0 3.0 0.0 1 16 3753 0x18 40 0
- 0.878344 2 3 tcp 576 ------- 0 0.0 3.0 4825 19 1 0x10 40 0
+ 0.878344 2 3 tcp 576 ------- 0 0.0 3.0 5897 21 1 0x10 40 0
r 0.878528 2 0 ack 40 ------- 0 3.0 0.0 1 16 3753 0x18 40 0
+ 0.87892 2 3 tcp 576 ------- 0 0.0 3.0 6433 22 1 0x10 40 0
- 0.884104 2 3 tcp 576 ------- 0 0.0 3.0 5361 20 1 0x10 40 0
+ 0.884104 2 3 tcp 576 ------- 0 0.0 3.0 6969 23 1 0x10 40 0
+ 0.88468 2 3 tcp 576 ------- 0 0.0 3.0 7505 24 1 0x10 40 0
- 0.889864 2 3 tcp 576 ------- 0 0.0 3.0 5897 21 1 0x10 40 0
- 0.895624 2 3 tcp 576 ------- 0 0.0 3.0 6433 22 1 0x10 40 0
- 0.901384 2 3 tcp 576 ------- 0 0.0 3.0 6969 23 1 0x10 40 0
- 0.907144 2 3 tcp 576 ------- 0 0.0 3.0 7505 24 1 0x10 40 0
r 0.972584 2 3 tcp 576 ------- 0 0.0 3.0 3753 17 1 0x10 40 0
r 0.978344 2 3 tcp 576 ------- 0 0.0 3.0 4289 18 1 0x10 40 0
r 0.984104 2 3 tcp 576 ------- 0 0.0 3.0 4825 19 1 0x10 40 0
r 0.989864 2 3 tcp 576 ------- 0 0.0 3.0 5361 20 1 0x10 40 0
r 0.995624 2 3 tcp 576 ------- 0 0.0 3.0 5897 21 1 0x10 40 0
r 1.001384 2 3 tcp 576 ------- 0 0.0 3.0 6433 22 1 0x10 40 0
r 1.007144 2 3 tcp 576 ------- 0 0.0 3.0 6969 23 1 0x10 40 0
r 1.012904 2 3 tcp 576 ------- 0 0.0 3.0 7505 24 1 0x10 40 0
+ 1.072984 2 0 ack 40 ------- 0 3.0 0.0 1 25 4289 0x18 40 0
- 1.072984 2 0 ack 40 ------- 0 3.0 0.0 1 25 4289 0x18 40 0
r 1.078024 2 0 ack 40 ------- 0 3.0 0.0 1 25 4289 0x18 40 0
+ 1.078744 2 0 ack 40 ------- 0 3.0 0.0 1 26 4825 0x18 40 0
- 1.078744 2 0 ack 40 ------- 0 3.0 0.0 1 26 4825 0x18 40 0
+ 1.0836 2 3 tcp 576 ------- 0 0.0 3.0 8041 33 1 0x10 40 0
- 1.0836 2 3 tcp 576 ------- 0 0.0 3.0 8041 33 1 0x10 40 0
r 1.083784 2 0 ack 40 ------- 0 3.0 0.0 1 26 4825 0x18 40 0
+ 1.084176 2 3 tcp 576 ------- 0 0.0 3.0 8577 34 1 0x10 40 0
+ 1.084504 2 0 ack 40 ------- 0 3.0 0.0 1 27 5361 0x18 40 0
- 1.084504 2 0 ack 40 ------- 0 3.0 0.0 1 27 5361 0x18 40 0
- 1.08936 2 3 tcp 576 ------- 0 0.0 3.0 8577 34 1 0x10 40 0
+ 1.08936 2 3 tcp 576 ------- 0 0.0 3.0 9113 35 1 0x10 40 0
r 1.089544 2 0 ack 40 ------- 0 3.0 0.0 1 27 5361 0x18 40 0
+ 1.089936 2 3 tcp 576 ------- 0 0.0 3.0 9649 36 1 0x10 40 0
+ 1.090264 2 0 ack 40 ------- 0 3.0 0.0 1 28 5897 0x18 40 0
- 1.090264 2 0 ack 40 ------- 0 3.0 0.0 1 28 5897 0x18 40 0
- 1.09512 2 3 tcp 576 ------- 0 0.0 3.0 9113 35 1 0x10 40 0
+ 1.09512 2 3 tcp 576 ------- 0 0.0 3.0 10185 37 1 0x10 40 0
r 1.095304 2 0 ack 40 ------- 0 3.0 0.0 1 28 5897 0x18 40 0
+ 1.095696 2 3 tcp 576 ------- 0 0.0 3.0 10721 38 1 0x10 40 0
+ 1.096024 2 0 ack 40 ------- 0 3.0 0.0 1 29 6433 0x18 40 0
- 1.096024 2 0 ack 40 ------- 0 3.0 0.0 1 29 6433 0x18 40 0
- 1.10088 2 3 tcp 576 ------- 0 0.0 3.0 9649 36 1 0x10 40 0
+ 1.10088 2 3 tcp 576 ------- 0 0.0 3.0 11257 39 1 0x10 40 0
r 1.101064 2 0 ack 40 ------- 0 3.0 0.0 1 29 6433 0x18 40 0
+ 1.101456 2 3 tcp 576 ------- 0 0.0 3.0 11793 40 1 0x10 40 0
+ 1.101784 2 0 ack 40 ------- 0 3.0 0.0 1 30 6969 0x18 40 0
- 1.101784 2 0 ack 40 ------- 0 3.0 0.0 1 30 6969 0x18 40 0
- 1.10664 2 3 tcp 576 ------- 0 0.0 3.0 10185 37 1 0x10 40 0
+ 1.10664 2 3 tcp 576 ------- 0 0.0 3.0 12329 41 1 0x10 40 0
r 1.106824 2 0 ack 40 ------- 0 3.0 0.0 1 30 6969 0x18 40 0
+ 1.107216 2 3 tcp 576 ------- 0 0.0 3.0 12865 42 1 0x10 40 0
+ 1.107544 2 0 ack 40 ------- 0 3.0 0.0 1 31 7505 0x18 40 0
- 1.107544 2 0 ack 40 ------- 0 3.0 0.0 1 31 7505 0x18 40 0
- 1.1124 2 3 tcp 576 ------- 0 0.0 3.0 10721 38 1 0x10 40 0
+ 1.1124 2 3 tcp 576 ------- 0 0.0 3.0 13401 43 1 0x10 40 0
r 1.112584 2 0 ack 40 ------- 0 3.0 0.0 1 31 7505 0x18 40 0
+ 1.112976 2 3 tcp 576 ------- 0 0.0 3.0 13937 44 1 0x10 40 0
d 1.112976 2 3 tcp 576 ------- 0 0.0 3.0 13937 44 1 0x10 40 0
+ 1.113304 2 0 ack 40 ------- 0 3.0 0.0 1 32 8041 0x18 40 0
- 1.113304 2 0 ack 40 ------- 0 3.0 0.0 1 32 8041 0x18 40 0
- 1.11816 2 3 tcp 576 ------- 0 0.0 3.0 11257 39 1 0x10 40 0
+ 1.11816 2 3 tcp 576 ------- 0 0.0 3.0 14473 45 1 0x10 40 0
r 1.118344 2 0 ack 40 ------- 0 3.0 0.0 1 32 8041 0x18 40 0
+ 1.118736 2 3 tcp 576 ------- 0 0.0 3.0 15009 46 1 0x10 40 0
d 1.118736 2 3 tcp 576 ------- 0 0.0 3.0 15009 46 1 0x10 40 0
- 1.12392 2 3 tcp 576 ------- 0 0.0 3.0 11793 40 1 0x10 40 0
+ 1.12392 2 3 tcp 576 ------- 0 0.0 3.0 15545 47 1 0x10 40 0
+ 1.124496 2 3 tcp 576 ------- 0 0.0 3.0 16081 48 1 0x10 40 0
d 1.124496 2 3 tcp 576 ------- 0 0.0 3.0 16081 48 1 0x10 40 0
- 1.12968 2 3 tcp 576 ------- 0 0.0 3.0 12329 41 1 0x10 40 0
- 1.13544 2 3 tcp 576 ------- 0 0.0 3.0 12865 42 1 0x10 40 0
- 1.1412 2 3 tcp 576 ------- 0 0.0 3.0 13401 43 1 0x10 40 0
- 1.14696 2 3 tcp 576 ------- 0 0.0 3.0 14473 45 1 0x10 40 0
- 1.15272 2 3 tcp 576 ------- 0 0.0 3.0 15545 47 1 0x10 40 0
r 1.18936 2 3 tcp 576 ------- 0 0.0 3.0 8041 33 1 0x10 40 0
r 1.19512 2 3 tcp 576 ------- 0 0.0 3.0 8577 34 1 0x10 40 0
r 1.20088 2 3 tcp 576 ------- 0 0.0 3.0 9113 35 1 0x10 40 0
r 1.20664 2 3 tcp 576 ------- 0 0.0 3.0 9649 36 1 0x10 40 0
r 1.2124 2 3 tcp 576 ------- 0 0.0 3.0 10185 37 1 0x10 40 0
r 1.21816 2 3 tcp 576 ------- 0 0.0 3.0 10721 38 1 0x10 40 0
r 1.22392 2 3 tcp 576 ------- 0 0.0 3.0 11257 39 1 0x10 40 0
r 1.22968 2 3 tcp 576 ------- 0 0.0 3.0 11793 40 1 0x10 40 0
r 1.23544 2 3 tcp 576 ------- 0 0.0 3.0 12329 41 1 0x10 40 0
r 1.2412 2 3 tcp 576 ------- 0 0.0 3.0 12865 42 1 0x10 40 0
r 1.24696 2 3 tcp 576 ------- 0 0.0 3.0 13401 43 1 0x10 40 0
r 1.25272 2 3 tcp 576 ------- 0 0.0 3.0 14473 45 1 0x10 40 0
r 1.25848 2 3 tcp 576 ------- 0 0.0 3.0 15545 47 1 0x10 40 0
+ 1.28976 2 0 ack 40 ------- 0 3.0 0.0 1 49 8577 0x18 40 0
- 1.28976 2 0 ack 40 ------- 0 3.0 0.0 1 49 8577 0x18 40 0
r 1.2948 2 0 ack 40 ------- 0 3.0 0.0 1 49 8577 0x18 40 0
+ 1.29552 2 0 ack 40 ------- 0 3.0 0.0 1 50 9113 0x18 40 0
- 1.29552 2 0 ack 40 ------- 0 3.0 0.0 1 50 9113 0x18 40 0
+ 1.300376 2 3 tcp 576 ------- 0 0.0 3.0 16617 62 1 0x10 40 0
- 1.300376 2 3 tcp 576 ------- 0 0.0 3.0 16617 62 1 0x10 40 0
r 1.30056 2 0 ack 40 ------- 0 3.0 0.0 1 50 9113 0x18 40 0
+ 1.300952 2 3 tcp 576 ------- 0 0.0 3.0 17153 63 1 0x10 40 0
+ 1.30128 2 0 ack 40 ------- 0 3.0 0.0 1 51 9649 0x18 40 0
- 1.30128 2 0 ack 40 ------- 0 3.0 0.0 1 51 9649 0x18 40 0
- 1.306136 2 3 tcp 576 ------- 0 0.0 3.0 17153 63 1 0x10 40 0
+ 1.306136 2 3 tcp 576 ------- 0 0.0 3.0 17689 64 1 0x10 40 0
r 1.30632 2 0 ack 40 ------- 0 3.0 0.0 1 51 9649 0x18 40 0
+ 1.306712 2 3 tcp 576 ------- 0 0.0 3.0 18225 65 1 0x10 40 0
+ 1.30704 2 0 ack 40 ------- 0 3.0 0.0 1 52 10185 0x18 40 0
- 1.30704 2 0 ack 40 ------- 0 3.0 0.0 1 52 10185 0x18 40 0
- 1.311896 2 3 tcp 576 ------- 0 0.0 3.0 17689 64 1 0x10 40 0
+ 1.311896 2 3 tcp 576 ------- 0 0.0 3.0 18761 66 1 0x10 40 0
r 1.31208 2 0 ack 40 ------- 0 3.0 0.0 1 52 10185 0x18 40 0
+ 1.312472 2 3 tcp 576 ------- 0 0.0 3.0 19297 67 1 0x10 40 0
+ 1.3128 2 0 ack 40 ------- 0 3.0 0.0 1 53 10721 0x18 40 0
- 1.3128 2 0 ack 40 ------- 0 3.0 0.0 1 53 10721 0x18 40 0
- 1.317656 2 3 tcp 576 ------- 0 0.0 3.0 18225 65 1 0x10 40 0
+ 1.317656 2 3 tcp 576 ------- 0 0.0 3.0 19833 68 1 0x10 40 0
r 1.31784 2 0 ack 40 ------- 0 3.0 0.0 1 53 10721 0x18 40 0
+ 1.318232 2 3 tcp 576 ------- 0 0.0 3.0 20369 69 1 0x10 40 0
+ 1.31856 2 0 ack 40 ------- 0 3.0 0.0 1 54 11257 0x18 40 0
- 1.31856 2 0 ack 40 ------- 0 3.0 0.0 1 54 11257 0x18 40 0
- 1.323416 2 3 tcp 576 ------- 0 0.0 3.0 18761 66 1 0x10 40 0
+ 1.323416 2 3 tcp 576 ------- 0 0.0 3.0 20905 70 1 0x10 40 0
r 1.3236 2 0 ack 40 ------- 0 3.0 0.0 1 54 11257 0x18 40 0
+ 1.323992 2 3 tcp 576 ------- 0 0.0 3.0 21441 71 1 0x10 40 0
+ 1.32432 2 0 ack 40 ------- 0 3.0 0.0 1 55 11793 0x18 40 0
- 1.32432 2 0 ack 40 ------- 0 3.0 0.0 1 55 11793 0x18 40 0
- 1.329176 2 3 tcp 576 ------- 0 0.0 3.0 19297 67 1 0x10 40 0
+ 1.329176 2 3 tcp 576 ------- 0 0.0 3.0 21977 72 1 0x10 40 0
r 1.32936 2 0 ack 40 ------- 0 3.0 0.0 1 55 11793 0x18 40 0
+ 1.329752 2 3 tcp 576 ------- 0 0.0 3.0 22513 73 1 0x10 40 0
d 1.329752 2 3 tcp 576 ------- 0 0.0 3.0 22513 73 1 0x10 40 0
+ 1.33008 2 0 ack 40 ------- 0 3.0 0.0 1 56 12329 0x18 40 0
- 1.33008 2 0 ack 40 ------- 0 3.0 0.0 1 56 12329 0x18 40 0
- 1.334936 2 3 tcp 576 ------- 0 0.0 3.0 19833 68 1 0x10 40 0
+ 1.334936 2 3 tcp 576 ------- 0 0.0 3.0 23049 74 1 0x10 40 0
r 1.33512 2 0 ack 40 ------- 0 3.0 0.0 1 56 12329 0x18 40 0
+ 1.335512 2 3 tcp 576 ------- 0 0.0 3.0 23585 75 1 0x10 40 0
d 1.335512 2 3 tcp 576 ------- 0 0.0 3.0 23585 75 1 0x10 40 0
+ 1.33584 2 0 ack 40 ------- 0 3.0 0.0 1 57 12865 0x18 40 0
- 1.33584 2 0 ack 40 ------- 0 3.0 0.0 1 57 12865 0x18 40 0
- 1.340696 2 3 tcp 576 ------- 0 0.0 3.0 20369 69 1 0x10 40 0
+ 1.340696 2 3 tcp 576 ------- 0 0.0 3.0 24121 76 1 0x10 40 0
r 1.34088 2 0 ack 40 ------- 0 3.0 0.0 1 57 12865 0x18 40 0
+ 1.341272 2 3 tcp 576 ------- 0 0.0 3.0 24657 77 1 0x10 40 0
d 1.341272 2 3 tcp 576 ------- 0 0.0 3.0 24657 77 1 0x10 40 0
+ 1.3416 2 0 ack 40 ------- 0 3.0 0.0 1 58 13401 0x18 40 0
- 1.3416 2 0 ack 40 ------- 0 3.0 0.0 1 58 13401 0x18 40 0
- 1.346456 2 3 tcp 576 ------- 0 0.0 3.0 20905 70 1 0x10 40 0
+ 1.346456 2 3 tcp 576 ------- 0 0.0 3.0 25193 78 1 0x10 40 0
r 1.34664 2 0 ack 40 ------- 0 3.0 0.0 1 58 13401 0x18 40 0
+ 1.347032 2 3 tcp 576 ------- 0 0.0 3.0 25729 79 1 0x10 40 0
d 1.347032 2 3 tcp 576 ------- 0 0.0 3.0 25729 79 1 0x10 40 0
+ 1.34736 2 0 ack 40 ------- 0 3.0 0.0 1 59 13937 0x18 40 0
- 1.34736 2 0 ack 40 ------- 0 3.0 0.0 1 59 13937 0x18 40 0
- 1.352216 2 3 tcp 576 ------- 0 0.0 3.0 21441 71 1 0x10 40 0
+ 1.352216 2 3 tcp 576 ------- 0 0.0 3.0 26265 80 1 0x10 40 0
r 1.3524 2 0 ack 40 ------- 0 3.0 0.0 1 59 13937 0x18 40 0
+ 1.352792 2 3 tcp 576 ------- 0 0.0 3.0 26801 81 1 0x10 40 0
d 1.352792 2 3 tcp 576 ------- 0 0.0 3.0 26801 81 1 0x10 40 0
+ 1.35312 2 0 ack 40 ------- 0 3.0 0.0 1 60 13937 0x18 40 0
- 1.35312 2 0 ack 40 ------- 0 3.0 0.0 1 60 13937 0x18 40 0
- 1.357976 2 3 tcp 576 ------- 0 0.0 3.0 21977 72 1 0x10 40 0
+ 1.357976 2 3 tcp 576 ------- 0 0.0 3.0 27337 82 1 0x10 40 0
r 1.35816 2 0 ack 40 ------- 0 3.0 0.0 1 60 13937 0x18 40 0
+ 1.358552 2 3 tcp 576 ------- 0 0.0 3.0 27873 83 1 0x10 40 0
d 1.358552 2 3 tcp 576 ------- 0 0.0 3.0 27873 83 1 0x10 40 0
+ 1.35888 2 0 ack 40 ------- 0 3.0 0.0 1 61 13937 0x18 40 0
- 1.35888 2 0 ack 40 ------- 0 3.0 0.0 1 61 13937 0x18 40 0
- 1.363736 2 3 tcp 576 ------- 0 0.0 3.0 23049 74 1 0x10 40 0
r 1.36392 2 0 ack 40 ------- 0 3.0 0.0 1 61 13937 0x18 40 0
- 1.369496 2 3 tcp 576 ------- 0 0.0 3.0 24121 76 1 0x10 40 0
- 1.375256 2 3 tcp 576 ------- 0 0.0 3.0 25193 78 1 0x10 40 0
- 1.381016 2 3 tcp 576 ------- 0 0.0 3.0 26265 80 1 0x10 40 0
- 1.386776 2 3 tcp 576 ------- 0 0.0 3.0 27337 82 1 0x10 40 0
r 1.406136 2 3 tcp 576 ------- 0 0.0 3.0 16617 62 1 0x10 40 0
r 1.411896 2 3 tcp 576 ------- 0 0.0 3.0 17153 63 1 0x10 40 0
r 1.417656 2 3 tcp 576 ------- 0 0.0 3.0 17689 64 1 0x10 40 0
r 1.423416 2 3 tcp 576 ------- 0 0.0 3.0 18225 65 1 0x10 40 0
r 1.429176 2 3 tcp 576 ------- 0 0.0 3.0 18761 66 1 0x10 40 0
r 1.434936 2 3 tcp 576 ------- 0 0.0 3.0 19297 67 1 0x10 40 0
r 1.440696 2 3 tcp 576 ------- 0 0.0 3.0 19833 68 1 0x10 40 0
r 1.446456 2 3 tcp 576 ------- 0 0.0 3.0 20369 69 1 0x10 40 0
r 1.452216 2 3 tcp 576 ------- 0 0.0 3.0 20905 70 1 0x10 40 0
r 1.457976 2 3 tcp 576 ------- 0 0.0 3.0 21441 71 1 0x10 40 0
r 1.463736 2 3 tcp 576 ------- 0 0.0 3.0 21977 72 1 0x10 40 0
r 1.469496 2 3 tcp 576 ------- 0 0.0 3.0 23049 74 1 0x10 40 0
r 1.475256 2 3 tcp 576 ------- 0 0.0 3.0 24121 76 1 0x10 40 0
r 1.481016 2 3 tcp 576 ------- 0 0.0 3.0 25193 78 1 0x10 40 0
r 1.486776 2 3 tcp 576 ------- 0 0.0 3.0 26265 80 1 0x10 40 0
r 1.492536 2 3 tcp 576 ------- 0 0.0 3.0 27337 82 1 0x10 40 0
+ 1.506536 2 0 ack 40 ------- 0 3.0 0.0 1 84 13937 0x18 40 0
- 1.506536 2 0 ack 40 ------- 0 3.0 0.0 1 84 13937 0x18 40 0
r 1.511576 2 0 ack 40 ------- 0 3.0 0.0 1 84 13937 0x18 40 0
+ 1.512296 2 0 ack 40 ------- 0 3.0 0.0 1 85 13937 0x18 40 0
- 1.512296 2 0 ack 40 ------- 0 3.0 0.0 1 85 13937 0x18 40 0
+ 1.517152 2 3 tcp 576 ------- 0 0.0 3.0 13937 100 1 0x10 40 0
- 1.517152 2 3 tcp 576 ------- 0 0.0 3.0 13937 100 1 0x10 40 0
r 1.517336 2 0 ack 40 ------- 0 3.0 0.0 1 85 13937 0x18 40 0
+ 1.518056 2 0 ack 40 ------- 0 3.0 0.0 1 86 13937 0x18 40 0
- 1.518056 2 0 ack 40 ------- 0 3.0 0.0 1 86 13937 0x18 40 0
r 1.523096 2 0 ack 40 ------- 0 3.0 0.0 1 86 13937 0x18 40 0
+ 1.523816 2 0 ack 40 ------- 0 3.0 0.0 1 87 13937 0x18 40 0
- 1.523816 2 0 ack 40 ------- 0 3.0 0.0 1 87 13937 0x18 40 0
r 1.528856 2 0 ack 40 ------- 0 3.0 0.0 1 87 13937 0x18 40 0
+ 1.529576 2 0 ack 40 ------- 0 3.0 0.0 1 88 13937 0x18 40 0
- 1.529576 2 0 ack 40 ------- 0 3.0 0.0 1 88 13937 0x18 40 0
r 1.534616 2 0 ack 40 ------- 0 3.0 0.0 1 88 13937 0x18 40 0
+ 1.535336 2 0 ack 40 ------- 0 3.0 0.0 1 89 13937 0x18 40 0
- 1.535336 2 0 ack 40 ------- 0 3.0 0.0 1 89 13937 0x18 40 0
r 1.540376 2 0 ack 40 ------- 0 3.0 0.0 1 89 13937 0x18 40 0
+ 1.541096 2 0 ack 40 ------- 0 3.0 0.0 1 90 13937 0x18 40 0
- 1.541096 2 0 ack 40 ------- 0 3.0 0.0 1 90 13937 0x18 40 0
r 1.546136 2 0 ack 40 ------- 0 3.0 0.0 1 90 13937 0x18 40 0
+ 1.546856 2 0 ack 40 ------- 0 3.0 0.0 1 91 13937 0x18 40 0
- 1.546856 2 0 ack 40 ------- 0 3.0 0.0 1 91 13937 0x18 40 0
r 1.551896 2 0 ack 40 ------- 0 3.0 0.0 1 91 13937 0x18 40 0
+ 1.552616 2 0 ack 40 ------- 0 3.0 0.0 1 92 13937 0x18 40 0
- 1.552616 2 0 ack 40 ------- 0 3.0 0.0 1 92 13937 0x18 40 0
r 1.557656 2 0 ack 40 ------- 0 3.0 0.0 1 92 13937 0x18 40 0
+ 1.558376 2 0 ack 40 ------- 0 3.0 0.0 1 93 13937 0x18 40 0
- 1.558376 2 0 ack 40 ------- 0 3.0 0.0 1 93 13937 0x18 40 0
r 1.563416 2 0 ack 40 ------- 0 3.0 0.0 1 93 13937 0x18 40 0
+ 1.564136 2 0 ack 40 ------- 0 3.0 0.0 1 94 13937 0x18 40 0
- 1.564136 2 0 ack 40 ------- 0 3.0 0.0 1 94 13937 0x18 40 0
r 1.569176 2 0 ack 40 ------- 0 3.0 0.0 1 94 13937 0x18 40 0
+ 1.569896 2 0 ack 40 ------- 0 3.0 0.0 1 95 13937 0x18 40 0
- 1.569896 2 0 ack 40 ------- 0 3.0 0.0 1 95 13937 0x18 40 0
r 1.574936 2 0 ack 40 ------- 0 3.0 0.0 1 95 13937 0x18 40 0
+ 1.575656 2 0 ack 40 ------- 0 3.0 0.0 1 96 13937 0x18 40 0
- 1.575656 2 0 ack 40 ------- 0 3.0 0.0 1 96 13937 0x18 40 0
r 1.580696 2 0 ack 40 ------- 0 3.0 0.0 1 96 13937 0x18 40 0
+ 1.581416 2 0 ack 40 ------- 0 3.0 0.0 1 97 13937 0x18 40 0
- 1.581416 2 0 ack 40 ------- 0 3.0 0.0 1 97 13937 0x18 40 0
+ 1.586272 2 3 tcp 576 ---A--- 0 0.0 3.0 28409 101 1 0x90 40 0
- 1.586272 2 3 tcp 576 ---A--- 0 0.0 3.0 28409 101 1 0x90 40 0
r 1.586456 2 0 ack 40 ------- 0 3.0 0.0 1 97 13937 0x18 40 0
+ 1.587176 2 0 ack 40 ------- 0 3.0 0.0 1 98 13937 0x18 40 0
- 1.587176 2 0 ack 40 ------- 0 3.0 0.0 1 98 13937 0x18 40 0
+ 1.592032 2 3 tcp 576 ------- 0 0.0 3.0 28945 102 1 0x10 40 0
- 1.592032 2 3 tcp 576 ------- 0 0.0 3.0 28945 102 1 0x10 40 0
r 1.592216 2 0 ack 40 ------- 0 3.0 0.0 1 98 13937 0x18 40 0
+ 1.592936 2 0 ack 40 ------- 0 3.0 0.0 1 99 13937 0x18 40 0
- 1.592936 2 0 ack 40 ------- 0 3.0 0.0 1 99 13937 0x18 40 0
+ 1.597792 2 3 tcp 576 ------- 0 0.0 3.0 29481 103 1 0x10 40 0
- 1.597792 2 3 tcp 576 ------- 0 0.0 3.0 29481 103 1 0x10 40 0
r 1.597976 2 0 ack 40 ------- 0 3.0 0.0 1 99 13937 0x18 40 0
+ 1.603552 2 3 tcp 576 ------- 0 0.0 3.0 30017 104 1 0x10 40 0
- 1.603552 2 3 tcp 576 ------- 0 0.0 3.0 30017 104 1 0x10 40 0
r 1.622912 2 3 tcp 576 ------- 0 0.0 3.0 13937 100 1 0x10 40 0
r 1.692032 2 3 tcp 576 ---A--- 0 0.0 3.0 28409 101 1 0x90 40 0
r 1.697792 2 3 tcp 576 ------- 0 0.0 3.0 28945 102 1 0x10 40 0
r 1.703552 2 3 tcp 576 ------- 0 0.0 3.0 29481 103 1 0x10 40 0
r 1.709312 2 3 tcp 576 ------- 0 0.0 3.0 30017 104 1 0x10 40 0
+ 1.723312 2 0 ack 40 ------- 0 3.0 0.0 1 105 15009 0x18 40 0
- 1.723312 2 0 ack 40 ------- 0 3.0 0.0 1 105 15009 0x18 40 0
r 1.728352 2 0 ack 40 ------- 0 3.0 0.0 1 105 15009 0x18 40 0
+ 1.792432 2 0 ack 40 ------- 0 3.0 0.0 1 106 15009 0x18 40 0
- 1.792432 2 0 ack 40 ------- 0 3.0 0.0 1 106 15009 0x18 40 0
r 1.797472 2 0 ack 40 ------- 0 3.0 0.0 1 106 15009 0x18 40 0
+ 1.798192 2 0 ack 40 ------- 0 3.0 0.0 1 107 15009 0x18 40 0
- 1.798192 2 0 ack 40 ------- 0 3.0 0.0 1 107 15009 0x18 40 0
r 1.803232 2 0 ack 40 ------- 0 3.0 0.0 1 107 15009 0x18 40 0
+ 1.803952 2 0 ack 40 ------- 0 3.0 0.0 1 108 15009 0x18 40 0
- 1.803952 2 0 ack 40 ------- 0 3.0 0.0 1 108 15009 0x18 40 0
r 1.808992 2 0 ack 40 ------- 0 3.0 0.0 1 108 15009 0x18 40 0
+ 1.809712 2 0 ack 40 ------- 0 3.0 0.0 1 109 15009 0x18 40 0
- 1.809712 2 0 ack 40 ------- 0 3.0 0.0 1 109 15009 0x18 40 0
+ 1.814568 2 3 tcp 576 ------- 0 0.0 3.0 15009 110 1 0x10 40 0
- 1.814568 2 3 tcp 576 ------- 0 0.0 3.0 15009 110 1 0x10 40 0
r 1.814752 2 0 ack 40 ------- 0 3.0 0.0 1 109 15009 0x18 40 0
r 1.920328 2 3 tcp 576 ------- 0 0.0 3.0 15009 110 1 0x10 40 0
+ 2.020728 2 0 ack 40 ------- 0 3.0 0.0 1 111 16081 0x18 40 0
- 2.020728 2 0 ack 40 ------- 0 3.0 0.0 1 111 16081 0x18 40 0
r 2.025768 2 0 ack 40 ------- 0 3.0 0.0 1 111 16081 0x18 40 0
+ 2.531344 2 3 tcp 576 ------- 0 0.0 3.0 16081 112 1 0x10 40 0
- 2.531344 2 3 tcp 576 ------- 0 0.0 3.0 16081 112 1 0x10 40 0
r 2.637104 2 3 tcp 576 ------- 0 0.0 3.0 16081 112 1 0x10 40 0
+ 2.737504 2 0 ack 40 ------- 0 3.0 0.0 1 113 22513 0x18 40 0
- 2.737504 2 0 ack 40 ------- 0 3.0 0.0 1 113 22513 0x18 40 0
r 2.742544 2 0 ack 40 ------- 0 3.0 0.0 1 113 22513 0x18 40 0
+ 2.74812 2 3 tcp 576 ------- 0 0.0 3.0 22513 114 1 0x10 40 0
- 2.74812 2 3 tcp 576 ------- 0 0.0 3.0 22513 114 1 0x10 40 0
+ 2.748696 2 3 tcp 576 ------- 0 0.0 3.0 23049 115 1 0x10 40 0
- 2.75388 2 3 tcp 576 ------- 0 0.0 3.0 23049 115 1 0x10 40 0
r 2.85388 2 3 tcp 576 ------- 0 0.0 3.0 22513 114 1 0x10 40 0
r 2.85964 2 3 tcp 576 ------- 0 0.0 3.0 23049 115 1 0x10 40 0
+ 2.95428 2 0 ack 40 ------- 0 3.0 0.0 1 116 23585 0x18 40 0
- 2.95428 2 0 ack 40 ------- 0 3.0 0.0 1 116 23585 0x18 40 0
r 2.95932 2 0 ack 40 ------- 0 3.0 0.0 1 116 23585 0x18 40 0
+ 2.96004 2 0 ack 40 ------- 0 3.0 0.0 1 117 23585 0x18 40 0
- 2.96004 2 0 ack 40 ------- 0 3.0 0.0 1 117 23585 0x18 40 0
+ 2.964896 2 3 tcp 576 ------- 0 0.0 3.0 23585 118 1 0x10 40 0
- 2.964896 2 3 tcp 576 ------- 0 0.0 3.0 23585 118 1 0x10 40 0
r 2.96508 2 0 ack 40 ------- 0 3.0 0.0 1 117 23585 0x18 40 0
+ 2.965472 2 3 tcp 576 ------- 0 0.0 3.0 24121 119 1 0x10 40 0
+ 2.966048 2 3 tcp 576 ------- 0 0.0 3.0 24657 120 1 0x10 40 0
- 2.970656 2 3 tcp 576 ------- 0 0.0 3.0 24121 119 1 0x10 40 0
- 2.976416 2 3 tcp 576 ------- 0 0.0 3.0 24657 120 1 0x10 40 0
r 3.070656 2 3 tcp 576 ------- 0 0.0 3.0 23585 118 1 0x10 40 0
r 3.076416 2 3 tcp 576 ------- 0 0.0 3.0 24121 119 1 0x10 40 0
r 3.082176 2 3 tcp 576 ------- 0 0.0 3.0 24657 120 1 0x10 40 0
+ 3.171056 2 0 ack 40 ------- 0 3.0 0.0 1 121 24657 0x18 40 0
- 3.171056 2 0 ack 40 ------- 0 3.0 0.0 1 121 24657 0x18 40 0
r 3.176096 2 0 ack 40 ------- 0 3.0 0.0 1 121 24657 0x18 40 0
+ 3.176816 2 0 ack 40 ------- 0 3.0 0.0 1 122 24657 0x18 40 0
- 3.176816 2 0 ack 40 ------- 0 3.0 0.0 1 122 24657 0x18 40 0
+ 3.181672 2 3 tcp 576 ------- 0 0.0 3.0 25193 124 1 0x10 40 0
- 3.181672 2 3 tcp 576 ------- 0 0.0 3.0 25193 124 1 0x10 40 0
r 3.181856 2 0 ack 40 ------- 0 3.0 0.0 1 122 24657 0x18 40 0
+ 3.182248 2 3 tcp 576 ------- 0 0.0 3.0 25729 125 1 0x10 40 0
+ 3.182576 2 0 ack 40 ------- 0 3.0 0.0 1 123 25729 0x18 40 0
- 3.182576 2 0 ack 40 ------- 0 3.0 0.0 1 123 25729 0x18 40 0
- 3.187432 2 3 tcp 576 ------- 0 0.0 3.0 25729 125 1 0x10 40 0
r 3.187616 2 0 ack 40 ------- 0 3.0 0.0 1 123 25729 0x18 40 0
+ 3.193192 2 3 tcp 576 ------- 0 0.0 3.0 26265 126 1 0x10 40 0
- 3.193192 2 3 tcp 576 ------- 0 0.0 3.0 26265 126 1 0x10 40 0
+ 3.193768 2 3 tcp 576 ------- 0 0.0 3.0 26801 127 1 0x10 40 0
- 3.198952 2 3 tcp 576 ------- 0 0.0 3.0 26801 127 1 0x10 40 0
r 3.287432 2 3 tcp 576 ------- 0 0.0 3.0 25193 124 1 0x10 40 0
r 3.293192 2 3 tcp 576 ------- 0 0.0 3.0 25729 125 1 0x10 40 0
r 3.298952 2 3 tcp 576 ------- 0 0.0 3.0 26265 126 1 0x10 40 0
r 3.304712 2 3 tcp 576 ------- 0 0.0 3.0 26801 127 1 0x10 40 0
+ 3.387832 2 0 ack 40 ------- 0 3.0 0.0 1 128 25729 0x18 40 0
- 3.387832 2 0 ack 40 ------- 0 3.0 0.0 1 128 25729 0x18 40 0
r 3.392872 2 0 ack 40 ------- 0 3.0 0.0 1 128 25729 0x18 40 0
+ 3.393592 2 0 ack 40 ------- 0 3.0 0.0 1 129 26801 0x18 40 0
- 3.393592 2 0 ack 40 ------- 0 3.0 0.0 1 129 26801 0x18 40 0
r 3.398632 2 0 ack 40 ------- 0 3.0 0.0 1 129 26801 0x18 40 0
+ 3.399352 2 0 ack 40 ------- 0 3.0 0.0 1 130 26801 0x18 40 0
- 3.399352 2 0 ack 40 ------- 0 3.0 0.0 1 130 26801 0x18 40 0
+ 3.404208 2 3 tcp 576 ------- 0 0.0 3.0 27337 132 1 0x10 40 0
- 3.404208 2 3 tcp 576 ------- 0 0.0 3.0 27337 132 1 0x10 40 0
r 3.404392 2 0 ack 40 ------- 0 3.0 0.0 1 130 26801 0x18 40 0
+ 3.404784 2 3 tcp 576 ------- 0 0.0 3.0 27873 133 1 0x10 40 0
+ 3.405112 2 0 ack 40 ------- 0 3.0 0.0 1 131 27873 0x18 40 0
- 3.405112 2 0 ack 40 ------- 0 3.0 0.0 1 131 27873 0x18 40 0
- 3.409968 2 3 tcp 576 ------- 0 0.0 3.0 27873 133 1 0x10 40 0
r 3.410152 2 0 ack 40 ------- 0 3.0 0.0 1 131 27873 0x18 40 0
+ 3.415728 2 3 tcp 576 ------- 0 0.0 3.0 28409 134 1 0x10 40 0
- 3.415728 2 3 tcp 576 ------- 0 0.0 3.0 28409 134 1 0x10 40 0
+ 3.416304 2 3 tcp 576 ------- 0 0.0 3.0 28945 135 1 0x10 40 0
+ 3.41688 2 3 tcp 576 ------- 0 0.0 3.0 29481 136 1 0x10 40 0
- 3.421488 2 3 tcp 576 ------- 0 0.0 3.0 28945 135 1 0x10 40 0
- 3.427248 2 3 tcp 576 ------- 0 0.0 3.0 29481 136 1 0x10 40 0
r 3.509968 2 3 tcp 576 ------- 0 0.0 3.0 27337 132 1 0x10 40 0
r 3.515728 2 3 tcp 576 ------- 0 0.0 3.0 27873 133 1 0x10 40 0
r 3.521488 2 3 tcp 576 ------- 0 0.0 3.0 28409 134 1 0x10 40 0
r 3.527248 2 3 tcp 576 ------- 0 0.0 3.0 28945 135 1 0x10 40 0
r 3.533008 2 3 tcp 576 ------- 0 0.0 3.0 29481 136 1 0x10 40 0
+ 3.610368 2 0 ack 40 ------- 0 3.0 0.0 1 137 27873 0x18 40 0
- 3.610368 2 0 ack 40 ------- 0 3.0 0.0 1 137 27873 0x18 40 0
r 3.615408 2 0 ack 40 ------- 0 3.0 0.0 1 137 27873 0x18 40 0
+ 3.616128 2 0 ack 40 ------- 0 3.0 0.0 1 138 30553 0x18 40 0
- 3.616128 2 0 ack 40 ------- 0 3.0 0.0 1 138 30553 0x18 40 0
r 3.621168 2 0 ack 40 ------- 0 3.0 0.0 1 138 30553 0x18 40 0
+ 3.621888 2 0 ack 40 ------- 0 3.0 0.0 1 139 30553 0x18 40 0
- 3.621888 2 0 ack 40 ------- 0 3.0 0.0 1 139 30553 0x18 40 0
+ 3.626744 2 3 tcp 576 ---A--- 0 0.0 3.0 30553 142 1 0x90 40 0
- 3.626744 2 3 tcp 576 ---A--- 0 0.0 3.0 30553 142 1 0x90 40 0
r 3.626928 2 0 ack 40 ------- 0 3.0 0.0 1 139 30553 0x18 40 0
+ 3.62732 2 3 tcp 576 ------- 0 0.0 3.0 31089 143 1 0x10 40 0
+ 3.627648 2 0 ack 40 ------- 0 3.0 0.0 1 140 30553 0x18 40 0
- 3.627648 2 0 ack 40 ------- 0 3.0 0.0 1 140 30553 0x18 40 0
+ 3.627896 2 3 tcp 576 ------- 0 0.0 3.0 31625 144 1 0x10 40 0
+ 3.628472 2 3 tcp 576 ------- 0 0.0 3.0 32161 145 1 0x10 40 0
- 3.632504 2 3 tcp 576 ------- 0 0.0 3.0 31089 143 1 0x10 40 0
r 3.632688 2 0 ack 40 ------- 0 3.0 0.0 1 140 30553 0x18 40 0
+ 3.633408 2 0 ack 40 ------- 0 3.0 0.0 1 141 30553 0x18 40 0
- 3.633408 2 0 ack 40 ------- 0 3.0 0.0 1 141 30553 0x18 40 0
- 3.638264 2 3 tcp 576 ------- 0 0.0 3.0 31625 144 1 0x10 40 0
r 3.638448 2 0 ack 40 ------- 0 3.0 0.0 1 141 30553 0x18 40 0
- 3.644024 2 3 tcp 576 ------- 0 0.0 3.0 32161 145 1 0x10 40 0
r 3.732504 2 3 tcp 576 ---A--- 0 0.0 3.0 30553 142 1 0x90 40 0
r 3.738264 2 3 tcp 576 ------- 0 0.0 3.0 31089 143 1 0x10 40 0
r 3.744024 2 3 tcp 576 ------- 0 0.0 3.0 31625 144 1 0x10 40 0
r 3.749784 2 3 tcp 576 ------- 0 0.0 3.0 32161 145 1 0x10 40 0
+ 3.832904 2 0 ack 40 ------- 0 3.0 0.0 1 146 31089 0x18 40 0
- 3.832904 2 0 ack 40 ------- 0 3.0 0.0 1 146 31089 0x18 40 0
r 3.837944 2 0 ack 40 ------- 0 3.0 0.0 1 146 31089 0x18 40 0
+ 3.838664 2 0 ack 40 ------- 0 3.0 0.0 1 147 31625 0x18 40 0
- 3.838664 2 0 ack 40 ------- 0 3.0 0.0 1 147 31625 0x18 40 0
r 3.843704 2 0 ack 40 ------- 0 3.0 0.0 1 147 31625 0x18 40 0
+ 3.844424 2 0 ack 40 ------- 0 3.0 0.0 1 148 32161 0x18 40 0
- 3.844424 2 0 ack 40 ------- 0 3.0 0.0 1 148 32161 0x18 40 0
+ 3.84928 2 3 tcp 576 ------- 0 0.0 3.0 32697 150 1 0x10 40 0
- 3.84928 2 3 tcp 576 ------- 0 0.0 3.0 32697 150 1 0x10 40 0
r 3.849464 2 0 ack 40 ------- 0 3.0 0.0 1 148 32161 0x18 40 0
+ 3.850184 2 0 ack 40 ------- 0 3.0 0.0 1 149 32697 0x18 40 0
- 3.850184 2 0 ack 40 ------- 0 3.0 0.0 1 149 32697 0x18 40 0
+ 3.85504 2 3 tcp 576 ------- 0 0.0 3.0 33233 151 1 0x10 40 0
- 3.85504 2 3 tcp 576 ------- 0 0.0 3.0 33233 151 1 0x10 40 0
r 3.855224 2 0 ack 40 ------- 0 3.0 0.0 1 149 32697 0x18 40 0
+ 3.8608 2 3 tcp 576 ------- 0 0.0 3.0 33769 152 1 0x10 40 0
- 3.8608 2 3 tcp 576 ------- 0 0.0 3.0 33769 152 1 0x10 40 0
+ 3.861376 2 3 tcp 576 ------- 0 0.0 3.0 34305 153 1 0x10 40 0
- 3.86656 2 3 tcp 576 ------- 0 0.0 3.0 34305 153 1 0x10 40 0
r 3.95504 2 3 tcp 576 ------- 0 0.0 3.0 32697 150 1 0x10 40 0
r 3.9608 2 3 tcp 576 ------- 0 0.0 3.0 33233 151 1 0x10 40 0
r 3.96656 2 3 tcp 576 ------- 0 0.0 3.0 33769 152 1 0x10 40 0
r 3.97232 2 3 tcp 576 ------- 0 0.0 3.0 34305 153 1 0x10 40 0
+ 4.05544 2 0 ack 40 ------- 0 3.0 0.0 1 154 33233 0x18 40 0
- 4.05544 2 0 ack 40 ------- 0 3.0 0.0 1 154 33233 0x18 40 0
r 4.06048 2 0 ack 40 ------- 0 3.0 0.0 1 154 33233 0x18 40 0
+ 4.0612 2 0 ack 40 ------- 0 3.0 0.0 1 155 33769 0x18 40 0
- 4.0612 2 0 ack 40 ------- 0 3.0 0.0 1 155 33769 0x18 40 0
+ 4.066056 2 3 tcp 576 ------- 0 0.0 3.0 34841 158 1 0x10 40 0
- 4.066056 2 3 tcp 576 ------- 0 0.0 3.0 34841 158 1 0x10 40 0
r 4.06624 2 0 ack 40 ------- 0 3.0 0.0 1 155 33769 0x18 40 0
+ 4.06696 2 0 ack 40 ------- 0 3.0 0.0 1 156 34305 0x18 40 0
- 4.06696 2 0 ack 40 ------- 0 3.0 0.0 1 156 34305 0x18 40 0
+ 4.071816 2 3 tcp 576 ------- 0 0.0 3.0 35377 159 1 0x10 40 0
- 4.071816 2 3 tcp 576 ------- 0 0.0 3.0 35377 159 1 0x10 40 0
r 4.072 2 0 ack 40 ------- 0 3.0 0.0 1 156 34305 0x18 40 0
+ 4.07272 2 0 ack 40 ------- 0 3.0 0.0 1 157 34841 0x18 40 0
- 4.07272 2 0 ack 40 ------- 0 3.0 0.0 1 157 34841 0x18 40 0
+ 4.077576 2 3 tcp 576 ------- 0 0.0 3.0 35913 160 1 0x10 40 0
- 4.077576 2 3 tcp 576 ------- 0 0.0 3.0 35913 160 1 0x10 40 0
r 4.07776 2 0 ack 40 ------- 0 3.0 0.0 1 157 34841 0x18 40 0
+ 4.083336 2 3 tcp 576 ------- 0 0.0 3.0 36449 161 1 0x10 40 0
- 4.083336 2 3 tcp 576 ------- 0 0.0 3.0 36449 161 1 0x10 40 0
+ 4.083912 2 3 tcp 576 ------- 0 0.0 3.0 36985 162 1 0x10 40 0
- 4.089096 2 3 tcp 576 ------- 0 0.0 3.0 36985 162 1 0x10 40 0
r 4.171816 2 3 tcp 576 ------- 0 0.0 3.0 34841 158 1 0x10 40 0
r 4.177576 2 3 tcp 576 ------- 0 0.0 3.0 35377 159 1 0x10 40 0
r 4.183336 2 3 tcp 576 ------- 0 0.0 3.0 35913 160 1 0x10 40 0
r 4.189096 2 3 tcp 576 ------- 0 0.0 3.0 36449 161 1 0x10 40 0
r 4.194856 2 3 tcp 576 ------- 0 0.0 3.0 36985 162 1 0x10 40 0
+ 4.272216 2 0 ack 40 ------- 0 3.0 0.0 1 163 35377 0x18 40 0
- 4.272216 2 0 ack 40 ------- 0 3.0 0.0 1 163 35377 0x18 40 0
r 4.277256 2 0 ack 40 ------- 0 3.0 0.0 1 163 35377 0x18 40 0
+ 4.277976 2 0 ack 40 ------- 0 3.0 0.0 1 164 35913 0x18 40 0
- 4.277976 2 0 ack 40 ------- 0 3.0 0.0 1 164 35913 0x18 40 0
+ 4.282832 2 3 tcp 576 ------- 0 0.0 3.0 37521 168 1 0x10 40 0
- 4.282832 2 3 tcp 576 ------- 0 0.0 3.0 37521 168 1 0x10 40 0
r 4.283016 2 0 ack 40 ------- 0 3.0 0.0 1 164 35913 0x18 40 0
+ 4.283736 2 0 ack 40 ------- 0 3.0 0.0 1 165 36449 0x18 40 0