v testName iw=4
+ 0.00504 2 3 tcp 40 ------- 0 0.0 3.0 0 0 -1 0xa 40 0
- 0.00504 2 3 tcp 40 ------- 0 0.0 3.0 0 0 -1 0xa 40 0
r 0.10544 2 3 tcp 40 ------- 0 0.0 3.0 0 0 -1 0xa 40 0
+ 0.20584 2 0 ack 40 ------- 0 3.0 0.0 0 1 1 0x1a 40 0
- 0.20584 2 0 ack 40 ------- 0 3.0 0.0 0 1 1 0x1a 40 0
r 0.21088 2 0 ack 40 ------- 0 3.0 0.0 0 1 1 0x1a 40 0
+ 0.21592 2 3 tcp 40 ------- 0 0.0 3.0 1 2 1 0x10 40 0
- 0.21592 2 3 tcp 40 ------- 0 0.0 3.0 1 2 1 0x10 40 0
+ 0.216496 2 3 tcp 576 ------- 0 0.0 3.0 1 3 1 0x10 40 0
- 0.216496 2 3 tcp 576 ------- 0 0.0 3.0 1 3 1 0x10 40 0
+ 0.217072 2 3 tcp 576 ------- 0 0.0 3.0 537 4 1 0x10 40 0
+ 0.217648 2 3 tcp 576 ------- 0 0.0 3.0 1073 5 1 0x10 40 0
+ 0.218224 2 3 tcp 576 ------- 0 0.0 3.0 1609 6 1 0x10 40 0
- 0.222256 2 3 tcp 576 ------- 0 0.0 3.0 537 4 1 0x10 40 0
- 0.228016 2 3 tcp 576 ------- 0 0.0 3.0 1073 5 1 0x10 40 0
- 0.233776 2 3 tcp 576 ------- 0 0.0 3.0 1609 6 1 0x10 40 0
r 0.31632 2 3 tcp 40 ------- 0 0.0 3.0 1 2 1 0x10 40 0
r 0.322256 2 3 tcp 576 ------- 0 0.0 3.0 1 3 1 0x10 40 0
r 0.328016 2 3 tcp 576 ------- 0 0.0 3.0 537 4 1 0x10 40 0
r 0.333776 2 3 tcp 576 ------- 0 0.0 3.0 1073 5 1 0x10 40 0
r 0.339536 2 3 tcp 576 ------- 0 0.0 3.0 1609 6 1 0x10 40 0
+ 0.422656 2 0 ack 40 ------- 0 3.0 0.0 1 7 537 0x18 40 0
- 0.422656 2 0 ack 40 ------- 0 3.0 0.0 1 7 537 0x18 40 0
r 0.427696 2 0 ack 40 ------- 0 3.0 0.0 1 7 537 0x18 40 0
+ 0.428416 2 0 ack 40 ------- 0 3.0 0.0 1 8 1073 0x18 40 0
- 0.428416 2 0 ack 40 ------- 0 3.0 0.0 1 8 1073 0x18 40 0
+ 0.433272 2 3 tcp 576 ------- 0 0.0 3.0 2145 11 1 0x10 40 0
- 0.433272 2 3 tcp 576 ------- 0 0.0 3.0 2145 11 1 0x10 40 0
r 0.433456 2 0 ack 40 ------- 0 3.0 0.0 1 8 1073 0x18 40 0
+ 0.433848 2 3 tcp 576 ------- 0 0.0 3.0 2681 12 1 0x10 40 0
+ 0.434176 2 0 ack 40 ------- 0 3.0 0.0 1 9 1609 0x18 40 0
- 0.434176 2 0 ack 40 ------- 0 3.0 0.0 1 9 1609 0x18 40 0
- 0.439032 2 3 tcp 576 ------- 0 0.0 3.0 2681 12 1 0x10 40 0
+ 0.439032 2 3 tcp 576 ------- 0 0.0 3.0 3217 13 1 0x10 40 0
r 0.439216 2 0 ack 40 ------- 0 3.0 0.0 1 9 1609 0x18 40 0
+ 0.439608 2 3 tcp 576 ------- 0 0.0 3.0 3753 14 1 0x10 40 0
+ 0.439936 2 0 ack 40 ------- 0 3.0 0.0 1 10 2145 0x18 40 0
- 0.439936 2 0 ack 40 ------- 0 3.0 0.0 1 10 2145 0x18 40 0
- 0.444792 2 3 tcp 576 ------- 0 0.0 3.0 3217 13 1 0x10 40 0
+ 0.444792 2 3 tcp 576 ------- 0 0.0 3.0 4289 15 1 0x10 40 0
r 0.444976 2 0 ack 40 ------- 0 3.0 0.0 1 10 2145 0x18 40 0
+ 0.445368 2 3 tcp 576 ------- 0 0.0 3.0 4825 16 1 0x10 40 0
- 0.450552 2 3 tcp 576 ------- 0 0.0 3.0 3753 14 1 0x10 40 0
+ 0.450552 2 3 tcp 576 ------- 0 0.0 3.0 5361 17 1 0x10 40 0
+ 0.451128 2 3 tcp 576 ------- 0 0.0 3.0 5897 18 1 0x10 40 0
- 0.456312 2 3 tcp 576 ------- 0 0.0 3.0 4289 15 1 0x10 40 0
- 0.462072 2 3 tcp 576 ------- 0 0.0 3.0 4825 16 1 0x10 40 0
- 0.467832 2 3 tcp 576 ------- 0 0.0 3.0 5361 17 1 0x10 40 0
- 0.473592 2 3 tcp 576 ------- 0 0.0 3.0 5897 18 1 0x10 40 0
r 0.539032 2 3 tcp 576 ------- 0 0.0 3.0 2145 11 1 0x10 40 0
r 0.544792 2 3 tcp 576 ------- 0 0.0 3.0 2681 12 1 0x10 40 0
r 0.550552 2 3 tcp 576 ------- 0 0.0 3.0 3217 13 1 0x10 40 0
r 0.556312 2 3 tcp 576 ------- 0 0.0 3.0 3753 14 1 0x10 40 0
r 0.562072 2 3 tcp 576 ------- 0 0.0 3.0 4289 15 1 0x10 40 0
r 0.567832 2 3 tcp 576 ------- 0 0.0 3.0 4825 16 1 0x10 40 0
r 0.573592 2 3 tcp 576 ------- 0 0.0 3.0 5361 17 1 0x10 40 0
r 0.579352 2 3 tcp 576 ------- 0 0.0 3.0 5897 18 1 0x10 40 0
+ 0.639432 2 0 ack 40 ------- 0 3.0 0.0 1 19 2681 0x18 40 0
- 0.639432 2 0 ack 40 ------- 0 3.0 0.0 1 19 2681 0x18 40 0
r 0.644472 2 0 ack 40 ------- 0 3.0 0.0 1 19 2681 0x18 40 0
+ 0.645192 2 0 ack 40 ------- 0 3.0 0.0 1 20 3217 0x18 40 0
- 0.645192 2 0 ack 40 ------- 0 3.0 0.0 1 20 3217 0x18 40 0
+ 0.650048 2 3 tcp 576 ------- 0 0.0 3.0 6433 27 1 0x10 40 0
- 0.650048 2 3 tcp 576 ------- 0 0.0 3.0 6433 27 1 0x10 40 0
r 0.650232 2 0 ack 40 ------- 0 3.0 0.0 1 20 3217 0x18 40 0
+ 0.650624 2 3 tcp 576 ------- 0 0.0 3.0 6969 28 1 0x10 40 0
+ 0.650952 2 0 ack 40 ------- 0 3.0 0.0 1 21 3753 0x18 40 0
- 0.650952 2 0 ack 40 ------- 0 3.0 0.0 1 21 3753 0x18 40 0
- 0.655808 2 3 tcp 576 ------- 0 0.0 3.0 6969 28 1 0x10 40 0
+ 0.655808 2 3 tcp 576 ------- 0 0.0 3.0 7505 29 1 0x10 40 0
r 0.655992 2 0 ack 40 ------- 0 3.0 0.0 1 21 3753 0x18 40 0
+ 0.656384 2 3 tcp 576 ------- 0 0.0 3.0 8041 30 1 0x10 40 0
+ 0.656712 2 0 ack 40 ------- 0 3.0 0.0 1 22 4289 0x18 40 0
- 0.656712 2 0 ack 40 ------- 0 3.0 0.0 1 22 4289 0x18 40 0
- 0.661568 2 3 tcp 576 ------- 0 0.0 3.0 7505 29 1 0x10 40 0
+ 0.661568 2 3 tcp 576 ------- 0 0.0 3.0 8577 31 1 0x10 40 0
r 0.661752 2 0 ack 40 ------- 0 3.0 0.0 1 22 4289 0x18 40 0
+ 0.662144 2 3 tcp 576 ------- 0 0.0 3.0 9113 32 1 0x10 40 0
+ 0.662472 2 0 ack 40 ------- 0 3.0 0.0 1 23 4825 0x18 40 0
- 0.662472 2 0 ack 40 ------- 0 3.0 0.0 1 23 4825 0x18 40 0
- 0.667328 2 3 tcp 576 ------- 0 0.0 3.0 8041 30 1 0x10 40 0
+ 0.667328 2 3 tcp 576 ------- 0 0.0 3.0 9649 33 1 0x10 40 0
r 0.667512 2 0 ack 40 ------- 0 3.0 0.0 1 23 4825 0x18 40 0
+ 0.667904 2 3 tcp 576 ------- 0 0.0 3.0 10185 34 1 0x10 40 0
+ 0.668232 2 0 ack 40 ------- 0 3.0 0.0 1 24 5361 0x18 40 0
- 0.668232 2 0 ack 40 ------- 0 3.0 0.0 1 24 5361 0x18 40 0
- 0.673088 2 3 tcp 576 ------- 0 0.0 3.0 8577 31 1 0x10 40 0
+ 0.673088 2 3 tcp 576 ------- 0 0.0 3.0 10721 35 1 0x10 40 0
r 0.673272 2 0 ack 40 ------- 0 3.0 0.0 1 24 5361 0x18 40 0
+ 0.673664 2 3 tcp 576 ------- 0 0.0 3.0 11257 36 1 0x10 40 0
+ 0.673992 2 0 ack 40 ------- 0 3.0 0.0 1 25 5897 0x18 40 0
- 0.673992 2 0 ack 40 ------- 0 3.0 0.0 1 25 5897 0x18 40 0
- 0.678848 2 3 tcp 576 ------- 0 0.0 3.0 9113 32 1 0x10 40 0
+ 0.678848 2 3 tcp 576 ------- 0 0.0 3.0 11793 37 1 0x10 40 0
r 0.679032 2 0 ack 40 ------- 0 3.0 0.0 1 25 5897 0x18 40 0
+ 0.679424 2 3 tcp 576 ------- 0 0.0 3.0 12329 38 1 0x10 40 0
d 0.679424 2 3 tcp 576 ------- 0 0.0 3.0 12329 38 1 0x10 40 0
+ 0.679752 2 0 ack 40 ------- 0 3.0 0.0 1 26 6433 0x18 40 0
- 0.679752 2 0 ack 40 ------- 0 3.0 0.0 1 26 6433 0x18 40 0
- 0.684608 2 3 tcp 576 ------- 0 0.0 3.0 9649 33 1 0x10 40 0
+ 0.684608 2 3 tcp 576 ------- 0 0.0 3.0 12865 39 1 0x10 40 0
r 0.684792 2 0 ack 40 ------- 0 3.0 0.0 1 26 6433 0x18 40 0
+ 0.685184 2 3 tcp 576 ------- 0 0.0 3.0 13401 40 1 0x10 40 0
d 0.685184 2 3 tcp 576 ------- 0 0.0 3.0 13401 40 1 0x10 40 0
- 0.690368 2 3 tcp 576 ------- 0 0.0 3.0 10185 34 1 0x10 40 0
+ 0.690368 2 3 tcp 576 ------- 0 0.0 3.0 13937 41 1 0x10 40 0
+ 0.690944 2 3 tcp 576 ------- 0 0.0 3.0 14473 42 1 0x10 40 0
d 0.690944 2 3 tcp 576 ------- 0 0.0 3.0 14473 42 1 0x10 40 0
- 0.696128 2 3 tcp 576 ------- 0 0.0 3.0 10721 35 1 0x10 40 0
- 0.701888 2 3 tcp 576 ------- 0 0.0 3.0 11257 36 1 0x10 40 0
- 0.707648 2 3 tcp 576 ------- 0 0.0 3.0 11793 37 1 0x10 40 0
- 0.713408 2 3 tcp 576 ------- 0 0.0 3.0 12865 39 1 0x10 40 0
- 0.719168 2 3 tcp 576 ------- 0 0.0 3.0 13937 41 1 0x10 40 0
r 0.755808 2 3 tcp 576 ------- 0 0.0 3.0 6433 27 1 0x10 40 0
r 0.761568 2 3 tcp 576 ------- 0 0.0 3.0 6969 28 1 0x10 40 0
r 0.767328 2 3 tcp 576 ------- 0 0.0 3.0 7505 29 1 0x10 40 0
r 0.773088 2 3 tcp 576 ------- 0 0.0 3.0 8041 30 1 0x10 40 0
r 0.778848 2 3 tcp 576 ------- 0 0.0 3.0 8577 31 1 0x10 40 0
r 0.784608 2 3 tcp 576 ------- 0 0.0 3.0 9113 32 1 0x10 40 0
r 0.790368 2 3 tcp 576 ------- 0 0.0 3.0 9649 33 1 0x10 40 0
r 0.796128 2 3 tcp 576 ------- 0 0.0 3.0 10185 34 1 0x10 40 0
r 0.801888 2 3 tcp 576 ------- 0 0.0 3.0 10721 35 1 0x10 40 0
r 0.807648 2 3 tcp 576 ------- 0 0.0 3.0 11257 36 1 0x10 40 0
r 0.813408 2 3 tcp 576 ------- 0 0.0 3.0 11793 37 1 0x10 40 0
r 0.819168 2 3 tcp 576 ------- 0 0.0 3.0 12865 39 1 0x10 40 0
r 0.824928 2 3 tcp 576 ------- 0 0.0 3.0 13937 41 1 0x10 40 0
+ 0.856208 2 0 ack 40 ------- 0 3.0 0.0 1 43 6969 0x18 40 0
- 0.856208 2 0 ack 40 ------- 0 3.0 0.0 1 43 6969 0x18 40 0
r 0.861248 2 0 ack 40 ------- 0 3.0 0.0 1 43 6969 0x18 40 0
+ 0.861968 2 0 ack 40 ------- 0 3.0 0.0 1 44 7505 0x18 40 0
- 0.861968 2 0 ack 40 ------- 0 3.0 0.0 1 44 7505 0x18 40 0
+ 0.866824 2 3 tcp 576 ------- 0 0.0 3.0 15009 56 1 0x10 40 0
- 0.866824 2 3 tcp 576 ------- 0 0.0 3.0 15009 56 1 0x10 40 0
r 0.867008 2 0 ack 40 ------- 0 3.0 0.0 1 44 7505 0x18 40 0
+ 0.8674 2 3 tcp 576 ------- 0 0.0 3.0 15545 57 1 0x10 40 0
+ 0.867728 2 0 ack 40 ------- 0 3.0 0.0 1 45 8041 0x18 40 0
- 0.867728 2 0 ack 40 ------- 0 3.0 0.0 1 45 8041 0x18 40 0
- 0.872584 2 3 tcp 576 ------- 0 0.0 3.0 15545 57 1 0x10 40 0
+ 0.872584 2 3 tcp 576 ------- 0 0.0 3.0 16081 58 1 0x10 40 0
r 0.872768 2 0 ack 40 ------- 0 3.0 0.0 1 45 8041 0x18 40 0
+ 0.87316 2 3 tcp 576 ------- 0 0.0 3.0 16617 59 1 0x10 40 0
+ 0.873488 2 0 ack 40 ------- 0 3.0 0.0 1 46 8577 0x18 40 0
- 0.873488 2 0 ack 40 ------- 0 3.0 0.0 1 46 8577 0x18 40 0
- 0.878344 2 3 tcp 576 ------- 0 0.0 3.0 16081 58 1 0x10 40 0
+ 0.878344 2 3 tcp 576 ------- 0 0.0 3.0 17153 60 1 0x10 40 0
r 0.878528 2 0 ack 40 ------- 0 3.0 0.0 1 46 8577 0x18 40 0
+ 0.87892 2 3 tcp 576 ------- 0 0.0 3.0 17689 61 1 0x10 40 0
+ 0.879248 2 0 ack 40 ------- 0 3.0 0.0 1 47 9113 0x18 40 0
- 0.879248 2 0 ack 40 ------- 0 3.0 0.0 1 47 9113 0x18 40 0
- 0.884104 2 3 tcp 576 ------- 0 0.0 3.0 16617 59 1 0x10 40 0
+ 0.884104 2 3 tcp 576 ------- 0 0.0 3.0 18225 62 1 0x10 40 0
r 0.884288 2 0 ack 40 ------- 0 3.0 0.0 1 47 9113 0x18 40 0
+ 0.88468 2 3 tcp 576 ------- 0 0.0 3.0 18761 63 1 0x10 40 0
+ 0.885008 2 0 ack 40 ------- 0 3.0 0.0 1 48 9649 0x18 40 0
- 0.885008 2 0 ack 40 ------- 0 3.0 0.0 1 48 9649 0x18 40 0
- 0.889864 2 3 tcp 576 ------- 0 0.0 3.0 17153 60 1 0x10 40 0
+ 0.889864 2 3 tcp 576 ------- 0 0.0 3.0 19297 64 1 0x10 40 0
r 0.890048 2 0 ack 40 ------- 0 3.0 0.0 1 48 9649 0x18 40 0
+ 0.89044 2 3 tcp 576 ------- 0 0.0 3.0 19833 65 1 0x10 40 0
+ 0.890768 2 0 ack 40 ------- 0 3.0 0.0 1 49 10185 0x18 40 0
- 0.890768 2 0 ack 40 ------- 0 3.0 0.0 1 49 10185 0x18 40 0
- 0.895624 2 3 tcp 576 ------- 0 0.0 3.0 17689 61 1 0x10 40 0
+ 0.895624 2 3 tcp 576 ------- 0 0.0 3.0 20369 66 1 0x10 40 0
r 0.895808 2 0 ack 40 ------- 0 3.0 0.0 1 49 10185 0x18 40 0
+ 0.8962 2 3 tcp 576 ------- 0 0.0 3.0 20905 67 1 0x10 40 0
d 0.8962 2 3 tcp 576 ------- 0 0.0 3.0 20905 67 1 0x10 40 0
+ 0.896528 2 0 ack 40 ------- 0 3.0 0.0 1 50 10721 0x18 40 0
- 0.896528 2 0 ack 40 ------- 0 3.0 0.0 1 50 10721 0x18 40 0
- 0.901384 2 3 tcp 576 ------- 0 0.0 3.0 18225 62 1 0x10 40 0
+ 0.901384 2 3 tcp 576 ------- 0 0.0 3.0 21441 68 1 0x10 40 0
r 0.901568 2 0 ack 40 ------- 0 3.0 0.0 1 50 10721 0x18 40 0
+ 0.90196 2 3 tcp 576 ------- 0 0.0 3.0 21977 69 1 0x10 40 0
d 0.90196 2 3 tcp 576 ------- 0 0.0 3.0 21977 69 1 0x10 40 0
+ 0.902288 2 0 ack 40 ------- 0 3.0 0.0 1 51 11257 0x18 40 0
- 0.902288 2 0 ack 40 ------- 0 3.0 0.0 1 51 11257 0x18 40 0
- 0.907144 2 3 tcp 576 ------- 0 0.0 3.0 18761 63 1 0x10 40 0
+ 0.907144 2 3 tcp 576 ------- 0 0.0 3.0 22513 70 1 0x10 40 0
r 0.907328 2 0 ack 40 ------- 0 3.0 0.0 1 51 11257 0x18 40 0
+ 0.90772 2 3 tcp 576 ------- 0 0.0 3.0 23049 71 1 0x10 40 0
d 0.90772 2 3 tcp 576 ------- 0 0.0 3.0 23049 71 1 0x10 40 0
+ 0.908048 2 0 ack 40 ------- 0 3.0 0.0 1 52 11793 0x18 40 0
- 0.908048 2 0 ack 40 ------- 0 3.0 0.0 1 52 11793 0x18 40 0
- 0.912904 2 3 tcp 576 ------- 0 0.0 3.0 19297 64 1 0x10 40 0
+ 0.912904 2 3 tcp 576 ------- 0 0.0 3.0 23585 72 1 0x10 40 0
r 0.913088 2 0 ack 40 ------- 0 3.0 0.0 1 52 11793 0x18 40 0
+ 0.91348 2 3 tcp 576 ------- 0 0.0 3.0 24121 73 1 0x10 40 0
d 0.91348 2 3 tcp 576 ------- 0 0.0 3.0 24121 73 1 0x10 40 0
+ 0.913808 2 0 ack 40 ------- 0 3.0 0.0 1 53 12329 0x18 40 0
- 0.913808 2 0 ack 40 ------- 0 3.0 0.0 1 53 12329 0x18 40 0
- 0.918664 2 3 tcp 576 ------- 0 0.0 3.0 19833 65 1 0x10 40 0
+ 0.918664 2 3 tcp 576 ------- 0 0.0 3.0 24657 74 1 0x10 40 0
r 0.918848 2 0 ack 40 ------- 0 3.0 0.0 1 53 12329 0x18 40 0
+ 0.91924 2 3 tcp 576 ------- 0 0.0 3.0 25193 75 1 0x10 40 0
d 0.91924 2 3 tcp 576 ------- 0 0.0 3.0 25193 75 1 0x10 40 0
+ 0.919568 2 0 ack 40 ------- 0 3.0 0.0 1 54 12329 0x18 40 0
- 0.919568 2 0 ack 40 ------- 0 3.0 0.0 1 54 12329 0x18 40 0
- 0.924424 2 3 tcp 576 ------- 0 0.0 3.0 20369 66 1 0x10 40 0
+ 0.924424 2 3 tcp 576 ------- 0 0.0 3.0 25729 76 1 0x10 40 0
r 0.924608 2 0 ack 40 ------- 0 3.0 0.0 1 54 12329 0x18 40 0
+ 0.925 2 3 tcp 576 ------- 0 0.0 3.0 26265 77 1 0x10 40 0
d 0.925 2 3 tcp 576 ------- 0 0.0 3.0 26265 77 1 0x10 40 0
+ 0.925328 2 0 ack 40 ------- 0 3.0 0.0 1 55 12329 0x18 40 0
- 0.925328 2 0 ack 40 ------- 0 3.0 0.0 1 55 12329 0x18 40 0
- 0.930184 2 3 tcp 576 ------- 0 0.0 3.0 21441 68 1 0x10 40 0
r 0.930368 2 0 ack 40 ------- 0 3.0 0.0 1 55 12329 0x18 40 0
- 0.935944 2 3 tcp 576 ------- 0 0.0 3.0 22513 70 1 0x10 40 0
- 0.941704 2 3 tcp 576 ------- 0 0.0 3.0 23585 72 1 0x10 40 0
- 0.947464 2 3 tcp 576 ------- 0 0.0 3.0 24657 74 1 0x10 40 0
- 0.953224 2 3 tcp 576 ------- 0 0.0 3.0 25729 76 1 0x10 40 0
r 0.972584 2 3 tcp 576 ------- 0 0.0 3.0 15009 56 1 0x10 40 0
r 0.978344 2 3 tcp 576 ------- 0 0.0 3.0 15545 57 1 0x10 40 0
r 0.984104 2 3 tcp 576 ------- 0 0.0 3.0 16081 58 1 0x10 40 0
r 0.989864 2 3 tcp 576 ------- 0 0.0 3.0 16617 59 1 0x10 40 0
r 0.995624 2 3 tcp 576 ------- 0 0.0 3.0 17153 60 1 0x10 40 0
r 1.001384 2 3 tcp 576 ------- 0 0.0 3.0 17689 61 1 0x10 40 0
r 1.007144 2 3 tcp 576 ------- 0 0.0 3.0 18225 62 1 0x10 40 0
r 1.012904 2 3 tcp 576 ------- 0 0.0 3.0 18761 63 1 0x10 40 0
r 1.018664 2 3 tcp 576 ------- 0 0.0 3.0 19297 64 1 0x10 40 0
r 1.024424 2 3 tcp 576 ------- 0 0.0 3.0 19833 65 1 0x10 40 0
r 1.030184 2 3 tcp 576 ------- 0 0.0 3.0 20369 66 1 0x10 40 0
r 1.035944 2 3 tcp 576 ------- 0 0.0 3.0 21441 68 1 0x10 40 0
r 1.041704 2 3 tcp 576 ------- 0 0.0 3.0 22513 70 1 0x10 40 0
r 1.047464 2 3 tcp 576 ------- 0 0.0 3.0 23585 72 1 0x10 40 0
r 1.053224 2 3 tcp 576 ------- 0 0.0 3.0 24657 74 1 0x10 40 0
r 1.058984 2 3 tcp 576 ------- 0 0.0 3.0 25729 76 1 0x10 40 0
+ 1.072984 2 0 ack 40 ------- 0 3.0 0.0 1 78 12329 0x18 40 0
- 1.072984 2 0 ack 40 ------- 0 3.0 0.0 1 78 12329 0x18 40 0
r 1.078024 2 0 ack 40 ------- 0 3.0 0.0 1 78 12329 0x18 40 0
+ 1.078744 2 0 ack 40 ------- 0 3.0 0.0 1 79 12329 0x18 40 0
- 1.078744 2 0 ack 40 ------- 0 3.0 0.0 1 79 12329 0x18 40 0
+ 1.0836 2 3 tcp 576 ------- 0 0.0 3.0 12329 94 1 0x10 40 0
- 1.0836 2 3 tcp 576 ------- 0 0.0 3.0 12329 94 1 0x10 40 0
r 1.083784 2 0 ack 40 ------- 0 3.0 0.0 1 79 12329 0x18 40 0
+ 1.084504 2 0 ack 40 ------- 0 3.0 0.0 1 80 12329 0x18 40 0
- 1.084504 2 0 ack 40 ------- 0 3.0 0.0 1 80 12329 0x18 40 0
r 1.089544 2 0 ack 40 ------- 0 3.0 0.0 1 80 12329 0x18 40 0
+ 1.090264 2 0 ack 40 ------- 0 3.0 0.0 1 81 12329 0x18 40 0
- 1.090264 2 0 ack 40 ------- 0 3.0 0.0 1 81 12329 0x18 40 0
r 1.095304 2 0 ack 40 ------- 0 3.0 0.0 1 81 12329 0x18 40 0
+ 1.096024 2 0 ack 40 ------- 0 3.0 0.0 1 82 12329 0x18 40 0
- 1.096024 2 0 ack 40 ------- 0 3.0 0.0 1 82 12329 0x18 40 0
r 1.101064 2 0 ack 40 ------- 0 3.0 0.0 1 82 12329 0x18 40 0
+ 1.101784 2 0 ack 40 ------- 0 3.0 0.0 1 83 12329 0x18 40 0
- 1.101784 2 0 ack 40 ------- 0 3.0 0.0 1 83 12329 0x18 40 0
r 1.106824 2 0 ack 40 ------- 0 3.0 0.0 1 83 12329 0x18 40 0
+ 1.107544 2 0 ack 40 ------- 0 3.0 0.0 1 84 12329 0x18 40 0
- 1.107544 2 0 ack 40 ------- 0 3.0 0.0 1 84 12329 0x18 40 0
r 1.112584 2 0 ack 40 ------- 0 3.0 0.0 1 84 12329 0x18 40 0
+ 1.113304 2 0 ack 40 ------- 0 3.0 0.0 1 85 12329 0x18 40 0
- 1.113304 2 0 ack 40 ------- 0 3.0 0.0 1 85 12329 0x18 40 0
r 1.118344 2 0 ack 40 ------- 0 3.0 0.0 1 85 12329 0x18 40 0
+ 1.119064 2 0 ack 40 ------- 0 3.0 0.0 1 86 12329 0x18 40 0
- 1.119064 2 0 ack 40 ------- 0 3.0 0.0 1 86 12329 0x18 40 0
r 1.124104 2 0 ack 40 ------- 0 3.0 0.0 1 86 12329 0x18 40 0
+ 1.124824 2 0 ack 40 ------- 0 3.0 0.0 1 87 12329 0x18 40 0
- 1.124824 2 0 ack 40 ------- 0 3.0 0.0 1 87 12329 0x18 40 0
r 1.129864 2 0 ack 40 ------- 0 3.0 0.0 1 87 12329 0x18 40 0
+ 1.130584 2 0 ack 40 ------- 0 3.0 0.0 1 88 12329 0x18 40 0
- 1.130584 2 0 ack 40 ------- 0 3.0 0.0 1 88 12329 0x18 40 0
r 1.135624 2 0 ack 40 ------- 0 3.0 0.0 1 88 12329 0x18 40 0
+ 1.136344 2 0 ack 40 ------- 0 3.0 0.0 1 89 12329 0x18 40 0
- 1.136344 2 0 ack 40 ------- 0 3.0 0.0 1 89 12329 0x18 40 0
r 1.141384 2 0 ack 40 ------- 0 3.0 0.0 1 89 12329 0x18 40 0
+ 1.142104 2 0 ack 40 ------- 0 3.0 0.0 1 90 12329 0x18 40 0
- 1.142104 2 0 ack 40 ------- 0 3.0 0.0 1 90 12329 0x18 40 0
r 1.147144 2 0 ack 40 ------- 0 3.0 0.0 1 90 12329 0x18 40 0
+ 1.147864 2 0 ack 40 ------- 0 3.0 0.0 1 91 12329 0x18 40 0
- 1.147864 2 0 ack 40 ------- 0 3.0 0.0 1 91 12329 0x18 40 0
+ 1.15272 2 3 tcp 576 ---A--- 0 0.0 3.0 26801 95 1 0x90 40 0
- 1.15272 2 3 tcp 576 ---A--- 0 0.0 3.0 26801 95 1 0x90 40 0
r 1.152904 2 0 ack 40 ------- 0 3.0 0.0 1 91 12329 0x18 40 0
+ 1.153624 2 0 ack 40 ------- 0 3.0 0.0 1 92 12329 0x18 40 0
- 1.153624 2 0 ack 40 ------- 0 3.0 0.0 1 92 12329 0x18 40 0
+ 1.15848 2 3 tcp 576 ------- 0 0.0 3.0 27337 96 1 0x10 40 0
- 1.15848 2 3 tcp 576 ------- 0 0.0 3.0 27337 96 1 0x10 40 0
r 1.158664 2 0 ack 40 ------- 0 3.0 0.0 1 92 12329 0x18 40 0
+ 1.159384 2 0 ack 40 ------- 0 3.0 0.0 1 93 12329 0x18 40 0
- 1.159384 2 0 ack 40 ------- 0 3.0 0.0 1 93 12329 0x18 40 0
+ 1.16424 2 3 tcp 576 ------- 0 0.0 3.0 27873 97 1 0x10 40 0
- 1.16424 2 3 tcp 576 ------- 0 0.0 3.0 27873 97 1 0x10 40 0
r 1.164424 2 0 ack 40 ------- 0 3.0 0.0 1 93 12329 0x18 40 0
+ 1.17 2 3 tcp 576 ------- 0 0.0 3.0 28409 98 1 0x10 40 0
- 1.17 2 3 tcp 576 ------- 0 0.0 3.0 28409 98 1 0x10 40 0
r 1.18936 2 3 tcp 576 ------- 0 0.0 3.0 12329 94 1 0x10 40 0
r 1.25848 2 3 tcp 576 ---A--- 0 0.0 3.0 26801 95 1 0x90 40 0
r 1.26424 2 3 tcp 576 ------- 0 0.0 3.0 27337 96 1 0x10 40 0
r 1.27 2 3 tcp 576 ------- 0 0.0 3.0 27873 97 1 0x10 40 0
r 1.27576 2 3 tcp 576 ------- 0 0.0 3.0 28409 98 1 0x10 40 0
+ 1.28976 2 0 ack 40 ------- 0 3.0 0.0 1 99 13401 0x18 40 0
- 1.28976 2 0 ack 40 ------- 0 3.0 0.0 1 99 13401 0x18 40 0
r 1.2948 2 0 ack 40 ------- 0 3.0 0.0 1 99 13401 0x18 40 0
+ 1.35888 2 0 ack 40 ------- 0 3.0 0.0 1 100 13401 0x18 40 0
- 1.35888 2 0 ack 40 ------- 0 3.0 0.0 1 100 13401 0x18 40 0
r 1.36392 2 0 ack 40 ------- 0 3.0 0.0 1 100 13401 0x18 40 0
+ 1.36464 2 0 ack 40 ------- 0 3.0 0.0 1 101 13401 0x18 40 0
- 1.36464 2 0 ack 40 ------- 0 3.0 0.0 1 101 13401 0x18 40 0
r 1.36968 2 0 ack 40 ------- 0 3.0 0.0 1 101 13401 0x18 40 0
+ 1.3704 2 0 ack 40 ------- 0 3.0 0.0 1 102 13401 0x18 40 0
- 1.3704 2 0 ack 40 ------- 0 3.0 0.0 1 102 13401 0x18 40 0
r 1.37544 2 0 ack 40 ------- 0 3.0 0.0 1 102 13401 0x18 40 0
+ 1.37616 2 0 ack 40 ------- 0 3.0 0.0 1 103 13401 0x18 40 0
- 1.37616 2 0 ack 40 ------- 0 3.0 0.0 1 103 13401 0x18 40 0
+ 1.381016 2 3 tcp 576 ------- 0 0.0 3.0 13401 104 1 0x10 40 0
- 1.381016 2 3 tcp 576 ------- 0 0.0 3.0 13401 104 1 0x10 40 0
r 1.3812 2 0 ack 40 ------- 0 3.0 0.0 1 103 13401 0x18 40 0
r 1.486776 2 3 tcp 576 ------- 0 0.0 3.0 13401 104 1 0x10 40 0
+ 1.587176 2 0 ack 40 ------- 0 3.0 0.0 1 105 14473 0x18 40 0
- 1.587176 2 0 ack 40 ------- 0 3.0 0.0 1 105 14473 0x18 40 0
r 1.592216 2 0 ack 40 ------- 0 3.0 0.0 1 105 14473 0x18 40 0
+ 3.097792 2 3 tcp 576 ------- 0 0.0 3.0 14473 106 1 0x10 40 0
- 3.097792 2 3 tcp 576 ------- 0 0.0 3.0 14473 106 1 0x10 40 0
r 3.203552 2 3 tcp 576 ------- 0 0.0 3.0 14473 106 1 0x10 40 0
+ 3.303952 2 0 ack 40 ------- 0 3.0 0.0 1 107 20905 0x18 40 0
- 3.303952 2 0 ack 40 ------- 0 3.0 0.0 1 107 20905 0x18 40 0
r 3.308992 2 0 ack 40 ------- 0 3.0 0.0 1 107 20905 0x18 40 0
+ 3.314568 2 3 tcp 576 ------- 0 0.0 3.0 20905 108 1 0x10 40 0
- 3.314568 2 3 tcp 576 ------- 0 0.0 3.0 20905 108 1 0x10 40 0
+ 3.315144 2 3 tcp 576 ------- 0 0.0 3.0 21441 109 1 0x10 40 0
- 3.320328 2 3 tcp 576 ------- 0 0.0 3.0 21441 109 1 0x10 40 0
r 3.420328 2 3 tcp 576 ------- 0 0.0 3.0 20905 108 1 0x10 40 0
r 3.426088 2 3 tcp 576 ------- 0 0.0 3.0 21441 109 1 0x10 40 0
+ 3.520728 2 0 ack 40 ------- 0 3.0 0.0 1 110 21977 0x18 40 0
- 3.520728 2 0 ack 40 ------- 0 3.0 0.0 1 110 21977 0x18 40 0
r 3.525768 2 0 ack 40 ------- 0 3.0 0.0 1 110 21977 0x18 40 0
+ 3.526488 2 0 ack 40 ------- 0 3.0 0.0 1 111 21977 0x18 40 0
- 3.526488 2 0 ack 40 ------- 0 3.0 0.0 1 111 21977 0x18 40 0
+ 3.531344 2 3 tcp 576 ------- 0 0.0 3.0 21977 112 1 0x10 40 0
- 3.531344 2 3 tcp 576 ------- 0 0.0 3.0 21977 112 1 0x10 40 0
r 3.531528 2 0 ack 40 ------- 0 3.0 0.0 1 111 21977 0x18 40 0
+ 3.53192 2 3 tcp 576 ------- 0 0.0 3.0 22513 113 1 0x10 40 0
+ 3.532496 2 3 tcp 576 ------- 0 0.0 3.0 23049 114 1 0x10 40 0
- 3.537104 2 3 tcp 576 ------- 0 0.0 3.0 22513 113 1 0x10 40 0
- 3.542864 2 3 tcp 576 ------- 0 0.0 3.0 23049 114 1 0x10 40 0
r 3.637104 2 3 tcp 576 ------- 0 0.0 3.0 21977 112 1 0x10 40 0
r 3.642864 2 3 tcp 576 ------- 0 0.0 3.0 22513 113 1 0x10 40 0
r 3.648624 2 3 tcp 576 ------- 0 0.0 3.0 23049 114 1 0x10 40 0
+ 3.737504 2 0 ack 40 ------- 0 3.0 0.0 1 115 23049 0x18 40 0
- 3.737504 2 0 ack 40 ------- 0 3.0 0.0 1 115 23049 0x18 40 0
r 3.742544 2 0 ack 40 ------- 0 3.0 0.0 1 115 23049 0x18 40 0
+ 3.743264 2 0 ack 40 ------- 0 3.0 0.0 1 116 23049 0x18 40 0
- 3.743264 2 0 ack 40 ------- 0 3.0 0.0 1 116 23049 0x18 40 0
+ 3.74812 2 3 tcp 576 ------- 0 0.0 3.0 23585 118 1 0x10 40 0
- 3.74812 2 3 tcp 576 ------- 0 0.0 3.0 23585 118 1 0x10 40 0
r 3.748304 2 0 ack 40 ------- 0 3.0 0.0 1 116 23049 0x18 40 0
+ 3.748696 2 3 tcp 576 ------- 0 0.0 3.0 24121 119 1 0x10 40 0
+ 3.749024 2 0 ack 40 ------- 0 3.0 0.0 1 117 24121 0x18 40 0
- 3.749024 2 0 ack 40 ------- 0 3.0 0.0 1 117 24121 0x18 40 0
- 3.75388 2 3 tcp 576 ------- 0 0.0 3.0 24121 119 1 0x10 40 0
r 3.754064 2 0 ack 40 ------- 0 3.0 0.0 1 117 24121 0x18 40 0
+ 3.75964 2 3 tcp 576 ------- 0 0.0 3.0 24657 120 1 0x10 40 0
- 3.75964 2 3 tcp 576 ------- 0 0.0 3.0 24657 120 1 0x10 40 0
+ 3.760216 2 3 tcp 576 ------- 0 0.0 3.0 25193 121 1 0x10 40 0
- 3.7654 2 3 tcp 576 ------- 0 0.0 3.0 25193 121 1 0x10 40 0
r 3.85388 2 3 tcp 576 ------- 0 0.0 3.0 23585 118 1 0x10 40 0
r 3.85964 2 3 tcp 576 ------- 0 0.0 3.0 24121 119 1 0x10 40 0
r 3.8654 2 3 tcp 576 ------- 0 0.0 3.0 24657 120 1 0x10 40 0
r 3.87116 2 3 tcp 576 ------- 0 0.0 3.0 25193 121 1 0x10 40 0
+ 3.95428 2 0 ack 40 ------- 0 3.0 0.0 1 122 24121 0x18 40 0
- 3.95428 2 0 ack 40 ------- 0 3.0 0.0 1 122 24121 0x18 40 0
r 3.95932 2 0 ack 40 ------- 0 3.0 0.0 1 122 24121 0x18 40 0
+ 3.96004 2 0 ack 40 ------- 0 3.0 0.0 1 123 25193 0x18 40 0
- 3.96004 2 0 ack 40 ------- 0 3.0 0.0 1 123 25193 0x18 40 0
r 3.96508 2 0 ack 40 ------- 0 3.0 0.0 1 123 25193 0x18 40 0
+ 3.9658 2 0 ack 40 ------- 0 3.0 0.0 1 124 25193 0x18 40 0
- 3.9658 2 0 ack 40 ------- 0 3.0 0.0 1 124 25193 0x18 40 0
+ 3.970656 2 3 tcp 576 ------- 0 0.0 3.0 25729 126 1 0x10 40 0
- 3.970656 2 3 tcp 576 ------- 0 0.0 3.0 25729 126 1 0x10 40 0
r 3.97084 2 0 ack 40 ------- 0 3.0 0.0 1 124 25193 0x18 40 0
+ 3.971232 2 3 tcp 576 ------- 0 0.0 3.0 26265 127 1 0x10 40 0
+ 3.97156 2 0 ack 40 ------- 0 3.0 0.0 1 125 26265 0x18 40 0
- 3.97156 2 0 ack 40 ------- 0 3.0 0.0 1 125 26265 0x18 40 0
- 3.976416 2 3 tcp 576 ------- 0 0.0 3.0 26265 127 1 0x10 40 0
r 3.9766 2 0 ack 40 ------- 0 3.0 0.0 1 125 26265 0x18 40 0
+ 3.982176 2 3 tcp 576 ------- 0 0.0 3.0 26801 128 1 0x10 40 0
- 3.982176 2 3 tcp 576 ------- 0 0.0 3.0 26801 128 1 0x10 40 0
+ 3.982752 2 3 tcp 576 ------- 0 0.0 3.0 27337 129 1 0x10 40 0
+ 3.983328 2 3 tcp 576 ------- 0 0.0 3.0 27873 130 1 0x10 40 0
- 3.987936 2 3 tcp 576 ------- 0 0.0 3.0 27337 129 1 0x10 40 0
- 3.993696 2 3 tcp 576 ------- 0 0.0 3.0 27873 130 1 0x10 40 0
r 4.076416 2 3 tcp 576 ------- 0 0.0 3.0 25729 126 1 0x10 40 0
r 4.082176 2 3 tcp 576 ------- 0 0.0 3.0 26265 127 1 0x10 40 0
r 4.087936 2 3 tcp 576 ------- 0 0.0 3.0 26801 128 1 0x10 40 0
r 4.093696 2 3 tcp 576 ------- 0 0.0 3.0 27337 129 1 0x10 40 0
r 4.099456 2 3 tcp 576 ------- 0 0.0 3.0 27873 130 1 0x10 40 0
+ 4.176816 2 0 ack 40 ------- 0 3.0 0.0 1 131 26265 0x18 40 0
- 4.176816 2 0 ack 40 ------- 0 3.0 0.0 1 131 26265 0x18 40 0
r 4.181856 2 0 ack 40 ------- 0 3.0 0.0 1 131 26265 0x18 40 0
+ 4.182576 2 0 ack 40 ------- 0 3.0 0.0 1 132 28945 0x18 40 0
- 4.182576 2 0 ack 40 ------- 0 3.0 0.0 1 132 28945 0x18 40 0
r 4.187616 2 0 ack 40 ------- 0 3.0 0.0 1 132 28945 0x18 40 0
+ 4.188336 2 0 ack 40 ------- 0 3.0 0.0 1 133 28945 0x18 40 0
- 4.188336 2 0 ack 40 ------- 0 3.0 0.0 1 133 28945 0x18 40 0
+ 4.193192 2 3 tcp 576 ---A--- 0 0.0 3.0 28945 136 1 0x90 40 0
- 4.193192 2 3 tcp 576 ---A--- 0 0.0 3.0 28945 136 1 0x90 40 0
r 4.193376 2 0 ack 40 ------- 0 3.0 0.0 1 133 28945 0x18 40 0
+ 4.193768 2 3 tcp 576 ------- 0 0.0 3.0 29481 137 1 0x10 40 0
+ 4.194096 2 0 ack 40 ------- 0 3.0 0.0 1 134 28945 0x18 40 0
- 4.194096 2 0 ack 40 ------- 0 3.0 0.0 1 134 28945 0x18 40 0
+ 4.194344 2 3 tcp 576 ------- 0 0.0 3.0 30017 138 1 0x10 40 0
+ 4.19492 2 3 tcp 576 ------- 0 0.0 3.0 30553 139 1 0x10 40 0
- 4.198952 2 3 tcp 576 ------- 0 0.0 3.0 29481 137 1 0x10 40 0
r 4.199136 2 0 ack 40 ------- 0 3.0 0.0 1 134 28945 0x18 40 0
+ 4.199856 2 0 ack 40 ------- 0 3.0 0.0 1 135 28945 0x18 40 0
- 4.199856 2 0 ack 40 ------- 0 3.0 0.0 1 135 28945 0x18 40 0
- 4.204712 2 3 tcp 576 ------- 0 0.0 3.0 30017 138 1 0x10 40 0
r 4.204896 2 0 ack 40 ------- 0 3.0 0.0 1 135 28945 0x18 40 0
- 4.210472 2 3 tcp 576 ------- 0 0.0 3.0 30553 139 1 0x10 40 0
r 4.298952 2 3 tcp 576 ---A--- 0 0.0 3.0 28945 136 1 0x90 40 0
r 4.304712 2 3 tcp 576 ------- 0 0.0 3.0 29481 137 1 0x10 40 0
r 4.310472 2 3 tcp 576 ------- 0 0.0 3.0 30017 138 1 0x10 40 0
r 4.316232 2 3 tcp 576 ------- 0 0.0 3.0 30553 139 1 0x10 40 0
+ 4.399352 2 0 ack 40 ------- 0 3.0 0.0 1 140 29481 0x18 40 0
- 4.399352 2 0 ack 40 ------- 0 3.0 0.0 1 140 29481 0x18 40 0
r 4.404392 2 0 ack 40 ------- 0 3.0 0.0 1 140 29481 0x18 40 0
+ 4.405112 2 0 ack 40 ------- 0 3.0 0.0 1 141 30017 0x18 40 0
- 4.405112 2 0 ack 40 ------- 0 3.0 0.0 1 141 30017 0x18 40 0
r 4.410152 2 0 ack 40 ------- 0 3.0 0.0 1 141 30017 0x18 40 0
+ 4.410872 2 0 ack 40 ------- 0 3.0 0.0 1 142 30553 0x18 40 0
- 4.410872 2 0 ack 40 ------- 0 3.0 0.0 1 142 30553 0x18 40 0
+ 4.415728 2 3 tcp 576 ------- 0 0.0 3.0 31089 144 1 0x10 40 0
- 4.415728 2 3 tcp 576 ------- 0 0.0 3.0 31089 144 1 0x10 40 0
r 4.415912 2 0 ack 40 ------- 0 3.0 0.0 1 142 30553 0x18 40 0
+ 4.416632 2 0 ack 40 ------- 0 3.0 0.0 1 143 31089 0x18 40 0
- 4.416632 2 0 ack 40 ------- 0 3.0 0.0 1 143 31089 0x18 40 0
+ 4.421488 2 3 tcp 576 ------- 0 0.0 3.0 31625 145 1 0x10 40 0
- 4.421488 2 3 tcp 576 ------- 0 0.0 3.0 31625 145 1 0x10 40 0
r 4.421672 2 0 ack 40 ------- 0 3.0 0.0 1 143 31089 0x18 40 0
+ 4.427248 2 3 tcp 576 ------- 0 0.0 3.0 32161 146 1 0x10 40 0
- 4.427248 2 3 tcp 576 ------- 0 0.0 3.0 32161 146 1 0x10 40 0
+ 4.427824 2 3 tcp 576 ------- 0 0.0 3.0 32697 147 1 0x10 40 0
- 4.433008 2 3 tcp 576 ------- 0 0.0 3.0 32697 147 1 0x10 40 0
r 4.521488 2 3 tcp 576 ------- 0 0.0 3.0 31089 144 1 0x10 40 0
r 4.527248 2 3 tcp 576 ------- 0 0.0 3.0 31625 145 1 0x10 40 0
r 4.533008 2 3 tcp 576 ------- 0 0.0 3.0 32161 146 1 0x10 40 0
r 4.538768 2 3 tcp 576 ------- 0 0.0 3.0 32697 147 1 0x10 40 0
+ 4.621888 2 0 ack 40 ------- 0 3.0 0.0 1 148 31625 0x18 40 0
- 4.621888 2 0 ack 40 ------- 0 3.0 0.0 1 148 31625 0x18 40 0
r 4.626928 2 0 ack 40 ------- 0 3.0 0.0 1 148 31625 0x18 40 0
+ 4.627648 2 0 ack 40 ------- 0 3.0 0.0 1 149 32161 0x18 40 0
- 4.627648 2 0 ack 40 ------- 0 3.0 0.0 1 149 32161 0x18 40 0
+ 4.632504 2 3 tcp 576 ------- 0 0.0 3.0 33233 152 1 0x10 40 0
- 4.632504 2 3 tcp 576 ------- 0 0.0 3.0 33233 152 1 0x10 40 0
r 4.632688 2 0 ack 40 ------- 0 3.0 0.0 1 149 32161 0x18 40 0
+ 4.633408 2 0 ack 40 ------- 0 3.0 0.0 1 150 32697 0x18 40 0
- 4.633408 2 0 ack 40 ------- 0 3.0 0.0 1 150 32697 0x18 40 0
+ 4.638264 2 3 tcp 576 ------- 0 0.0 3.0 33769 153 1 0x10 40 0
- 4.638264 2 3 tcp 576 ------- 0 0.0 3.0 33769 153 1 0x10 40 0
r 4.638448 2 0 ack 40 ------- 0 3.0 0.0 1 150 32697 0x18 40 0
+ 4.639168 2 0 ack 40 ------- 0 3.0 0.0 1 151 33233 0x18 40 0
- 4.639168 2 0 ack 40 ------- 0 3.0 0.0 1 151 33233 0x18 40 0
+ 4.644024 2 3 tcp 576 ------- 0 0.0 3.0 34305 154 1 0x10 40 0
- 4.644024 2 3 tcp 576 ------- 0 0.0 3.0 34305 154 1 0x10 40 0
r 4.644208 2 0 ack 40 ------- 0 3.0 0.0 1 151 33233 0x18 40 0
+ 4.649784 2 3 tcp 576 ------- 0 0.0 3.0 34841 155 1 0x10 40 0
- 4.649784 2 3 tcp 576 ------- 0 0.0 3.0 34841 155 1 0x10 40 0
+ 4.65036 2 3 tcp 576 ------- 0 0.0 3.0 35377 156 1 0x10 40 0
- 4.655544 2 3 tcp 576 ------- 0 0.0 3.0 35377 156 1 0x10 40 0
r 4.738264 2 3 tcp 576 ------- 0 0.0 3.0 33233 152 1 0x10 40 0
r 4.744024 2 3 tcp 576 ------- 0 0.0 3.0 33769 153 1 0x10 40 0
r 4.749784 2 3 tcp 576 ------- 0 0.0 3.0 34305 154 1 0x10 40 0
r 4.755544 2 3 tcp 576 ------- 0 0.0 3.0 34841 155 1 0x10 40 0
r 4.761304 2 3 tcp 576 ------- 0 0.0 3.0 35377 156 1 0x10 40 0
+ 4.838664 2 0 ack 40 ------- 0 3.0 0.0 1 157 33769 0x18 40 0
- 4.838664 2 0 ack 40 ------- 0 3.0 0.0 1 157 33769 0x18 40 0
r 4.843704 2 0 ack 40 ------- 0 3.0 0.0 1 157 33769 0x18 40 0
+ 4.844424 2 0 ack 40 ------- 0 3.0 0.0 1 158 34305 0x18 40 0
- 4.844424 2 0 ack 40 ------- 0 3.0 0.0 1 158 34305 0x18 40 0
+ 4.84928 2 3 tcp 576 ------- 0 0.0 3.0 35913 162 1 0x10 40 0
- 4.84928 2 3 tcp 576 ------- 0 0.0 3.0 35913 162 1 0x10 40 0
r 4.849464 2 0 ack 40 ------- 0 3.0 0.0 1 158 34305 0x18 40 0
+ 4.850184 2 0 ack 40 ------- 0 3.0 0.0 1 159 34841 0x18 40 0
- 4.850184 2 0 ack 40 ------- 0 3.0 0.0 1 159 34841 0x18 40 0
+ 4.85504 2 3 tcp 576 ------- 0 0.0 3.0 36449 163 1 0x10 40 0
- 4.85504 2 3 tcp 576 ------- 0 0.0 3.0 36449 163 1 0x10 40 0
r 4.855224 2 0 ack 40 ------- 0 3.0 0.0 1 159 34841 0x18 40 0
+ 4.855944 2 0 ack 40 ------- 0 3.0 0.0 1 160 35377 0x18 40 0
- 4.855944 2 0 ack 40 ------- 0 3.0 0.0 1 160 35377 0x18 40 0
+ 4.8608 2 3 tcp 576 ------- 0 0.0 3.0 36985 164 1 0x10 40 0
- 4.8608 2 3 tcp 576 ------- 0 0.0 3.0 36985 164 1 0x10 40 0
r 4.860984 2 0 ack 40 ------- 0 3.0 0.0 1 160 35377 0x18 40 0
+ 4.861704 2 0 ack 40 ------- 0 3.0 0.0 1 161 35913 0x18 40 0
- 4.861704 2 0 ack 40 ------- 0 3.0 0.0 1 161 35913 0x18 40 0
+ 4.86656 2 3 tcp 576 ------- 0 0.0 3.0 37521 165 1 0x10 40 0
- 4.86656 2 3 tcp 576 ------- 0 0.0 3.0 37521 165 1 0x10 40 0
r 4.866744 2 0 ack 40 ------- 0 3.0 0.0 1 161 35913 0x18 40 0
+ 4.87232 2 3 tcp 576 ------- 0 0.0 3.0 38057 166 1 0x10 40 0
- 4.87232 2 3 tcp 576 ------- 0 0.0 3.0 38057 166 1 0x10 40 0
r 4.95504 2 3 tcp 576 ------- 0 0.0 3.0 35913 162 1 0x10 40 0
r 4.9608 2 3 tcp 576 ------- 0 0.0 3.0 36449 163 1 0x10 40 0