v testName simul-close
+ 0.70504 2 3 tcp 40 ------- 0 0.0 3.0 0 0 -1 0xa 40 0
- 0.70504 2 3 tcp 40 ------- 0 0.0 3.0 0 0 -1 0xa 40 0
r 0.80544 2 3 tcp 40 ------- 0 0.0 3.0 0 0 -1 0xa 40 0
+ 1.0004 2 0 tcp 40 ------- 0 3.0 0.0 10000 1 -1 0xa 40 0
- 1.0004 2 0 tcp 40 ------- 0 3.0 0.0 10000 1 -1 0xa 40 0
r 1.00544 2 0 tcp 40 ------- 0 3.0 0.0 10000 1 -1 0xa 40 0
+ 1.01048 2 3 tcp 40 ------- 0 0.0 3.0 0 2 10001 0x1a 40 0
- 1.01048 2 3 tcp 40 ------- 0 0.0 3.0 0 2 10001 0x1a 40 0
r 1.11088 2 3 tcp 40 ------- 0 0.0 3.0 0 2 10001 0x1a 40 0
+ 1.21128 2 0 tcp 40 ------- 0 3.0 0.0 10001 3 1 0x10 40 0
- 1.21128 2 0 tcp 40 ------- 0 3.0 0.0 10001 3 1 0x10 40 0
r 1.21632 2 0 tcp 40 ------- 0 3.0 0.0 10001 3 1 0x10 40 0
+ 1.21704 2 0 tcp 576 ------- 0 3.0 0.0 10001 4 1 0x10 40 0
- 1.21704 2 0 tcp 576 ------- 0 3.0 0.0 10001 4 1 0x10 40 0
+ 1.221896 2 3 tcp 576 ------- 0 0.0 3.0 1 5 10001 0x10 40 0
- 1.221896 2 3 tcp 576 ------- 0 0.0 3.0 1 5 10001 0x10 40 0
r 1.222616 2 0 tcp 576 ------- 0 3.0 0.0 10001 4 1 0x10 40 0
+ 1.227656 2 3 tcp 40 ------- 0 0.0 3.0 537 6 10537 0x10 40 0
- 1.227656 2 3 tcp 40 ------- 0 0.0 3.0 537 6 10537 0x10 40 0
r 1.327656 2 3 tcp 576 ------- 0 0.0 3.0 1 5 10001 0x10 40 0
r 1.328056 2 3 tcp 40 ------- 0 0.0 3.0 537 6 10537 0x10 40 0
+ 1.428056 2 0 tcp 40 ------- 0 3.0 0.0 10537 7 537 0x10 40 0
- 1.428056 2 0 tcp 40 ------- 0 3.0 0.0 10537 7 537 0x10 40 0
r 1.433096 2 0 tcp 40 ------- 0 3.0 0.0 10537 7 537 0x10 40 0
+ 1.433816 2 0 tcp 576 ------- 0 3.0 0.0 10537 8 537 0x10 40 0
- 1.433816 2 0 tcp 576 ------- 0 3.0 0.0 10537 8 537 0x10 40 0
+ 1.438672 2 3 tcp 576 ------- 0 0.0 3.0 537 10 10537 0x10 40 0
- 1.438672 2 3 tcp 576 ------- 0 0.0 3.0 537 10 10537 0x10 40 0
+ 1.439248 2 3 tcp 576 ------- 0 0.0 3.0 1073 11 10537 0x10 40 0
r 1.439392 2 0 tcp 576 ------- 0 3.0 0.0 10537 8 537 0x10 40 0
+ 1.439576 2 0 tcp 576 ------- 0 3.0 0.0 11073 9 537 0x10 40 0
- 1.439576 2 0 tcp 576 ------- 0 3.0 0.0 11073 9 537 0x10 40 0
- 1.444432 2 3 tcp 576 ------- 0 0.0 3.0 1073 11 10537 0x10 40 0
+ 1.444432 2 3 tcp 40 ------- 0 0.0 3.0 1609 12 11073 0x10 40 0
r 1.445152 2 0 tcp 576 ------- 0 3.0 0.0 11073 9 537 0x10 40 0
- 1.450192 2 3 tcp 40 ------- 0 0.0 3.0 1609 12 11073 0x10 40 0
+ 1.450192 2 3 tcp 40 ------- 0 0.0 3.0 1609 13 11609 0x10 40 0
- 1.450592 2 3 tcp 40 ------- 0 0.0 3.0 1609 13 11609 0x10 40 0
r 1.544432 2 3 tcp 576 ------- 0 0.0 3.0 537 10 10537 0x10 40 0
r 1.550192 2 3 tcp 576 ------- 0 0.0 3.0 1073 11 10537 0x10 40 0
r 1.550592 2 3 tcp 40 ------- 0 0.0 3.0 1609 12 11073 0x10 40 0
r 1.550992 2 3 tcp 40 ------- 0 0.0 3.0 1609 13 11609 0x10 40 0
+ 1.60504 2 3 tcp 40 ------- 0 0.0 3.0 1609 20 11609 0x19 40 0
- 1.60504 2 3 tcp 40 ------- 0 0.0 3.0 1609 20 11609 0x19 40 0
+ 1.644832 2 0 tcp 40 ------- 0 3.0 0.0 11609 14 1073 0x10 40 0
- 1.644832 2 0 tcp 40 ------- 0 3.0 0.0 11609 14 1073 0x10 40 0
r 1.649872 2 0 tcp 40 ------- 0 3.0 0.0 11609 14 1073 0x10 40 0
+ 1.650592 2 0 tcp 40 ------- 0 3.0 0.0 11609 15 1609 0x10 40 0
- 1.650592 2 0 tcp 40 ------- 0 3.0 0.0 11609 15 1609 0x10 40 0
r 1.655632 2 0 tcp 40 ------- 0 3.0 0.0 11609 15 1609 0x10 40 0
+ 1.656352 2 0 tcp 576 ------- 0 3.0 0.0 11609 16 1609 0x10 40 0
- 1.656352 2 0 tcp 576 ------- 0 3.0 0.0 11609 16 1609 0x10 40 0
r 1.661928 2 0 tcp 576 ------- 0 3.0 0.0 11609 16 1609 0x10 40 0
+ 1.662112 2 0 tcp 576 ------- 0 3.0 0.0 12145 17 1609 0x10 40 0
- 1.662112 2 0 tcp 576 ------- 0 3.0 0.0 12145 17 1609 0x10 40 0
+ 1.666968 2 3 tcp 40 ------- 0 0.0 3.0 1609 22 12145 0x19 40 0
- 1.666968 2 3 tcp 40 ------- 0 0.0 3.0 1609 22 12145 0x19 40 0
r 1.667688 2 0 tcp 576 ------- 0 3.0 0.0 12145 17 1609 0x10 40 0
+ 1.667872 2 0 tcp 576 ------- 0 3.0 0.0 12681 18 1609 0x10 40 0
- 1.667872 2 0 tcp 576 ------- 0 3.0 0.0 12681 18 1609 0x10 40 0
+ 1.672728 2 3 tcp 40 ------- 0 0.0 3.0 1609 23 12681 0x19 40 0
- 1.672728 2 3 tcp 40 ------- 0 0.0 3.0 1609 23 12681 0x19 40 0
r 1.673448 2 0 tcp 576 ------- 0 3.0 0.0 12681 18 1609 0x10 40 0
+ 1.673632 2 0 tcp 576 ------- 0 3.0 0.0 13217 19 1609 0x10 40 0
- 1.673632 2 0 tcp 576 ------- 0 3.0 0.0 13217 19 1609 0x10 40 0
+ 1.678488 2 3 tcp 40 ------- 0 0.0 3.0 1609 24 13217 0x19 40 0
- 1.678488 2 3 tcp 40 ------- 0 0.0 3.0 1609 24 13217 0x19 40 0
r 1.679208 2 0 tcp 576 ------- 0 3.0 0.0 13217 19 1609 0x10 40 0
+ 1.684248 2 3 tcp 40 ------- 0 0.0 3.0 1609 25 13753 0x19 40 0
- 1.684248 2 3 tcp 40 ------- 0 0.0 3.0 1609 25 13753 0x19 40 0
+ 1.7004 2 0 tcp 40 ------- 0 3.0 0.0 13753 21 1609 0x19 40 0
- 1.7004 2 0 tcp 40 ------- 0 3.0 0.0 13753 21 1609 0x19 40 0
r 1.70544 2 3 tcp 40 ------- 0 0.0 3.0 1609 20 11609 0x19 40 0
r 1.70544 2 0 tcp 40 ------- 0 3.0 0.0 13753 21 1609 0x19 40 0
+ 1.71048 2 3 tcp 40 ------- 0 0.0 3.0 1609 27 13754 0x19 40 0
- 1.71048 2 3 tcp 40 ------- 0 0.0 3.0 1609 27 13754 0x19 40 0
r 1.767368 2 3 tcp 40 ------- 0 0.0 3.0 1609 22 12145 0x19 40 0
r 1.773128 2 3 tcp 40 ------- 0 0.0 3.0 1609 23 12681 0x19 40 0
r 1.778888 2 3 tcp 40 ------- 0 0.0 3.0 1609 24 13217 0x19 40 0
r 1.784648 2 3 tcp 40 ------- 0 0.0 3.0 1609 25 13753 0x19 40 0
+ 1.80584 2 0 tcp 40 ------- 0 3.0 0.0 13753 26 1610 0x19 40 0
- 1.80584 2 0 tcp 40 ------- 0 3.0 0.0 13753 26 1610 0x19 40 0
r 1.81088 2 3 tcp 40 ------- 0 0.0 3.0 1609 27 13754 0x19 40 0
r 1.81088 2 0 tcp 40 ------- 0 3.0 0.0 13753 26 1610 0x19 40 0
