v testName simul-open
+ 0.70504 2 3 tcp 40 ------- 0 0.0 3.0 0 0 -1 0xa 40 0
- 0.70504 2 3 tcp 40 ------- 0 0.0 3.0 0 0 -1 0xa 40 0
+ 0.8004 2 0 tcp 40 ------- 0 3.0 0.0 0 1 -1 0xa 40 0
- 0.8004 2 0 tcp 40 ------- 0 3.0 0.0 0 1 -1 0xa 40 0
r 0.80544 2 3 tcp 40 ------- 0 0.0 3.0 0 0 -1 0xa 40 0
r 0.80544 2 0 tcp 40 ------- 0 3.0 0.0 0 1 -1 0xa 40 0
+ 0.81048 2 3 tcp 40 ------- 0 0.0 3.0 0 3 1 0x1a 40 0
- 0.81048 2 3 tcp 40 ------- 0 0.0 3.0 0 3 1 0x1a 40 0
+ 0.90584 2 0 tcp 40 ------- 0 3.0 0.0 0 2 1 0x1a 40 0
- 0.90584 2 0 tcp 40 ------- 0 3.0 0.0 0 2 1 0x1a 40 0
r 0.91088 2 3 tcp 40 ------- 0 0.0 3.0 0 3 1 0x1a 40 0
r 0.91088 2 0 tcp 40 ------- 0 3.0 0.0 0 2 1 0x1a 40 0
+ 0.916456 2 3 tcp 576 ------- 0 0.0 3.0 1 5 1 0x10 40 0
- 0.916456 2 3 tcp 576 ------- 0 0.0 3.0 1 5 1 0x10 40 0
+ 1.01664 2 0 tcp 576 ------- 0 3.0 0.0 1 4 1 0x10 40 0
- 1.01664 2 0 tcp 576 ------- 0 3.0 0.0 1 4 1 0x10 40 0
r 1.022216 2 3 tcp 576 ------- 0 0.0 3.0 1 5 1 0x10 40 0
r 1.022216 2 0 tcp 576 ------- 0 3.0 0.0 1 4 1 0x10 40 0
+ 1.027256 2 3 tcp 40 ------- 0 0.0 3.0 537 7 537 0x10 40 0
- 1.027256 2 3 tcp 40 ------- 0 0.0 3.0 537 7 537 0x10 40 0
+ 1.122616 2 0 tcp 40 ------- 0 3.0 0.0 537 6 537 0x10 40 0
- 1.122616 2 0 tcp 40 ------- 0 3.0 0.0 537 6 537 0x10 40 0
r 1.127656 2 3 tcp 40 ------- 0 0.0 3.0 537 7 537 0x10 40 0
r 1.127656 2 0 tcp 40 ------- 0 3.0 0.0 537 6 537 0x10 40 0
+ 1.133232 2 3 tcp 576 ------- 0 0.0 3.0 537 10 537 0x10 40 0
- 1.133232 2 3 tcp 576 ------- 0 0.0 3.0 537 10 537 0x10 40 0
+ 1.133808 2 3 tcp 576 ------- 0 0.0 3.0 1073 11 537 0x10 40 0
- 1.138992 2 3 tcp 576 ------- 0 0.0 3.0 1073 11 537 0x10 40 0
+ 1.233416 2 0 tcp 576 ------- 0 3.0 0.0 537 8 537 0x10 40 0
- 1.233416 2 0 tcp 576 ------- 0 3.0 0.0 537 8 537 0x10 40 0
r 1.238992 2 3 tcp 576 ------- 0 0.0 3.0 537 10 537 0x10 40 0
r 1.238992 2 0 tcp 576 ------- 0 3.0 0.0 537 8 537 0x10 40 0
+ 1.239176 2 0 tcp 576 ------- 0 3.0 0.0 1073 9 537 0x10 40 0
- 1.239176 2 0 tcp 576 ------- 0 3.0 0.0 1073 9 537 0x10 40 0
+ 1.244032 2 3 tcp 40 ------- 0 0.0 3.0 1609 13 1073 0x10 40 0
- 1.244032 2 3 tcp 40 ------- 0 0.0 3.0 1609 13 1073 0x10 40 0
r 1.244752 2 3 tcp 576 ------- 0 0.0 3.0 1073 11 537 0x10 40 0
r 1.244752 2 0 tcp 576 ------- 0 3.0 0.0 1073 9 537 0x10 40 0
+ 1.249792 2 3 tcp 40 ------- 0 0.0 3.0 1609 15 1609 0x10 40 0
- 1.249792 2 3 tcp 40 ------- 0 0.0 3.0 1609 15 1609 0x10 40 0
+ 1.339392 2 0 tcp 40 ------- 0 3.0 0.0 1609 12 1073 0x10 40 0
- 1.339392 2 0 tcp 40 ------- 0 3.0 0.0 1609 12 1073 0x10 40 0
r 1.344432 2 3 tcp 40 ------- 0 0.0 3.0 1609 13 1073 0x10 40 0
r 1.344432 2 0 tcp 40 ------- 0 3.0 0.0 1609 12 1073 0x10 40 0
+ 1.345152 2 0 tcp 40 ------- 0 3.0 0.0 1609 14 1609 0x10 40 0
- 1.345152 2 0 tcp 40 ------- 0 3.0 0.0 1609 14 1609 0x10 40 0
+ 1.350008 2 3 tcp 576 ------- 0 0.0 3.0 1609 18 1609 0x10 40 0
- 1.350008 2 3 tcp 576 ------- 0 0.0 3.0 1609 18 1609 0x10 40 0
r 1.350192 2 3 tcp 40 ------- 0 0.0 3.0 1609 15 1609 0x10 40 0
r 1.350192 2 0 tcp 40 ------- 0 3.0 0.0 1609 14 1609 0x10 40 0
+ 1.350584 2 3 tcp 576 ------- 0 0.0 3.0 2145 19 1609 0x10 40 0
- 1.355768 2 3 tcp 576 ------- 0 0.0 3.0 2145 19 1609 0x10 40 0
+ 1.355768 2 3 tcp 576 ------- 0 0.0 3.0 2681 22 1609 0x10 40 0
+ 1.356344 2 3 tcp 576 ------- 0 0.0 3.0 3217 23 1609 0x10 40 0
- 1.361528 2 3 tcp 576 ------- 0 0.0 3.0 2681 22 1609 0x10 40 0
- 1.367288 2 3 tcp 576 ------- 0 0.0 3.0 3217 23 1609 0x10 40 0
+ 1.450192 2 0 tcp 576 ------- 0 3.0 0.0 1609 16 1609 0x10 40 0
- 1.450192 2 0 tcp 576 ------- 0 3.0 0.0 1609 16 1609 0x10 40 0
r 1.455768 2 3 tcp 576 ------- 0 0.0 3.0 1609 18 1609 0x10 40 0
r 1.455768 2 0 tcp 576 ------- 0 3.0 0.0 1609 16 1609 0x10 40 0
+ 1.455952 2 0 tcp 576 ------- 0 3.0 0.0 2145 17 1609 0x10 40 0
- 1.455952 2 0 tcp 576 ------- 0 3.0 0.0 2145 17 1609 0x10 40 0
+ 1.460808 2 3 tcp 40 ------- 0 0.0 3.0 3753 25 2145 0x10 40 0
- 1.460808 2 3 tcp 40 ------- 0 0.0 3.0 3753 25 2145 0x10 40 0
r 1.461528 2 3 tcp 576 ------- 0 0.0 3.0 2145 19 1609 0x10 40 0
r 1.461528 2 0 tcp 576 ------- 0 3.0 0.0 2145 17 1609 0x10 40 0
+ 1.461712 2 0 tcp 576 ------- 0 3.0 0.0 2681 20 1609 0x10 40 0
- 1.461712 2 0 tcp 576 ------- 0 3.0 0.0 2681 20 1609 0x10 40 0
+ 1.466568 2 3 tcp 40 ------- 0 0.0 3.0 3753 27 2681 0x10 40 0
- 1.466568 2 3 tcp 40 ------- 0 0.0 3.0 3753 27 2681 0x10 40 0
r 1.467288 2 3 tcp 576 ------- 0 0.0 3.0 2681 22 1609 0x10 40 0
r 1.467288 2 0 tcp 576 ------- 0 3.0 0.0 2681 20 1609 0x10 40 0
+ 1.467472 2 0 tcp 576 ------- 0 3.0 0.0 3217 21 1609 0x10 40 0
- 1.467472 2 0 tcp 576 ------- 0 3.0 0.0 3217 21 1609 0x10 40 0
+ 1.472328 2 3 tcp 40 ------- 0 0.0 3.0 3753 29 3217 0x10 40 0
- 1.472328 2 3 tcp 40 ------- 0 0.0 3.0 3753 29 3217 0x10 40 0
r 1.473048 2 3 tcp 576 ------- 0 0.0 3.0 3217 23 1609 0x10 40 0
r 1.473048 2 0 tcp 576 ------- 0 3.0 0.0 3217 21 1609 0x10 40 0
+ 1.478088 2 3 tcp 40 ------- 0 0.0 3.0 3753 31 3753 0x10 40 0
- 1.478088 2 3 tcp 40 ------- 0 0.0 3.0 3753 31 3753 0x10 40 0
+ 1.556168 2 0 tcp 40 ------- 0 3.0 0.0 3753 24 2145 0x10 40 0
- 1.556168 2 0 tcp 40 ------- 0 3.0 0.0 3753 24 2145 0x10 40 0
r 1.561208 2 3 tcp 40 ------- 0 0.0 3.0 3753 25 2145 0x10 40 0
r 1.561208 2 0 tcp 40 ------- 0 3.0 0.0 3753 24 2145 0x10 40 0
+ 1.561928 2 0 tcp 40 ------- 0 3.0 0.0 3753 26 2681 0x10 40 0
- 1.561928 2 0 tcp 40 ------- 0 3.0 0.0 3753 26 2681 0x10 40 0
+ 1.566784 2 3 tcp 576 ------- 0 0.0 3.0 3753 34 3753 0x10 40 0
- 1.566784 2 3 tcp 576 ------- 0 0.0 3.0 3753 34 3753 0x10 40 0
r 1.566968 2 3 tcp 40 ------- 0 0.0 3.0 3753 27 2681 0x10 40 0
r 1.566968 2 0 tcp 40 ------- 0 3.0 0.0 3753 26 2681 0x10 40 0
+ 1.56736 2 3 tcp 576 ------- 0 0.0 3.0 4289 35 3753 0x10 40 0
+ 1.567688 2 0 tcp 40 ------- 0 3.0 0.0 3753 28 3217 0x10 40 0
- 1.567688 2 0 tcp 40 ------- 0 3.0 0.0 3753 28 3217 0x10 40 0
- 1.572544 2 3 tcp 576 ------- 0 0.0 3.0 4289 35 3753 0x10 40 0
+ 1.572544 2 3 tcp 576 ------- 0 0.0 3.0 4825 38 3753 0x10 40 0
r 1.572728 2 3 tcp 40 ------- 0 0.0 3.0 3753 29 3217 0x10 40 0
r 1.572728 2 0 tcp 40 ------- 0 3.0 0.0 3753 28 3217 0x10 40 0
+ 1.57312 2 3 tcp 576 ------- 0 0.0 3.0 5361 39 3753 0x10 40 0
d 1.57312 2 3 tcp 576 ------- 0 0.0 3.0 5361 39 3753 0x10 40 0
+ 1.573448 2 0 tcp 40 ------- 0 3.0 0.0 3753 30 3753 0x10 40 0
- 1.573448 2 0 tcp 40 ------- 0 3.0 0.0 3753 30 3753 0x10 40 0
- 1.578304 2 3 tcp 576 ------- 0 0.0 3.0 4825 38 3753 0x10 40 0
+ 1.578304 2 3 tcp 576 ------- 0 0.0 3.0 5897 42 3753 0x10 40 0
r 1.578488 2 3 tcp 40 ------- 0 0.0 3.0 3753 31 3753 0x10 40 0
r 1.578488 2 0 tcp 40 ------- 0 3.0 0.0 3753 30 3753 0x10 40 0
+ 1.57888 2 3 tcp 576 ------- 0 0.0 3.0 6433 43 3753 0x10 40 0
- 1.584064 2 3 tcp 576 ------- 0 0.0 3.0 5897 42 3753 0x10 40 0
+ 1.584064 2 3 tcp 576 ------- 0 0.0 3.0 6969 46 3753 0x10 40 0
+ 1.58464 2 3 tcp 576 ------- 0 0.0 3.0 7505 47 3753 0x10 40 0
- 1.589824 2 3 tcp 576 ------- 0 0.0 3.0 6433 43 3753 0x10 40 0
- 1.595584 2 3 tcp 576 ------- 0 0.0 3.0 6969 46 3753 0x10 40 0
- 1.601344 2 3 tcp 576 ------- 0 0.0 3.0 7505 47 3753 0x10 40 0
+ 1.666968 2 0 tcp 576 ------- 0 3.0 0.0 3753 32 3753 0x10 40 0
- 1.666968 2 0 tcp 576 ------- 0 3.0 0.0 3753 32 3753 0x10 40 0
r 1.672544 2 3 tcp 576 ------- 0 0.0 3.0 3753 34 3753 0x10 40 0
r 1.672544 2 0 tcp 576 ------- 0 3.0 0.0 3753 32 3753 0x10 40 0
+ 1.672728 2 0 tcp 576 ------- 0 3.0 0.0 4289 33 3753 0x10 40 0
- 1.672728 2 0 tcp 576 ------- 0 3.0 0.0 4289 33 3753 0x10 40 0
+ 1.677584 2 3 tcp 40 ------- 0 0.0 3.0 8041 49 4289 0x10 40 0
- 1.677584 2 3 tcp 40 ------- 0 0.0 3.0 8041 49 4289 0x10 40 0
r 1.678304 2 3 tcp 576 ------- 0 0.0 3.0 4289 35 3753 0x10 40 0
r 1.678304 2 0 tcp 576 ------- 0 3.0 0.0 4289 33 3753 0x10 40 0
+ 1.678488 2 0 tcp 576 ------- 0 3.0 0.0 4825 36 3753 0x10 40 0
- 1.678488 2 0 tcp 576 ------- 0 3.0 0.0 4825 36 3753 0x10 40 0
+ 1.683344 2 3 tcp 40 ------- 0 0.0 3.0 8041 51 4825 0x10 40 0
- 1.683344 2 3 tcp 40 ------- 0 0.0 3.0 8041 51 4825 0x10 40 0
r 1.684064 2 3 tcp 576 ------- 0 0.0 3.0 4825 38 3753 0x10 40 0
r 1.684064 2 0 tcp 576 ------- 0 3.0 0.0 4825 36 3753 0x10 40 0
+ 1.684248 2 0 tcp 576 ------- 0 3.0 0.0 5361 37 3753 0x10 40 0
- 1.684248 2 0 tcp 576 ------- 0 3.0 0.0 5361 37 3753 0x10 40 0
+ 1.689104 2 3 tcp 40 ------- 0 0.0 3.0 8041 53 5361 0x10 40 0
- 1.689104 2 3 tcp 40 ------- 0 0.0 3.0 8041 53 5361 0x10 40 0
r 1.689824 2 3 tcp 576 ------- 0 0.0 3.0 5897 42 3753 0x10 40 0
r 1.689824 2 0 tcp 576 ------- 0 3.0 0.0 5361 37 3753 0x10 40 0
+ 1.690008 2 0 tcp 576 ------- 0 3.0 0.0 5897 40 3753 0x10 40 0
- 1.690008 2 0 tcp 576 ------- 0 3.0 0.0 5897 40 3753 0x10 40 0
+ 1.694864 2 3 tcp 40 ------- 0 0.0 3.0 8041 55 5897 0x10 40 0
- 1.694864 2 3 tcp 40 ------- 0 0.0 3.0 8041 55 5897 0x10 40 0
r 1.695584 2 3 tcp 576 ------- 0 0.0 3.0 6433 43 3753 0x10 40 0
r 1.695584 2 0 tcp 576 ------- 0 3.0 0.0 5897 40 3753 0x10 40 0
+ 1.695768 2 0 tcp 576 ------- 0 3.0 0.0 6433 41 3753 0x10 40 0
- 1.695768 2 0 tcp 576 ------- 0 3.0 0.0 6433 41 3753 0x10 40 0
+ 1.700624 2 3 tcp 40 ------- 0 0.0 3.0 8041 57 6433 0x10 40 0
- 1.700624 2 3 tcp 40 ------- 0 0.0 3.0 8041 57 6433 0x10 40 0
r 1.701344 2 3 tcp 576 ------- 0 0.0 3.0 6969 46 3753 0x10 40 0
r 1.701344 2 0 tcp 576 ------- 0 3.0 0.0 6433 41 3753 0x10 40 0
+ 1.701528 2 0 tcp 576 ------- 0 3.0 0.0 6969 44 3753 0x10 40 0
- 1.701528 2 0 tcp 576 ------- 0 3.0 0.0 6969 44 3753 0x10 40 0
+ 1.706384 2 3 tcp 40 ------- 0 0.0 3.0 8041 59 6969 0x10 40 0
- 1.706384 2 3 tcp 40 ------- 0 0.0 3.0 8041 59 6969 0x10 40 0
r 1.707104 2 3 tcp 576 ------- 0 0.0 3.0 7505 47 3753 0x10 40 0
r 1.707104 2 0 tcp 576 ------- 0 3.0 0.0 6969 44 3753 0x10 40 0
+ 1.707288 2 0 tcp 576 ------- 0 3.0 0.0 7505 45 3753 0x10 40 0
- 1.707288 2 0 tcp 576 ------- 0 3.0 0.0 7505 45 3753 0x10 40 0
+ 1.712144 2 3 tcp 40 ------- 0 0.0 3.0 8041 61 7505 0x10 40 0
- 1.712144 2 3 tcp 40 ------- 0 0.0 3.0 8041 61 7505 0x10 40 0
r 1.712864 2 0 tcp 576 ------- 0 3.0 0.0 7505 45 3753 0x10 40 0
+ 1.717904 2 3 tcp 40 ------- 0 0.0 3.0 8041 62 8041 0x10 40 0
- 1.717904 2 3 tcp 40 ------- 0 0.0 3.0 8041 62 8041 0x10 40 0
+ 1.772944 2 0 tcp 40 ------- 0 3.0 0.0 8041 48 4289 0x10 40 0
- 1.772944 2 0 tcp 40 ------- 0 3.0 0.0 8041 48 4289 0x10 40 0
r 1.777984 2 3 tcp 40 ------- 0 0.0 3.0 8041 49 4289 0x10 40 0
r 1.777984 2 0 tcp 40 ------- 0 3.0 0.0 8041 48 4289 0x10 40 0
+ 1.778704 2 0 tcp 40 ------- 0 3.0 0.0 8041 50 4825 0x10 40 0
- 1.778704 2 0 tcp 40 ------- 0 3.0 0.0 8041 50 4825 0x10 40 0
+ 1.78356 2 3 tcp 576 ------- 0 0.0 3.0 8041 65 8041 0x10 40 0
- 1.78356 2 3 tcp 576 ------- 0 0.0 3.0 8041 65 8041 0x10 40 0
r 1.783744 2 3 tcp 40 ------- 0 0.0 3.0 8041 51 4825 0x10 40 0
r 1.783744 2 0 tcp 40 ------- 0 3.0 0.0 8041 50 4825 0x10 40 0
+ 1.784136 2 3 tcp 576 ------- 0 0.0 3.0 8577 66 8041 0x10 40 0
+ 1.784464 2 0 tcp 40 ------- 0 3.0 0.0 8041 52 5361 0x10 40 0
- 1.784464 2 0 tcp 40 ------- 0 3.0 0.0 8041 52 5361 0x10 40 0
- 1.78932 2 3 tcp 576 ------- 0 0.0 3.0 8577 66 8041 0x10 40 0
+ 1.78932 2 3 tcp 576 ------- 0 0.0 3.0 9113 69 8041 0x10 40 0
r 1.789504 2 3 tcp 40 ------- 0 0.0 3.0 8041 53 5361 0x10 40 0
r 1.789504 2 0 tcp 40 ------- 0 3.0 0.0 8041 52 5361 0x10 40 0
+ 1.789896 2 3 tcp 576 ------- 0 0.0 3.0 9649 70 8041 0x10 40 0
+ 1.790224 2 0 tcp 40 ------- 0 3.0 0.0 8041 54 5361 0x10 40 0
- 1.790224 2 0 tcp 40 ------- 0 3.0 0.0 8041 54 5361 0x10 40 0
- 1.79508 2 3 tcp 576 ------- 0 0.0 3.0 9113 69 8041 0x10 40 0
+ 1.79508 2 3 tcp 576 ------- 0 0.0 3.0 10185 73 8041 0x10 40 0
r 1.795264 2 3 tcp 40 ------- 0 0.0 3.0 8041 55 5897 0x10 40 0
r 1.795264 2 0 tcp 40 ------- 0 3.0 0.0 8041 54 5361 0x10 40 0
+ 1.795656 2 3 tcp 576 ------- 0 0.0 3.0 10721 74 8041 0x10 40 0
+ 1.795984 2 0 tcp 40 ------- 0 3.0 0.0 8041 56 5361 0x10 40 0
- 1.795984 2 0 tcp 40 ------- 0 3.0 0.0 8041 56 5361 0x10 40 0
- 1.80084 2 3 tcp 576 ------- 0 0.0 3.0 9649 70 8041 0x10 40 0
r 1.801024 2 3 tcp 40 ------- 0 0.0 3.0 8041 57 6433 0x10 40 0
r 1.801024 2 0 tcp 40 ------- 0 3.0 0.0 8041 56 5361 0x10 40 0
+ 1.801744 2 0 tcp 40 ------- 0 3.0 0.0 8041 58 5361 0x10 40 0
- 1.801744 2 0 tcp 40 ------- 0 3.0 0.0 8041 58 5361 0x10 40 0
- 1.8066 2 3 tcp 576 ------- 0 0.0 3.0 10185 73 8041 0x10 40 0
r 1.806784 2 3 tcp 40 ------- 0 0.0 3.0 8041 59 6969 0x10 40 0
r 1.806784 2 0 tcp 40 ------- 0 3.0 0.0 8041 58 5361 0x10 40 0
+ 1.807504 2 0 tcp 40 ------- 0 3.0 0.0 8041 60 5361 0x10 40 0
- 1.807504 2 0 tcp 40 ------- 0 3.0 0.0 8041 60 5361 0x10 40 0
- 1.81236 2 3 tcp 576 ------- 0 0.0 3.0 10721 74 8041 0x10 40 0
+ 1.81236 2 3 tcp 576 ------- 0 0.0 3.0 5361 81 8041 0x10 40 0
r 1.812544 2 3 tcp 40 ------- 0 0.0 3.0 8041 61 7505 0x10 40 0
r 1.812544 2 0 tcp 40 ------- 0 3.0 0.0 8041 60 5361 0x10 40 0
- 1.81812 2 3 tcp 576 ------- 0 0.0 3.0 5361 81 8041 0x10 40 0
r 1.818304 2 3 tcp 40 ------- 0 0.0 3.0 8041 62 8041 0x10 40 0
+ 1.883744 2 0 tcp 576 ------- 0 3.0 0.0 8041 63 5361 0x10 40 0
- 1.883744 2 0 tcp 576 ------- 0 3.0 0.0 8041 63 5361 0x10 40 0
r 1.88932 2 3 tcp 576 ------- 0 0.0 3.0 8041 65 8041 0x10 40 0
r 1.88932 2 0 tcp 576 ------- 0 3.0 0.0 8041 63 5361 0x10 40 0
+ 1.889504 2 0 tcp 576 ------- 0 3.0 0.0 8577 64 5361 0x10 40 0
- 1.889504 2 0 tcp 576 ------- 0 3.0 0.0 8577 64 5361 0x10 40 0
+ 1.89436 2 3 tcp 40 ------- 0 0.0 3.0 11257 87 8577 0x10 40 0
- 1.89436 2 3 tcp 40 ------- 0 0.0 3.0 11257 87 8577 0x10 40 0
r 1.89508 2 3 tcp 576 ------- 0 0.0 3.0 8577 66 8041 0x10 40 0
r 1.89508 2 0 tcp 576 ------- 0 3.0 0.0 8577 64 5361 0x10 40 0
+ 1.895264 2 0 tcp 576 ------- 0 3.0 0.0 9113 67 5361 0x10 40 0
- 1.895264 2 0 tcp 576 ------- 0 3.0 0.0 9113 67 5361 0x10 40 0
+ 1.90012 2 3 tcp 40 ------- 0 0.0 3.0 11257 89 9113 0x10 40 0
- 1.90012 2 3 tcp 40 ------- 0 0.0 3.0 11257 89 9113 0x10 40 0
r 1.90084 2 3 tcp 576 ------- 0 0.0 3.0 9113 69 8041 0x10 40 0
r 1.90084 2 0 tcp 576 ------- 0 3.0 0.0 9113 67 5361 0x10 40 0
+ 1.901024 2 0 tcp 576 ------- 0 3.0 0.0 9649 68 5361 0x10 40 0
- 1.901024 2 0 tcp 576 ------- 0 3.0 0.0 9649 68 5361 0x10 40 0
+ 1.90588 2 3 tcp 40 ------- 0 0.0 3.0 11257 91 9649 0x10 40 0
- 1.90588 2 3 tcp 40 ------- 0 0.0 3.0 11257 91 9649 0x10 40 0
r 1.9066 2 3 tcp 576 ------- 0 0.0 3.0 9649 70 8041 0x10 40 0
r 1.9066 2 0 tcp 576 ------- 0 3.0 0.0 9649 68 5361 0x10 40 0
+ 1.906784 2 0 tcp 576 ------- 0 3.0 0.0 10185 71 5361 0x10 40 0
- 1.906784 2 0 tcp 576 ------- 0 3.0 0.0 10185 71 5361 0x10 40 0
+ 1.91164 2 3 tcp 40 ------- 0 0.0 3.0 11257 93 10185 0x10 40 0
- 1.91164 2 3 tcp 40 ------- 0 0.0 3.0 11257 93 10185 0x10 40 0
r 1.91236 2 3 tcp 576 ------- 0 0.0 3.0 10185 73 8041 0x10 40 0
r 1.91236 2 0 tcp 576 ------- 0 3.0 0.0 10185 71 5361 0x10 40 0
+ 1.912544 2 0 tcp 576 ------- 0 3.0 0.0 10721 72 5361 0x10 40 0
- 1.912544 2 0 tcp 576 ------- 0 3.0 0.0 10721 72 5361 0x10 40 0
+ 1.9174 2 3 tcp 40 ------- 0 0.0 3.0 11257 95 10721 0x10 40 0
- 1.9174 2 3 tcp 40 ------- 0 0.0 3.0 11257 95 10721 0x10 40 0
r 1.91812 2 3 tcp 576 ------- 0 0.0 3.0 10721 74 8041 0x10 40 0
r 1.91812 2 0 tcp 576 ------- 0 3.0 0.0 10721 72 5361 0x10 40 0
+ 1.918304 2 0 tcp 576 ------- 0 3.0 0.0 11257 75 5361 0x10 40 0
- 1.918304 2 0 tcp 576 ------- 0 3.0 0.0 11257 75 5361 0x10 40 0
+ 1.92316 2 3 tcp 40 ------- 0 0.0 3.0 11257 97 11257 0x10 40 0
d 1.92316 2 3 tcp 40 ------- 0 0.0 3.0 11257 97 11257 0x10 40 0
r 1.92388 2 3 tcp 576 ------- 0 0.0 3.0 5361 81 8041 0x10 40 0
r 1.92388 2 0 tcp 576 ------- 0 3.0 0.0 11257 75 5361 0x10 40 0
+ 1.924064 2 0 tcp 576 ------- 0 3.0 0.0 11793 76 5361 0x10 40 0
- 1.924064 2 0 tcp 576 ------- 0 3.0 0.0 11793 76 5361 0x10 40 0
+ 1.92892 2 3 tcp 40 ------- 0 0.0 3.0 11257 99 11793 0x10 40 0
- 1.92892 2 3 tcp 40 ------- 0 0.0 3.0 11257 99 11793 0x10 40 0
r 1.92964 2 0 tcp 576 ------- 0 3.0 0.0 11793 76 5361 0x10 40 0
+ 1.929824 2 0 tcp 576 ------- 0 3.0 0.0 12329 77 5361 0x10 40 0
- 1.929824 2 0 tcp 576 ------- 0 3.0 0.0 12329 77 5361 0x10 40 0
+ 1.93468 2 3 tcp 40 ------- 0 0.0 3.0 11257 100 12329 0x10 40 0
- 1.93468 2 3 tcp 40 ------- 0 0.0 3.0 11257 100 12329 0x10 40 0
r 1.9354 2 0 tcp 576 ------- 0 3.0 0.0 12329 77 5361 0x10 40 0
+ 1.935584 2 0 tcp 576 ------- 0 3.0 0.0 13401 79 5361 0x10 40 0
- 1.935584 2 0 tcp 576 ------- 0 3.0 0.0 13401 79 5361 0x10 40 0
+ 1.94044 2 3 tcp 40 ------- 0 0.0 3.0 11257 101 12865 0x10 40 0
- 1.94044 2 3 tcp 40 ------- 0 0.0 3.0 11257 101 12865 0x10 40 0
r 1.94116 2 0 tcp 576 ------- 0 3.0 0.0 13401 79 5361 0x10 40 0
+ 1.941344 2 0 tcp 576 ------- 0 3.0 0.0 14473 82 5361 0x10 40 0
- 1.941344 2 0 tcp 576 ------- 0 3.0 0.0 14473 82 5361 0x10 40 0
+ 1.9462 2 3 tcp 40 ------- 0 0.0 3.0 11257 102 12865 0x10 40 0
- 1.9462 2 3 tcp 40 ------- 0 0.0 3.0 11257 102 12865 0x10 40 0
r 1.94692 2 0 tcp 576 ------- 0 3.0 0.0 14473 82 5361 0x10 40 0
+ 1.947104 2 0 tcp 576 ------- 0 3.0 0.0 15545 84 5361 0x10 40 0
- 1.947104 2 0 tcp 576 ------- 0 3.0 0.0 15545 84 5361 0x10 40 0
+ 1.95196 2 3 tcp 40 ------- 0 0.0 3.0 11257 103 12865 0x10 40 0
- 1.95196 2 3 tcp 40 ------- 0 0.0 3.0 11257 103 12865 0x10 40 0
r 1.95268 2 0 tcp 576 ------- 0 3.0 0.0 15545 84 5361 0x10 40 0
+ 1.95772 2 3 tcp 40 ------- 0 0.0 3.0 11257 104 12865 0x10 40 0
- 1.95772 2 3 tcp 40 ------- 0 0.0 3.0 11257 104 12865 0x10 40 0
+ 1.98972 2 0 tcp 40 ------- 0 3.0 0.0 16617 86 5361 0x10 40 0
- 1.98972 2 0 tcp 40 ------- 0 3.0 0.0 16617 86 5361 0x10 40 0
r 1.99476 2 3 tcp 40 ------- 0 0.0 3.0 11257 87 8577 0x10 40 0
r 1.99476 2 0 tcp 40 ------- 0 3.0 0.0 16617 86 5361 0x10 40 0
+ 1.99548 2 0 tcp 40 ------- 0 3.0 0.0 16617 88 5361 0x10 40 0
- 1.99548 2 0 tcp 40 ------- 0 3.0 0.0 16617 88 5361 0x10 40 0
r 2.00052 2 3 tcp 40 ------- 0 0.0 3.0 11257 89 9113 0x10 40 0
r 2.00052 2 0 tcp 40 ------- 0 3.0 0.0 16617 88 5361 0x10 40 0
+ 2.00124 2 0 tcp 40 ------- 0 3.0 0.0 16617 90 5361 0x10 40 0
- 2.00124 2 0 tcp 40 ------- 0 3.0 0.0 16617 90 5361 0x10 40 0
r 2.00628 2 3 tcp 40 ------- 0 0.0 3.0 11257 91 9649 0x10 40 0
r 2.00628 2 0 tcp 40 ------- 0 3.0 0.0 16617 90 5361 0x10 40 0
+ 2.007 2 0 tcp 40 ------- 0 3.0 0.0 16617 92 5361 0x10 40 0
- 2.007 2 0 tcp 40 ------- 0 3.0 0.0 16617 92 5361 0x10 40 0
+ 2.011856 2 3 tcp 576 ---A--- 0 0.0 3.0 11257 111 12865 0x90 40 0
- 2.011856 2 3 tcp 576 ---A--- 0 0.0 3.0 11257 111 12865 0x90 40 0
r 2.01204 2 3 tcp 40 ------- 0 0.0 3.0 11257 93 10185 0x10 40 0
r 2.01204 2 0 tcp 40 ------- 0 3.0 0.0 16617 92 5361 0x10 40 0
+ 2.01276 2 0 tcp 40 ------- 0 3.0 0.0 16617 94 5361 0x10 40 0
- 2.01276 2 0 tcp 40 ------- 0 3.0 0.0 16617 94 5361 0x10 40 0
+ 2.017616 2 3 tcp 576 ------- 0 0.0 3.0 11793 114 12865 0x10 40 0
- 2.017616 2 3 tcp 576 ------- 0 0.0 3.0 11793 114 12865 0x10 40 0
r 2.0178 2 3 tcp 40 ------- 0 0.0 3.0 11257 95 10721 0x10 40 0
r 2.0178 2 0 tcp 40 ------- 0 3.0 0.0 16617 94 5361 0x10 40 0
+ 2.01852 2 0 tcp 40 ------- 0 3.0 0.0 16617 96 5361 0x10 40 0
- 2.01852 2 0 tcp 40 ------- 0 3.0 0.0 16617 96 5361 0x10 40 0
+ 2.023376 2 3 tcp 576 ------- 0 0.0 3.0 12329 117 12865 0x10 40 0
- 2.023376 2 3 tcp 576 ------- 0 0.0 3.0 12329 117 12865 0x10 40 0
r 2.02356 2 0 tcp 40 ------- 0 3.0 0.0 16617 96 5361 0x10 40 0
+ 2.02428 2 0 tcp 40 ------- 0 3.0 0.0 16617 98 11257 0x10 40 0
- 2.02428 2 0 tcp 40 ------- 0 3.0 0.0 16617 98 11257 0x10 40 0
+ 2.029136 2 3 tcp 576 ------- 0 0.0 3.0 12865 118 12865 0x10 40 0
- 2.029136 2 3 tcp 576 ------- 0 0.0 3.0 12865 118 12865 0x10 40 0
r 2.02932 2 3 tcp 40 ------- 0 0.0 3.0 11257 99 11793 0x10 40 0
r 2.02932 2 0 tcp 40 ------- 0 3.0 0.0 16617 98 11257 0x10 40 0
+ 2.034896 2 3 tcp 576 ------- 0 0.0 3.0 13401 122 12865 0x10 40 0
- 2.034896 2 3 tcp 576 ------- 0 0.0 3.0 13401 122 12865 0x10 40 0
r 2.03508 2 3 tcp 40 ------- 0 0.0 3.0 11257 100 12329 0x10 40 0
r 2.04084 2 3 tcp 40 ------- 0 0.0 3.0 11257 101 12865 0x10 40 0
r 2.0466 2 3 tcp 40 ------- 0 0.0 3.0 11257 102 12865 0x10 40 0
r 2.05236 2 3 tcp 40 ------- 0 0.0 3.0 11257 103 12865 0x10 40 0
r 2.05812 2 3 tcp 40 ------- 0 0.0 3.0 11257 104 12865 0x10 40 0
+ 2.10052 2 0 tcp 576 ------- 0 3.0 0.0 16617 105 11257 0x10 40 0
- 2.10052 2 0 tcp 576 ------- 0 3.0 0.0 16617 105 11257 0x10 40 0
r 2.106096 2 0 tcp 576 ------- 0 3.0 0.0 16617 105 11257 0x10 40 0
+ 2.10628 2 0 tcp 576 ------- 0 3.0 0.0 17153 106 11257 0x10 40 0
- 2.10628 2 0 tcp 576 ------- 0 3.0 0.0 17153 106 11257 0x10 40 0
+ 2.111136 2 3 tcp 40 ------- 0 0.0 3.0 13937 128 12865 0x10 40 0
- 2.111136 2 3 tcp 40 ------- 0 0.0 3.0 13937 128 12865 0x10 40 0
r 2.111856 2 0 tcp 576 ------- 0 3.0 0.0 17153 106 11257 0x10 40 0
+ 2.11204 2 0 tcp 576 ------- 0 3.0 0.0 17689 107 11257 0x10 40 0
- 2.11204 2 0 tcp 576 ------- 0 3.0 0.0 17689 107 11257 0x10 40 0
+ 2.116896 2 3 tcp 40 ------- 0 0.0 3.0 13937 129 12865 0x10 40 0
- 2.116896 2 3 tcp 40 ------- 0 0.0 3.0 13937 129 12865 0x10 40 0
r 2.117616 2 3 tcp 576 ---A--- 0 0.0 3.0 11257 111 12865 0x90 40 0
r 2.117616 2 0 tcp 576 ------- 0 3.0 0.0 17689 107 11257 0x10 40 0
+ 2.1178 2 0 tcp 576 ------- 0 3.0 0.0 18225 108 11257 0x10 40 0
- 2.1178 2 0 tcp 576 ------- 0 3.0 0.0 18225 108 11257 0x10 40 0
+ 2.122656 2 3 tcp 40 ------- 0 0.0 3.0 13937 131 12865 0x10 40 0
- 2.122656 2 3 tcp 40 ------- 0 0.0 3.0 13937 131 12865 0x10 40 0
r 2.123376 2 3 tcp 576 ------- 0 0.0 3.0 11793 114 12865 0x10 40 0
r 2.123376 2 0 tcp 576 ------- 0 3.0 0.0 18225 108 11257 0x10 40 0
+ 2.12356 2 0 tcp 576 ------- 0 3.0 0.0 18761 109 11257 0x10 40 0
- 2.12356 2 0 tcp 576 ------- 0 3.0 0.0 18761 109 11257 0x10 40 0
+ 2.128416 2 3 tcp 40 ------- 0 0.0 3.0 13937 133 12865 0x10 40 0
- 2.128416 2 3 tcp 40 ------- 0 0.0 3.0 13937 133 12865 0x10 40 0
r 2.129136 2 3 tcp 576 ------- 0 0.0 3.0 12329 117 12865 0x10 40 0
r 2.129136 2 0 tcp 576 ------- 0 3.0 0.0 18761 109 11257 0x10 40 0
+ 2.12932 2 0 tcp 576 ------- 0 3.0 0.0 19297 110 11257 0x10 40 0
- 2.12932 2 0 tcp 576 ------- 0 3.0 0.0 19297 110 11257 0x10 40 0
+ 2.134176 2 3 tcp 40 ------- 0 0.0 3.0 13937 135 12865 0x10 40 0
- 2.134176 2 3 tcp 40 ------- 0 0.0 3.0 13937 135 12865 0x10 40 0
r 2.134896 2 3 tcp 576 ------- 0 0.0 3.0 12865 118 12865 0x10 40 0
r 2.134896 2 0 tcp 576 ------- 0 3.0 0.0 19297 110 11257 0x10 40 0
+ 2.13508 2 0 tcp 576 ------- 0 3.0 0.0 19833 112 11257 0x10 40 0
- 2.13508 2 0 tcp 576 ------- 0 3.0 0.0 19833 112 11257 0x10 40 0
+ 2.139936 2 3 tcp 40 ------- 0 0.0 3.0 13937 137 12865 0x10 40 0
- 2.139936 2 3 tcp 40 ------- 0 0.0 3.0 13937 137 12865 0x10 40 0
r 2.140656 2 3 tcp 576 ------- 0 0.0 3.0 13401 122 12865 0x10 40 0
r 2.140656 2 0 tcp 576 ------- 0 3.0 0.0 19833 112 11257 0x10 40 0
+ 2.14084 2 0 tcp 576 ------- 0 3.0 0.0 20369 113 11257 0x10 40 0
- 2.14084 2 0 tcp 576 ------- 0 3.0 0.0 20369 113 11257 0x10 40 0
+ 2.145696 2 3 tcp 40 ------- 0 0.0 3.0 13937 139 12865 0x10 40 0
- 2.145696 2 3 tcp 40 ------- 0 0.0 3.0 13937 139 12865 0x10 40 0
r 2.146416 2 0 tcp 576 ------- 0 3.0 0.0 20369 113 11257 0x10 40 0
+ 2.1466 2 0 tcp 576 ------- 0 3.0 0.0 20905 115 11257 0x10 40 0
- 2.1466 2 0 tcp 576 ------- 0 3.0 0.0 20905 115 11257 0x10 40 0
+ 2.151456 2 3 tcp 40 ------- 0 0.0 3.0 13937 140 12865 0x10 40 0
- 2.151456 2 3 tcp 40 ------- 0 0.0 3.0 13937 140 12865 0x10 40 0
r 2.152176 2 0 tcp 576 ------- 0 3.0 0.0 20905 115 11257 0x10 40 0
+ 2.15236 2 0 tcp 576 ------- 0 3.0 0.0 21977 119 11257 0x10 40 0
- 2.15236 2 0 tcp 576 ------- 0 3.0 0.0 21977 119 11257 0x10 40 0
+ 2.157216 2 3 tcp 40 ------- 0 0.0 3.0 13937 141 12865 0x10 40 0
- 2.157216 2 3 tcp 40 ------- 0 0.0 3.0 13937 141 12865 0x10 40 0
r 2.157936 2 0 tcp 576 ------- 0 3.0 0.0 21977 119 11257 0x10 40 0
+ 2.15812 2 0 tcp 576 ------- 0 3.0 0.0 22513 120 11257 0x10 40 0
- 2.15812 2 0 tcp 576 ------- 0 3.0 0.0 22513 120 11257 0x10 40 0
+ 2.162976 2 3 tcp 40 ------- 0 0.0 3.0 13937 142 12865 0x10 40 0
- 2.162976 2 3 tcp 40 ------- 0 0.0 3.0 13937 142 12865 0x10 40 0
r 2.163696 2 0 tcp 576 ------- 0 3.0 0.0 22513 120 11257 0x10 40 0
+ 2.16388 2 0 tcp 576 ------- 0 3.0 0.0 23585 123 11257 0x10 40 0
- 2.16388 2 0 tcp 576 ------- 0 3.0 0.0 23585 123 11257 0x10 40 0
+ 2.168736 2 3 tcp 40 ------- 0 0.0 3.0 13937 143 12865 0x10 40 0
- 2.168736 2 3 tcp 40 ------- 0 0.0 3.0 13937 143 12865 0x10 40 0
r 2.169456 2 0 tcp 576 ------- 0 3.0 0.0 23585 123 11257 0x10 40 0
+ 2.16964 2 0 tcp 576 ------- 0 3.0 0.0 24657 125 11257 0x10 40 0
- 2.16964 2 0 tcp 576 ------- 0 3.0 0.0 24657 125 11257 0x10 40 0
+ 2.174496 2 3 tcp 40 ------- 0 0.0 3.0 13937 144 12865 0x10 40 0
- 2.174496 2 3 tcp 40 ------- 0 0.0 3.0 13937 144 12865 0x10 40 0
r 2.175216 2 0 tcp 576 ------- 0 3.0 0.0 24657 125 11257 0x10 40 0
+ 2.1754 2 0 tcp 576 ------- 0 3.0 0.0 12865 127 11257 0x10 40 0
- 2.1754 2 0 tcp 576 ------- 0 3.0 0.0 12865 127 11257 0x10 40 0
+ 2.180256 2 3 tcp 40 ------- 0 0.0 3.0 13937 145 12865 0x10 40 0
- 2.180256 2 3 tcp 40 ------- 0 0.0 3.0 13937 145 12865 0x10 40 0
r 2.180976 2 0 tcp 576 ------- 0 3.0 0.0 12865 127 11257 0x10 40 0
+ 2.186016 2 3 tcp 40 ------- 0 0.0 3.0 13937 146 13937 0x10 40 0
d 2.186016 2 3 tcp 40 ------- 0 0.0 3.0 13937 146 13937 0x10 40 0
r 2.211536 2 3 tcp 40 ------- 0 0.0 3.0 13937 128 12865 0x10 40 0
r 2.217296 2 3 tcp 40 ------- 0 0.0 3.0 13937 129 12865 0x10 40 0
+ 2.218016 2 0 tcp 40 ------- 0 3.0 0.0 25729 130 11793 0x10 40 0
- 2.218016 2 0 tcp 40 ------- 0 3.0 0.0 25729 130 11793 0x10 40 0
r 2.223056 2 3 tcp 40 ------- 0 0.0 3.0 13937 131 12865 0x10 40 0
r 2.223056 2 0 tcp 40 ------- 0 3.0 0.0 25729 130 11793 0x10 40 0
+ 2.223776 2 0 tcp 40 ------- 0 3.0 0.0 25729 132 12329 0x10 40 0
- 2.223776 2 0 tcp 40 ------- 0 3.0 0.0 25729 132 12329 0x10 40 0
+ 2.228632 2 3 tcp 576 ------- 0 0.0 3.0 13937 147 13937 0x10 40 0
- 2.228632 2 3 tcp 576 ------- 0 0.0 3.0 13937 147 13937 0x10 40 0
r 2.228816 2 3 tcp 40 ------- 0 0.0 3.0 13937 133 12865 0x10 40 0
r 2.228816 2 0 tcp 40 ------- 0 3.0 0.0 25729 132 12329 0x10 40 0
+ 2.229536 2 0 tcp 40 ------- 0 3.0 0.0 25729 134 12865 0x10 40 0
- 2.229536 2 0 tcp 40 ------- 0 3.0 0.0 25729 134 12865 0x10 40 0
+ 2.234392 2 3 tcp 576 ------- 0 0.0 3.0 14473 148 13937 0x10 40 0
- 2.234392 2 3 tcp 576 ------- 0 0.0 3.0 14473 148 13937 0x10 40 0
r 2.234576 2 3 tcp 40 ------- 0 0.0 3.0 13937 135 12865 0x10 40 0
r 2.234576 2 0 tcp 40 ------- 0 3.0 0.0 25729 134 12865 0x10 40 0
+ 2.235296 2 0 tcp 40 ------- 0 3.0 0.0 25729 136 13401 0x10 40 0
- 2.235296 2 0 tcp 40 ------- 0 3.0 0.0 25729 136 13401 0x10 40 0
+ 2.240152 2 3 tcp 576 ------- 0 0.0 3.0 15009 149 13937 0x10 40 0
- 2.240152 2 3 tcp 576 ------- 0 0.0 3.0 15009 149 13937 0x10 40 0
r 2.240336 2 3 tcp 40 ------- 0 0.0 3.0 13937 137 12865 0x10 40 0
r 2.240336 2 0 tcp 40 ------- 0 3.0 0.0 25729 136 13401 0x10 40 0
+ 2.241056 2 0 tcp 40 ------- 0 3.0 0.0 25729 138 13937 0x10 40 0
- 2.241056 2 0 tcp 40 ------- 0 3.0 0.0 25729 138 13937 0x10 40 0
+ 2.245912 2 3 tcp 576 ------- 0 0.0 3.0 15545 150 13937 0x10 40 0
- 2.245912 2 3 tcp 576 ------- 0 0.0 3.0 15545 150 13937 0x10 40 0
r 2.246096 2 3 tcp 40 ------- 0 0.0 3.0 13937 139 12865 0x10 40 0
r 2.246096 2 0 tcp 40 ------- 0 3.0 0.0 25729 138 13937 0x10 40 0
+ 2.251672 2 3 tcp 576 ------- 0 0.0 3.0 16081 151 13937 0x10 40 0
- 2.251672 2 3 tcp 576 ------- 0 0.0 3.0 16081 151 13937 0x10 40 0
r 2.251856 2 3 tcp 40 ------- 0 0.0 3.0 13937 140 12865 0x10 40 0
+ 2.252248 2 3 tcp 576 ------- 0 0.0 3.0 16617 152 13937 0x10 40 0
- 2.257432 2 3 tcp 576 ------- 0 0.0 3.0 16617 152 13937 0x10 40 0
r 2.257616 2 3 tcp 40 ------- 0 0.0 3.0 13937 141 12865 0x10 40 0
r 2.263376 2 3 tcp 40 ------- 0 0.0 3.0 13937 142 12865 0x10 40 0
r 2.269136 2 3 tcp 40 ------- 0 0.0 3.0 13937 143 12865 0x10 40 0
r 2.274896 2 3 tcp 40 ------- 0 0.0 3.0 13937 144 12865 0x10 40 0
r 2.280656 2 3 tcp 40 ------- 0 0.0 3.0 13937 145 12865 0x10 40 0
r 2.334392 2 3 tcp 576 ------- 0 0.0 3.0 13937 147 13937 0x10 40 0
r 2.340152 2 3 tcp 576 ------- 0 0.0 3.0 14473 148 13937 0x10 40 0
r 2.345912 2 3 tcp 576 ------- 0 0.0 3.0 15009 149 13937 0x10 40 0
r 2.351672 2 3 tcp 576 ------- 0 0.0 3.0 15545 150 13937 0x10 40 0
r 2.357432 2 3 tcp 576 ------- 0 0.0 3.0 16081 151 13937 0x10 40 0
r 2.363192 2 3 tcp 576 ------- 0 0.0 3.0 16617 152 13937 0x10 40 0
+ 2.369136 2 0 tcp 576 ---A--- 0 3.0 0.0 25729 153 13937 0x90 40 0
- 2.369136 2 0 tcp 576 ---A--- 0 3.0 0.0 25729 153 13937 0x90 40 0
r 2.374712 2 0 tcp 576 ---A--- 0 3.0 0.0 25729 153 13937 0x90 40 0
+ 2.374896 2 0 tcp 576 ------- 0 3.0 0.0 26265 154 13937 0x10 40 0
- 2.374896 2 0 tcp 576 ------- 0 3.0 0.0 26265 154 13937 0x10 40 0
+ 2.379752 2 3 tcp 40 ------- 0 0.0 3.0 17153 163 13937 0x10 40 0
- 2.379752 2 3 tcp 40 ------- 0 0.0 3.0 17153 163 13937 0x10 40 0
r 2.380472 2 0 tcp 576 ------- 0 3.0 0.0 26265 154 13937 0x10 40 0
+ 2.380656 2 0 tcp 576 ------- 0 3.0 0.0 26801 155 13937 0x10 40 0
- 2.380656 2 0 tcp 576 ------- 0 3.0 0.0 26801 155 13937 0x10 40 0
+ 2.385512 2 3 tcp 40 ------- 0 0.0 3.0 17153 164 13937 0x10 40 0
- 2.385512 2 3 tcp 40 ------- 0 0.0 3.0 17153 164 13937 0x10 40 0
r 2.386232 2 0 tcp 576 ------- 0 3.0 0.0 26801 155 13937 0x10 40 0
+ 2.386416 2 0 tcp 576 ------- 0 3.0 0.0 27337 156 13937 0x10 40 0
- 2.386416 2 0 tcp 576 ------- 0 3.0 0.0 27337 156 13937 0x10 40 0
+ 2.391272 2 3 tcp 40 ------- 0 0.0 3.0 17153 165 13937 0x10 40 0
- 2.391272 2 3 tcp 40 ------- 0 0.0 3.0 17153 165 13937 0x10 40 0
r 2.391992 2 0 tcp 576 ------- 0 3.0 0.0 27337 156 13937 0x10 40 0
+ 2.397032 2 3 tcp 40 ------- 0 0.0 3.0 17153 166 13937 0x10 40 0
- 2.397032 2 3 tcp 40 ------- 0 0.0 3.0 17153 166 13937 0x10 40 0
+ 2.434792 2 0 tcp 40 ------- 0 3.0 0.0 27873 157 14473 0x10 40 0
- 2.434792 2 0 tcp 40 ------- 0 3.0 0.0 27873 157 14473 0x10 40 0
r 2.439832 2 0 tcp 40 ------- 0 3.0 0.0 27873 157 14473 0x10 40 0
+ 2.440552 2 0 tcp 40 ------- 0 3.0 0.0 27873 158 15009 0x10 40 0
- 2.440552 2 0 tcp 40 ------- 0 3.0 0.0 27873 158 15009 0x10 40 0
+ 2.445408 2 3 tcp 576 ------- 0 0.0 3.0 17153 167 13937 0x10 40 0
- 2.445408 2 3 tcp 576 ------- 0 0.0 3.0 17153 167 13937 0x10 40 0
r 2.445592 2 0 tcp 40 ------- 0 3.0 0.0 27873 158 15009 0x10 40 0
+ 2.446312 2 0 tcp 40 ------- 0 3.0 0.0 27873 159 15545 0x10 40 0
- 2.446312 2 0 tcp 40 ------- 0 3.0 0.0 27873 159 15545 0x10 40 0
+ 2.451168 2 3 tcp 576 ------- 0 0.0 3.0 17689 168 13937 0x10 40 0
- 2.451168 2 3 tcp 576 ------- 0 0.0 3.0 17689 168 13937 0x10 40 0
r 2.451352 2 0 tcp 40 ------- 0 3.0 0.0 27873 159 15545 0x10 40 0
+ 2.452072 2 0 tcp 40 ------- 0 3.0 0.0 27873 160 16081 0x10 40 0
- 2.452072 2 0 tcp 40 ------- 0 3.0 0.0 27873 160 16081 0x10 40 0