v testName smallpkts
+ 0.50504 2 3 tcp 40 ------- 0 0.0 3.0 0 0 -1 0xa 40 0
- 0.50504 2 3 tcp 40 ------- 0 0.0 3.0 0 0 -1 0xa 40 0
r 0.60544 2 3 tcp 40 ------- 0 0.0 3.0 0 0 -1 0xa 40 0
+ 0.70584 2 0 ack 40 ------- 0 3.0 0.0 0 1 1 0x1a 40 0
- 0.70584 2 0 ack 40 ------- 0 3.0 0.0 0 1 1 0x1a 40 0
r 0.71088 2 0 ack 40 ------- 0 3.0 0.0 0 1 1 0x1a 40 0
+ 0.71592 2 3 tcp 40 ------- 0 0.0 3.0 1 2 1 0x10 40 0
- 0.71592 2 3 tcp 40 ------- 0 0.0 3.0 1 2 1 0x10 40 0
+ 0.71599 2 3 tcp 70 ------- 0 0.0 3.0 1 3 1 0x18 40 0
- 0.71632 2 3 tcp 70 ------- 0 0.0 3.0 1 3 1 0x18 40 0
r 0.81632 2 3 tcp 40 ------- 0 0.0 3.0 1 2 1 0x10 40 0
r 0.81702 2 3 tcp 70 ------- 0 0.0 3.0 1 3 1 0x18 40 0
+ 1.1004 2 0 ack 40 ------- 0 3.0 0.0 1 4 31 0x18 40 0
- 1.1004 2 0 ack 40 ------- 0 3.0 0.0 1 4 31 0x18 40 0
r 1.10544 2 0 ack 40 ------- 0 3.0 0.0 1 4 31 0x18 40 0
+ 1.11078 2 3 tcp 340 ------- 0 0.0 3.0 31 5 1 0x18 40 0
- 1.11078 2 3 tcp 340 ------- 0 0.0 3.0 31 5 1 0x18 40 0
r 1.21418 2 3 tcp 340 ------- 0 0.0 3.0 31 5 1 0x18 40 0
+ 1.5004 2 0 ack 40 ------- 0 3.0 0.0 1 6 331 0x18 40 0
- 1.5004 2 0 ack 40 ------- 0 3.0 0.0 1 6 331 0x18 40 0
r 1.50544 2 0 ack 40 ------- 0 3.0 0.0 1 6 331 0x18 40 0
