v testName slow-start-restart
+ 0.50504 2 3 tcp 40 ------- 0 0.0 3.0 0 0 -1 0xa 40 0
- 0.50504 2 3 tcp 40 ------- 0 0.0 3.0 0 0 -1 0xa 40 0
r 0.60544 2 3 tcp 40 ------- 0 0.0 3.0 0 0 -1 0xa 40 0
+ 0.70584 2 0 ack 40 ------- 0 3.0 0.0 0 1 1 0x1a 40 0
- 0.70584 2 0 ack 40 ------- 0 3.0 0.0 0 1 1 0x1a 40 0
r 0.71088 2 0 ack 40 ------- 0 3.0 0.0 0 1 1 0x1a 40 0
+ 0.71592 2 3 tcp 40 ------- 0 0.0 3.0 1 2 1 0x10 40 0
- 0.71592 2 3 tcp 40 ------- 0 0.0 3.0 1 2 1 0x10 40 0
+ 0.716496 2 3 tcp 576 ------- 0 0.0 3.0 1 3 1 0x10 40 0
- 0.716496 2 3 tcp 576 ------- 0 0.0 3.0 1 3 1 0x10 40 0
r 0.81632 2 3 tcp 40 ------- 0 0.0 3.0 1 2 1 0x10 40 0
r 0.822256 2 3 tcp 576 ------- 0 0.0 3.0 1 3 1 0x10 40 0
+ 0.922656 2 0 ack 40 ------- 0 3.0 0.0 1 4 537 0x18 40 0
- 0.922656 2 0 ack 40 ------- 0 3.0 0.0 1 4 537 0x18 40 0
r 0.927696 2 0 ack 40 ------- 0 3.0 0.0 1 4 537 0x18 40 0
+ 0.933272 2 3 tcp 576 ------- 0 0.0 3.0 537 5 1 0x10 40 0
- 0.933272 2 3 tcp 576 ------- 0 0.0 3.0 537 5 1 0x10 40 0
+ 0.933848 2 3 tcp 576 ------- 0 0.0 3.0 1073 6 1 0x10 40 0
- 0.939032 2 3 tcp 576 ------- 0 0.0 3.0 1073 6 1 0x10 40 0
r 1.039032 2 3 tcp 576 ------- 0 0.0 3.0 537 5 1 0x10 40 0
r 1.044792 2 3 tcp 576 ------- 0 0.0 3.0 1073 6 1 0x10 40 0
+ 1.139432 2 0 ack 40 ------- 0 3.0 0.0 1 7 1073 0x18 40 0
- 1.139432 2 0 ack 40 ------- 0 3.0 0.0 1 7 1073 0x18 40 0
r 1.144472 2 0 ack 40 ------- 0 3.0 0.0 1 7 1073 0x18 40 0
+ 1.145192 2 0 ack 40 ------- 0 3.0 0.0 1 8 1609 0x18 40 0
- 1.145192 2 0 ack 40 ------- 0 3.0 0.0 1 8 1609 0x18 40 0
+ 1.150048 2 3 tcp 576 ------- 0 0.0 3.0 1609 9 1 0x10 40 0
- 1.150048 2 3 tcp 576 ------- 0 0.0 3.0 1609 9 1 0x10 40 0
r 1.150232 2 0 ack 40 ------- 0 3.0 0.0 1 8 1609 0x18 40 0
+ 1.150624 2 3 tcp 576 ------- 0 0.0 3.0 2145 10 1 0x10 40 0
- 1.155808 2 3 tcp 576 ------- 0 0.0 3.0 2145 10 1 0x10 40 0
+ 1.155808 2 3 tcp 576 ------- 0 0.0 3.0 2681 11 1 0x10 40 0
+ 1.156384 2 3 tcp 576 ------- 0 0.0 3.0 3217 12 1 0x10 40 0
- 1.161568 2 3 tcp 576 ------- 0 0.0 3.0 2681 11 1 0x10 40 0
- 1.167328 2 3 tcp 576 ------- 0 0.0 3.0 3217 12 1 0x10 40 0
r 1.255808 2 3 tcp 576 ------- 0 0.0 3.0 1609 9 1 0x10 40 0
r 1.261568 2 3 tcp 576 ------- 0 0.0 3.0 2145 10 1 0x10 40 0
r 1.267328 2 3 tcp 576 ------- 0 0.0 3.0 2681 11 1 0x10 40 0
r 1.273088 2 3 tcp 576 ------- 0 0.0 3.0 3217 12 1 0x10 40 0
+ 1.356208 2 0 ack 40 ------- 0 3.0 0.0 1 13 2145 0x18 40 0
- 1.356208 2 0 ack 40 ------- 0 3.0 0.0 1 13 2145 0x18 40 0
r 1.361248 2 0 ack 40 ------- 0 3.0 0.0 1 13 2145 0x18 40 0
+ 1.361968 2 0 ack 40 ------- 0 3.0 0.0 1 14 2681 0x18 40 0
- 1.361968 2 0 ack 40 ------- 0 3.0 0.0 1 14 2681 0x18 40 0
+ 1.366824 2 3 tcp 576 ------- 0 0.0 3.0 3753 17 1 0x10 40 0
- 1.366824 2 3 tcp 576 ------- 0 0.0 3.0 3753 17 1 0x10 40 0
r 1.367008 2 0 ack 40 ------- 0 3.0 0.0 1 14 2681 0x18 40 0
+ 1.3674 2 3 tcp 576 ------- 0 0.0 3.0 4289 18 1 0x10 40 0
+ 1.367728 2 0 ack 40 ------- 0 3.0 0.0 1 15 3217 0x18 40 0
- 1.367728 2 0 ack 40 ------- 0 3.0 0.0 1 15 3217 0x18 40 0
- 1.372584 2 3 tcp 576 ------- 0 0.0 3.0 4289 18 1 0x10 40 0
+ 1.372584 2 3 tcp 576 ------- 0 0.0 3.0 4825 19 1 0x10 40 0
r 1.372768 2 0 ack 40 ------- 0 3.0 0.0 1 15 3217 0x18 40 0
+ 1.37316 2 3 tcp 576 ------- 0 0.0 3.0 5361 20 1 0x10 40 0
+ 1.373488 2 0 ack 40 ------- 0 3.0 0.0 1 16 3753 0x18 40 0
- 1.373488 2 0 ack 40 ------- 0 3.0 0.0 1 16 3753 0x18 40 0
- 1.378344 2 3 tcp 576 ------- 0 0.0 3.0 4825 19 1 0x10 40 0
+ 1.378344 2 3 tcp 576 ------- 0 0.0 3.0 5897 21 1 0x10 40 0
r 1.378528 2 0 ack 40 ------- 0 3.0 0.0 1 16 3753 0x18 40 0
+ 1.37892 2 3 tcp 576 ------- 0 0.0 3.0 6433 22 1 0x10 40 0
- 1.384104 2 3 tcp 576 ------- 0 0.0 3.0 5361 20 1 0x10 40 0
+ 1.384104 2 3 tcp 576 ------- 0 0.0 3.0 6969 23 1 0x10 40 0
+ 1.38468 2 3 tcp 576 ------- 0 0.0 3.0 7505 24 1 0x10 40 0
- 1.389864 2 3 tcp 576 ------- 0 0.0 3.0 5897 21 1 0x10 40 0
- 1.395624 2 3 tcp 576 ------- 0 0.0 3.0 6433 22 1 0x10 40 0
- 1.401384 2 3 tcp 576 ------- 0 0.0 3.0 6969 23 1 0x10 40 0
- 1.407144 2 3 tcp 576 ------- 0 0.0 3.0 7505 24 1 0x10 40 0
r 1.472584 2 3 tcp 576 ------- 0 0.0 3.0 3753 17 1 0x10 40 0
r 1.478344 2 3 tcp 576 ------- 0 0.0 3.0 4289 18 1 0x10 40 0
r 1.484104 2 3 tcp 576 ------- 0 0.0 3.0 4825 19 1 0x10 40 0
r 1.489864 2 3 tcp 576 ------- 0 0.0 3.0 5361 20 1 0x10 40 0
r 1.495624 2 3 tcp 576 ------- 0 0.0 3.0 5897 21 1 0x10 40 0
r 1.501384 2 3 tcp 576 ------- 0 0.0 3.0 6433 22 1 0x10 40 0
r 1.507144 2 3 tcp 576 ------- 0 0.0 3.0 6969 23 1 0x10 40 0
r 1.512904 2 3 tcp 576 ------- 0 0.0 3.0 7505 24 1 0x10 40 0
+ 1.572984 2 0 ack 40 ------- 0 3.0 0.0 1 25 4289 0x18 40 0
- 1.572984 2 0 ack 40 ------- 0 3.0 0.0 1 25 4289 0x18 40 0
r 1.578024 2 0 ack 40 ------- 0 3.0 0.0 1 25 4289 0x18 40 0
+ 1.578744 2 0 ack 40 ------- 0 3.0 0.0 1 26 4825 0x18 40 0
- 1.578744 2 0 ack 40 ------- 0 3.0 0.0 1 26 4825 0x18 40 0
+ 1.5836 2 3 tcp 576 ------- 0 0.0 3.0 8041 33 1 0x10 40 0
- 1.5836 2 3 tcp 576 ------- 0 0.0 3.0 8041 33 1 0x10 40 0
r 1.583784 2 0 ack 40 ------- 0 3.0 0.0 1 26 4825 0x18 40 0
+ 1.584176 2 3 tcp 576 ------- 0 0.0 3.0 8577 34 1 0x10 40 0
+ 1.584504 2 0 ack 40 ------- 0 3.0 0.0 1 27 5361 0x18 40 0
- 1.584504 2 0 ack 40 ------- 0 3.0 0.0 1 27 5361 0x18 40 0
- 1.58936 2 3 tcp 576 ------- 0 0.0 3.0 8577 34 1 0x10 40 0
+ 1.58936 2 3 tcp 576 ------- 0 0.0 3.0 9113 35 1 0x10 40 0
r 1.589544 2 0 ack 40 ------- 0 3.0 0.0 1 27 5361 0x18 40 0
+ 1.590264 2 0 ack 40 ------- 0 3.0 0.0 1 28 5897 0x18 40 0
- 1.590264 2 0 ack 40 ------- 0 3.0 0.0 1 28 5897 0x18 40 0
- 1.59512 2 3 tcp 576 ------- 0 0.0 3.0 9113 35 1 0x10 40 0
r 1.595304 2 0 ack 40 ------- 0 3.0 0.0 1 28 5897 0x18 40 0
+ 1.596024 2 0 ack 40 ------- 0 3.0 0.0 1 29 6433 0x18 40 0
- 1.596024 2 0 ack 40 ------- 0 3.0 0.0 1 29 6433 0x18 40 0
r 1.601064 2 0 ack 40 ------- 0 3.0 0.0 1 29 6433 0x18 40 0
+ 1.601784 2 0 ack 40 ------- 0 3.0 0.0 1 30 6969 0x18 40 0
- 1.601784 2 0 ack 40 ------- 0 3.0 0.0 1 30 6969 0x18 40 0
r 1.606824 2 0 ack 40 ------- 0 3.0 0.0 1 30 6969 0x18 40 0
+ 1.607544 2 0 ack 40 ------- 0 3.0 0.0 1 31 7505 0x18 40 0
- 1.607544 2 0 ack 40 ------- 0 3.0 0.0 1 31 7505 0x18 40 0
r 1.612584 2 0 ack 40 ------- 0 3.0 0.0 1 31 7505 0x18 40 0
+ 1.613304 2 0 ack 40 ------- 0 3.0 0.0 1 32 8041 0x18 40 0
- 1.613304 2 0 ack 40 ------- 0 3.0 0.0 1 32 8041 0x18 40 0
r 1.618344 2 0 ack 40 ------- 0 3.0 0.0 1 32 8041 0x18 40 0
r 1.68936 2 3 tcp 576 ------- 0 0.0 3.0 8041 33 1 0x10 40 0
r 1.69512 2 3 tcp 576 ------- 0 0.0 3.0 8577 34 1 0x10 40 0
r 1.70088 2 3 tcp 576 ------- 0 0.0 3.0 9113 35 1 0x10 40 0
+ 1.78976 2 0 ack 40 ------- 0 3.0 0.0 1 36 8577 0x18 40 0
- 1.78976 2 0 ack 40 ------- 0 3.0 0.0 1 36 8577 0x18 40 0
r 1.7948 2 0 ack 40 ------- 0 3.0 0.0 1 36 8577 0x18 40 0
+ 1.79552 2 0 ack 40 ------- 0 3.0 0.0 1 37 9113 0x18 40 0
- 1.79552 2 0 ack 40 ------- 0 3.0 0.0 1 37 9113 0x18 40 0
r 1.80056 2 0 ack 40 ------- 0 3.0 0.0 1 37 9113 0x18 40 0
+ 1.80128 2 0 ack 40 ------- 0 3.0 0.0 1 38 9649 0x18 40 0
- 1.80128 2 0 ack 40 ------- 0 3.0 0.0 1 38 9649 0x18 40 0
r 1.80632 2 0 ack 40 ------- 0 3.0 0.0 1 38 9649 0x18 40 0
+ 1.811712 2 3 tcp 392 ------- 0 0.0 3.0 9649 39 1 0x18 40 0
- 1.811712 2 3 tcp 392 ------- 0 0.0 3.0 9649 39 1 0x18 40 0
r 1.915632 2 3 tcp 392 ------- 0 0.0 3.0 9649 39 1 0x18 40 0
+ 2.1004 2 0 ack 40 ------- 0 3.0 0.0 1 40 10001 0x18 40 0
- 2.1004 2 0 ack 40 ------- 0 3.0 0.0 1 40 10001 0x18 40 0
r 2.10544 2 0 ack 40 ------- 0 3.0 0.0 1 40 10001 0x18 40 0
+ 5.005576 2 3 tcp 576 ------- 0 0.0 3.0 10001 41 1 0x10 40 0
- 5.005576 2 3 tcp 576 ------- 0 0.0 3.0 10001 41 1 0x10 40 0
+ 5.006152 2 3 tcp 576 ------- 0 0.0 3.0 10537 42 1 0x10 40 0
+ 5.006728 2 3 tcp 576 ------- 0 0.0 3.0 11073 43 1 0x10 40 0
+ 5.007304 2 3 tcp 576 ------- 0 0.0 3.0 11609 44 1 0x10 40 0
+ 5.00788 2 3 tcp 576 ------- 0 0.0 3.0 12145 45 1 0x10 40 0
+ 5.008456 2 3 tcp 576 ------- 0 0.0 3.0 12681 46 1 0x10 40 0
+ 5.009032 2 3 tcp 576 ------- 0 0.0 3.0 13217 47 1 0x10 40 0
d 5.009032 2 3 tcp 576 ------- 0 0.0 3.0 13217 47 1 0x10 40 0
+ 5.009608 2 3 tcp 576 ------- 0 0.0 3.0 13753 48 1 0x10 40 0
d 5.009608 2 3 tcp 576 ------- 0 0.0 3.0 13753 48 1 0x10 40 0
+ 5.010184 2 3 tcp 576 ------- 0 0.0 3.0 14289 49 1 0x10 40 0
d 5.010184 2 3 tcp 576 ------- 0 0.0 3.0 14289 49 1 0x10 40 0
+ 5.01076 2 3 tcp 576 ------- 0 0.0 3.0 14825 50 1 0x10 40 0
d 5.01076 2 3 tcp 576 ------- 0 0.0 3.0 14825 50 1 0x10 40 0
+ 5.011336 2 3 tcp 576 ------- 0 0.0 3.0 15361 51 1 0x10 40 0
d 5.011336 2 3 tcp 576 ------- 0 0.0 3.0 15361 51 1 0x10 40 0
- 5.011336 2 3 tcp 576 ------- 0 0.0 3.0 10537 42 1 0x10 40 0
+ 5.011912 2 3 tcp 576 ------- 0 0.0 3.0 15897 52 1 0x10 40 0
+ 5.012488 2 3 tcp 576 ------- 0 0.0 3.0 16433 53 1 0x10 40 0
d 5.012488 2 3 tcp 576 ------- 0 0.0 3.0 16433 53 1 0x10 40 0
+ 5.013064 2 3 tcp 576 ------- 0 0.0 3.0 16969 54 1 0x10 40 0
d 5.013064 2 3 tcp 576 ------- 0 0.0 3.0 16969 54 1 0x10 40 0
+ 5.01364 2 3 tcp 576 ------- 0 0.0 3.0 17505 55 1 0x10 40 0
d 5.01364 2 3 tcp 576 ------- 0 0.0 3.0 17505 55 1 0x10 40 0
+ 5.014216 2 3 tcp 576 ------- 0 0.0 3.0 18041 56 1 0x10 40 0
d 5.014216 2 3 tcp 576 ------- 0 0.0 3.0 18041 56 1 0x10 40 0
+ 5.014792 2 3 tcp 576 ------- 0 0.0 3.0 18577 57 1 0x10 40 0
d 5.014792 2 3 tcp 576 ------- 0 0.0 3.0 18577 57 1 0x10 40 0
+ 5.015368 2 3 tcp 576 ------- 0 0.0 3.0 19113 58 1 0x10 40 0
d 5.015368 2 3 tcp 576 ------- 0 0.0 3.0 19113 58 1 0x10 40 0
- 5.017096 2 3 tcp 576 ------- 0 0.0 3.0 11073 43 1 0x10 40 0
- 5.022856 2 3 tcp 576 ------- 0 0.0 3.0 11609 44 1 0x10 40 0
- 5.028616 2 3 tcp 576 ------- 0 0.0 3.0 12145 45 1 0x10 40 0
- 5.034376 2 3 tcp 576 ------- 0 0.0 3.0 12681 46 1 0x10 40 0
- 5.040136 2 3 tcp 576 ------- 0 0.0 3.0 15897 52 1 0x10 40 0
r 5.111336 2 3 tcp 576 ------- 0 0.0 3.0 10001 41 1 0x10 40 0
r 5.117096 2 3 tcp 576 ------- 0 0.0 3.0 10537 42 1 0x10 40 0
r 5.122856 2 3 tcp 576 ------- 0 0.0 3.0 11073 43 1 0x10 40 0
r 5.128616 2 3 tcp 576 ------- 0 0.0 3.0 11609 44 1 0x10 40 0
r 5.134376 2 3 tcp 576 ------- 0 0.0 3.0 12145 45 1 0x10 40 0
r 5.140136 2 3 tcp 576 ------- 0 0.0 3.0 12681 46 1 0x10 40 0
r 5.145896 2 3 tcp 576 ------- 0 0.0 3.0 15897 52 1 0x10 40 0
+ 5.211736 2 0 ack 40 ------- 0 3.0 0.0 1 59 10537 0x18 40 0
- 5.211736 2 0 ack 40 ------- 0 3.0 0.0 1 59 10537 0x18 40 0
r 5.216776 2 0 ack 40 ------- 0 3.0 0.0 1 59 10537 0x18 40 0
+ 5.217496 2 0 ack 40 ------- 0 3.0 0.0 1 60 11073 0x18 40 0
- 5.217496 2 0 ack 40 ------- 0 3.0 0.0 1 60 11073 0x18 40 0
r 5.222536 2 0 ack 40 ------- 0 3.0 0.0 1 60 11073 0x18 40 0
+ 5.223256 2 0 ack 40 ------- 0 3.0 0.0 1 61 11609 0x18 40 0
- 5.223256 2 0 ack 40 ------- 0 3.0 0.0 1 61 11609 0x18 40 0
r 5.228296 2 0 ack 40 ------- 0 3.0 0.0 1 61 11609 0x18 40 0
+ 5.229016 2 0 ack 40 ------- 0 3.0 0.0 1 62 12145 0x18 40 0
- 5.229016 2 0 ack 40 ------- 0 3.0 0.0 1 62 12145 0x18 40 0
r 5.234056 2 0 ack 40 ------- 0 3.0 0.0 1 62 12145 0x18 40 0
+ 5.234776 2 0 ack 40 ------- 0 3.0 0.0 1 63 12681 0x18 40 0
- 5.234776 2 0 ack 40 ------- 0 3.0 0.0 1 63 12681 0x18 40 0
r 5.239816 2 0 ack 40 ------- 0 3.0 0.0 1 63 12681 0x18 40 0
+ 5.240536 2 0 ack 40 ------- 0 3.0 0.0 1 64 13217 0x18 40 0
- 5.240536 2 0 ack 40 ------- 0 3.0 0.0 1 64 13217 0x18 40 0
r 5.245576 2 0 ack 40 ------- 0 3.0 0.0 1 64 13217 0x18 40 0
+ 5.246296 2 0 ack 40 ------- 0 3.0 0.0 1 65 13217 0x18 40 0
- 5.246296 2 0 ack 40 ------- 0 3.0 0.0 1 65 13217 0x18 40 0
r 5.251336 2 0 ack 40 ------- 0 3.0 0.0 1 65 13217 0x18 40 0
+ 6.751152 2 3 tcp 576 ------- 0 0.0 3.0 13217 66 1 0x10 40 0
- 6.751152 2 3 tcp 576 ------- 0 0.0 3.0 13217 66 1 0x10 40 0
r 6.856912 2 3 tcp 576 ------- 0 0.0 3.0 13217 66 1 0x10 40 0
+ 6.957312 2 0 ack 40 ------- 0 3.0 0.0 1 67 13753 0x18 40 0
- 6.957312 2 0 ack 40 ------- 0 3.0 0.0 1 67 13753 0x18 40 0
r 6.962352 2 0 ack 40 ------- 0 3.0 0.0 1 67 13753 0x18 40 0
+ 6.967928 2 3 tcp 576 ------- 0 0.0 3.0 13753 68 1 0x10 40 0
- 6.967928 2 3 tcp 576 ------- 0 0.0 3.0 13753 68 1 0x10 40 0
+ 6.968504 2 3 tcp 576 ------- 0 0.0 3.0 14289 69 1 0x10 40 0
- 6.973688 2 3 tcp 576 ------- 0 0.0 3.0 14289 69 1 0x10 40 0
r 7.073688 2 3 tcp 576 ------- 0 0.0 3.0 13753 68 1 0x10 40 0
r 7.079448 2 3 tcp 576 ------- 0 0.0 3.0 14289 69 1 0x10 40 0
+ 7.174088 2 0 ack 40 ------- 0 3.0 0.0 1 70 14289 0x18 40 0
- 7.174088 2 0 ack 40 ------- 0 3.0 0.0 1 70 14289 0x18 40 0
r 7.179128 2 0 ack 40 ------- 0 3.0 0.0 1 70 14289 0x18 40 0
+ 7.179848 2 0 ack 40 ------- 0 3.0 0.0 1 71 14825 0x18 40 0
- 7.179848 2 0 ack 40 ------- 0 3.0 0.0 1 71 14825 0x18 40 0
+ 7.184704 2 3 tcp 576 ------- 0 0.0 3.0 14825 72 1 0x10 40 0
- 7.184704 2 3 tcp 576 ------- 0 0.0 3.0 14825 72 1 0x10 40 0
r 7.184888 2 0 ack 40 ------- 0 3.0 0.0 1 71 14825 0x18 40 0
+ 7.18528 2 3 tcp 576 ------- 0 0.0 3.0 15361 73 1 0x10 40 0
- 7.190464 2 3 tcp 576 ------- 0 0.0 3.0 15361 73 1 0x10 40 0
+ 7.190464 2 3 tcp 576 ------- 0 0.0 3.0 15897 74 1 0x10 40 0
+ 7.19104 2 3 tcp 576 ------- 0 0.0 3.0 16433 75 1 0x10 40 0
- 7.196224 2 3 tcp 576 ------- 0 0.0 3.0 15897 74 1 0x10 40 0
- 7.201984 2 3 tcp 576 ------- 0 0.0 3.0 16433 75 1 0x10 40 0
r 7.290464 2 3 tcp 576 ------- 0 0.0 3.0 14825 72 1 0x10 40 0
r 7.296224 2 3 tcp 576 ------- 0 0.0 3.0 15361 73 1 0x10 40 0
r 7.301984 2 3 tcp 576 ------- 0 0.0 3.0 15897 74 1 0x10 40 0
r 7.307744 2 3 tcp 576 ------- 0 0.0 3.0 16433 75 1 0x10 40 0
+ 7.390864 2 0 ack 40 ------- 0 3.0 0.0 1 76 15361 0x18 40 0
- 7.390864 2 0 ack 40 ------- 0 3.0 0.0 1 76 15361 0x18 40 0
r 7.395904 2 0 ack 40 ------- 0 3.0 0.0 1 76 15361 0x18 40 0
+ 7.396624 2 0 ack 40 ------- 0 3.0 0.0 1 77 16433 0x18 40 0
- 7.396624 2 0 ack 40 ------- 0 3.0 0.0 1 77 16433 0x18 40 0
+ 7.40148 2 3 tcp 576 ------- 0 0.0 3.0 16969 80 1 0x10 40 0
- 7.40148 2 3 tcp 576 ------- 0 0.0 3.0 16969 80 1 0x10 40 0
r 7.401664 2 0 ack 40 ------- 0 3.0 0.0 1 77 16433 0x18 40 0
+ 7.402056 2 3 tcp 576 ------- 0 0.0 3.0 17505 81 1 0x10 40 0
+ 7.402384 2 0 ack 40 ------- 0 3.0 0.0 1 78 16433 0x18 40 0
- 7.402384 2 0 ack 40 ------- 0 3.0 0.0 1 78 16433 0x18 40 0
- 7.40724 2 3 tcp 576 ------- 0 0.0 3.0 17505 81 1 0x10 40 0
+ 7.40724 2 3 tcp 576 ------- 0 0.0 3.0 18041 82 1 0x10 40 0
r 7.407424 2 0 ack 40 ------- 0 3.0 0.0 1 78 16433 0x18 40 0
+ 7.407816 2 3 tcp 576 ------- 0 0.0 3.0 18577 83 1 0x10 40 0
+ 7.408144 2 0 ack 40 ------- 0 3.0 0.0 1 79 16969 0x18 40 0
- 7.408144 2 0 ack 40 ------- 0 3.0 0.0 1 79 16969 0x18 40 0
+ 7.408392 2 3 tcp 576 ------- 0 0.0 3.0 19113 84 1 0x10 40 0
- 7.413 2 3 tcp 576 ------- 0 0.0 3.0 18041 82 1 0x10 40 0
r 7.413184 2 0 ack 40 ------- 0 3.0 0.0 1 79 16969 0x18 40 0
- 7.41876 2 3 tcp 576 ------- 0 0.0 3.0 18577 83 1 0x10 40 0
- 7.42452 2 3 tcp 576 ------- 0 0.0 3.0 19113 84 1 0x10 40 0
r 7.50724 2 3 tcp 576 ------- 0 0.0 3.0 16969 80 1 0x10 40 0
r 7.513 2 3 tcp 576 ------- 0 0.0 3.0 17505 81 1 0x10 40 0
r 7.51876 2 3 tcp 576 ------- 0 0.0 3.0 18041 82 1 0x10 40 0
r 7.52452 2 3 tcp 576 ------- 0 0.0 3.0 18577 83 1 0x10 40 0
r 7.53028 2 3 tcp 576 ------- 0 0.0 3.0 19113 84 1 0x10 40 0
+ 7.60764 2 0 ack 40 ------- 0 3.0 0.0 1 85 17505 0x18 40 0
- 7.60764 2 0 ack 40 ------- 0 3.0 0.0 1 85 17505 0x18 40 0
r 7.61268 2 0 ack 40 ------- 0 3.0 0.0 1 85 17505 0x18 40 0
+ 7.6134 2 0 ack 40 ------- 0 3.0 0.0 1 86 18041 0x18 40 0
- 7.6134 2 0 ack 40 ------- 0 3.0 0.0 1 86 18041 0x18 40 0
r 7.61844 2 0 ack 40 ------- 0 3.0 0.0 1 86 18041 0x18 40 0
+ 7.61916 2 0 ack 40 ------- 0 3.0 0.0 1 87 18577 0x18 40 0
- 7.61916 2 0 ack 40 ------- 0 3.0 0.0 1 87 18577 0x18 40 0
r 7.6242 2 0 ack 40 ------- 0 3.0 0.0 1 87 18577 0x18 40 0
+ 7.62492 2 0 ack 40 ------- 0 3.0 0.0 1 88 19113 0x18 40 0
- 7.62492 2 0 ack 40 ------- 0 3.0 0.0 1 88 19113 0x18 40 0
r 7.62996 2 0 ack 40 ------- 0 3.0 0.0 1 88 19113 0x18 40 0
+ 7.63068 2 0 ack 40 ------- 0 3.0 0.0 1 89 19649 0x18 40 0
- 7.63068 2 0 ack 40 ------- 0 3.0 0.0 1 89 19649 0x18 40 0
r 7.63572 2 0 ack 40 ------- 0 3.0 0.0 1 89 19649 0x18 40 0
+ 7.641112 2 3 tcp 392 ---A--- 0 0.0 3.0 19649 90 1 0x98 40 0
- 7.641112 2 3 tcp 392 ---A--- 0 0.0 3.0 19649 90 1 0x98 40 0
r 7.745032 2 3 tcp 392 ---A--- 0 0.0 3.0 19649 90 1 0x98 40 0
+ 7.9004 2 0 ack 40 ------- 0 3.0 0.0 1 91 20001 0x18 40 0
- 7.9004 2 0 ack 40 ------- 0 3.0 0.0 1 91 20001 0x18 40 0
r 7.90544 2 0 ack 40 ------- 0 3.0 0.0 1 91 20001 0x18 40 0
