v testName slow-start-restart-fix
+ 0.50504 2 3 tcp 40 ------- 0 0.0 3.0 0 0 -1 0xa 40 0
- 0.50504 2 3 tcp 40 ------- 0 0.0 3.0 0 0 -1 0xa 40 0
r 0.60544 2 3 tcp 40 ------- 0 0.0 3.0 0 0 -1 0xa 40 0
+ 0.70584 2 0 ack 40 ------- 0 3.0 0.0 0 1 1 0x1a 40 0
- 0.70584 2 0 ack 40 ------- 0 3.0 0.0 0 1 1 0x1a 40 0
r 0.71088 2 0 ack 40 ------- 0 3.0 0.0 0 1 1 0x1a 40 0
+ 0.71592 2 3 tcp 40 ------- 0 0.0 3.0 1 2 1 0x10 40 0
- 0.71592 2 3 tcp 40 ------- 0 0.0 3.0 1 2 1 0x10 40 0
+ 0.716496 2 3 tcp 576 ------- 0 0.0 3.0 1 3 1 0x10 40 0
- 0.716496 2 3 tcp 576 ------- 0 0.0 3.0 1 3 1 0x10 40 0
r 0.81632 2 3 tcp 40 ------- 0 0.0 3.0 1 2 1 0x10 40 0
r 0.822256 2 3 tcp 576 ------- 0 0.0 3.0 1 3 1 0x10 40 0
+ 0.922656 2 0 ack 40 ------- 0 3.0 0.0 1 4 537 0x18 40 0
- 0.922656 2 0 ack 40 ------- 0 3.0 0.0 1 4 537 0x18 40 0
r 0.927696 2 0 ack 40 ------- 0 3.0 0.0 1 4 537 0x18 40 0
+ 0.933272 2 3 tcp 576 ------- 0 0.0 3.0 537 5 1 0x10 40 0
- 0.933272 2 3 tcp 576 ------- 0 0.0 3.0 537 5 1 0x10 40 0
+ 0.933848 2 3 tcp 576 ------- 0 0.0 3.0 1073 6 1 0x10 40 0
- 0.939032 2 3 tcp 576 ------- 0 0.0 3.0 1073 6 1 0x10 40 0
r 1.039032 2 3 tcp 576 ------- 0 0.0 3.0 537 5 1 0x10 40 0
r 1.044792 2 3 tcp 576 ------- 0 0.0 3.0 1073 6 1 0x10 40 0
+ 1.139432 2 0 ack 40 ------- 0 3.0 0.0 1 7 1073 0x18 40 0
- 1.139432 2 0 ack 40 ------- 0 3.0 0.0 1 7 1073 0x18 40 0
r 1.144472 2 0 ack 40 ------- 0 3.0 0.0 1 7 1073 0x18 40 0
+ 1.145192 2 0 ack 40 ------- 0 3.0 0.0 1 8 1609 0x18 40 0
- 1.145192 2 0 ack 40 ------- 0 3.0 0.0 1 8 1609 0x18 40 0
+ 1.150048 2 3 tcp 576 ------- 0 0.0 3.0 1609 9 1 0x10 40 0
- 1.150048 2 3 tcp 576 ------- 0 0.0 3.0 1609 9 1 0x10 40 0
r 1.150232 2 0 ack 40 ------- 0 3.0 0.0 1 8 1609 0x18 40 0
+ 1.150624 2 3 tcp 576 ------- 0 0.0 3.0 2145 10 1 0x10 40 0
- 1.155808 2 3 tcp 576 ------- 0 0.0 3.0 2145 10 1 0x10 40 0
+ 1.155808 2 3 tcp 576 ------- 0 0.0 3.0 2681 11 1 0x10 40 0
+ 1.156384 2 3 tcp 576 ------- 0 0.0 3.0 3217 12 1 0x10 40 0
- 1.161568 2 3 tcp 576 ------- 0 0.0 3.0 2681 11 1 0x10 40 0
- 1.167328 2 3 tcp 576 ------- 0 0.0 3.0 3217 12 1 0x10 40 0
r 1.255808 2 3 tcp 576 ------- 0 0.0 3.0 1609 9 1 0x10 40 0
r 1.261568 2 3 tcp 576 ------- 0 0.0 3.0 2145 10 1 0x10 40 0
r 1.267328 2 3 tcp 576 ------- 0 0.0 3.0 2681 11 1 0x10 40 0
r 1.273088 2 3 tcp 576 ------- 0 0.0 3.0 3217 12 1 0x10 40 0
+ 1.356208 2 0 ack 40 ------- 0 3.0 0.0 1 13 2145 0x18 40 0
- 1.356208 2 0 ack 40 ------- 0 3.0 0.0 1 13 2145 0x18 40 0
r 1.361248 2 0 ack 40 ------- 0 3.0 0.0 1 13 2145 0x18 40 0
+ 1.361968 2 0 ack 40 ------- 0 3.0 0.0 1 14 2681 0x18 40 0
- 1.361968 2 0 ack 40 ------- 0 3.0 0.0 1 14 2681 0x18 40 0
+ 1.366824 2 3 tcp 576 ------- 0 0.0 3.0 3753 17 1 0x10 40 0
- 1.366824 2 3 tcp 576 ------- 0 0.0 3.0 3753 17 1 0x10 40 0
r 1.367008 2 0 ack 40 ------- 0 3.0 0.0 1 14 2681 0x18 40 0
+ 1.3674 2 3 tcp 576 ------- 0 0.0 3.0 4289 18 1 0x10 40 0
+ 1.367728 2 0 ack 40 ------- 0 3.0 0.0 1 15 3217 0x18 40 0
- 1.367728 2 0 ack 40 ------- 0 3.0 0.0 1 15 3217 0x18 40 0
- 1.372584 2 3 tcp 576 ------- 0 0.0 3.0 4289 18 1 0x10 40 0
+ 1.372584 2 3 tcp 576 ------- 0 0.0 3.0 4825 19 1 0x10 40 0
r 1.372768 2 0 ack 40 ------- 0 3.0 0.0 1 15 3217 0x18 40 0
+ 1.37316 2 3 tcp 576 ------- 0 0.0 3.0 5361 20 1 0x10 40 0
+ 1.373488 2 0 ack 40 ------- 0 3.0 0.0 1 16 3753 0x18 40 0
- 1.373488 2 0 ack 40 ------- 0 3.0 0.0 1 16 3753 0x18 40 0
- 1.378344 2 3 tcp 576 ------- 0 0.0 3.0 4825 19 1 0x10 40 0
+ 1.378344 2 3 tcp 576 ------- 0 0.0 3.0 5897 21 1 0x10 40 0
r 1.378528 2 0 ack 40 ------- 0 3.0 0.0 1 16 3753 0x18 40 0
+ 1.37892 2 3 tcp 576 ------- 0 0.0 3.0 6433 22 1 0x10 40 0
- 1.384104 2 3 tcp 576 ------- 0 0.0 3.0 5361 20 1 0x10 40 0
+ 1.384104 2 3 tcp 576 ------- 0 0.0 3.0 6969 23 1 0x10 40 0
+ 1.38468 2 3 tcp 576 ------- 0 0.0 3.0 7505 24 1 0x10 40 0
- 1.389864 2 3 tcp 576 ------- 0 0.0 3.0 5897 21 1 0x10 40 0
- 1.395624 2 3 tcp 576 ------- 0 0.0 3.0 6433 22 1 0x10 40 0
- 1.401384 2 3 tcp 576 ------- 0 0.0 3.0 6969 23 1 0x10 40 0
- 1.407144 2 3 tcp 576 ------- 0 0.0 3.0 7505 24 1 0x10 40 0
r 1.472584 2 3 tcp 576 ------- 0 0.0 3.0 3753 17 1 0x10 40 0
r 1.478344 2 3 tcp 576 ------- 0 0.0 3.0 4289 18 1 0x10 40 0
r 1.484104 2 3 tcp 576 ------- 0 0.0 3.0 4825 19 1 0x10 40 0
r 1.489864 2 3 tcp 576 ------- 0 0.0 3.0 5361 20 1 0x10 40 0
r 1.495624 2 3 tcp 576 ------- 0 0.0 3.0 5897 21 1 0x10 40 0
r 1.501384 2 3 tcp 576 ------- 0 0.0 3.0 6433 22 1 0x10 40 0
r 1.507144 2 3 tcp 576 ------- 0 0.0 3.0 6969 23 1 0x10 40 0
r 1.512904 2 3 tcp 576 ------- 0 0.0 3.0 7505 24 1 0x10 40 0
+ 1.572984 2 0 ack 40 ------- 0 3.0 0.0 1 25 4289 0x18 40 0
- 1.572984 2 0 ack 40 ------- 0 3.0 0.0 1 25 4289 0x18 40 0
r 1.578024 2 0 ack 40 ------- 0 3.0 0.0 1 25 4289 0x18 40 0
+ 1.578744 2 0 ack 40 ------- 0 3.0 0.0 1 26 4825 0x18 40 0
- 1.578744 2 0 ack 40 ------- 0 3.0 0.0 1 26 4825 0x18 40 0
+ 1.5836 2 3 tcp 576 ------- 0 0.0 3.0 8041 33 1 0x10 40 0
- 1.5836 2 3 tcp 576 ------- 0 0.0 3.0 8041 33 1 0x10 40 0
r 1.583784 2 0 ack 40 ------- 0 3.0 0.0 1 26 4825 0x18 40 0
+ 1.584176 2 3 tcp 576 ------- 0 0.0 3.0 8577 34 1 0x10 40 0
+ 1.584504 2 0 ack 40 ------- 0 3.0 0.0 1 27 5361 0x18 40 0
- 1.584504 2 0 ack 40 ------- 0 3.0 0.0 1 27 5361 0x18 40 0
- 1.58936 2 3 tcp 576 ------- 0 0.0 3.0 8577 34 1 0x10 40 0
+ 1.58936 2 3 tcp 576 ------- 0 0.0 3.0 9113 35 1 0x10 40 0
r 1.589544 2 0 ack 40 ------- 0 3.0 0.0 1 27 5361 0x18 40 0
+ 1.590264 2 0 ack 40 ------- 0 3.0 0.0 1 28 5897 0x18 40 0
- 1.590264 2 0 ack 40 ------- 0 3.0 0.0 1 28 5897 0x18 40 0
- 1.59512 2 3 tcp 576 ------- 0 0.0 3.0 9113 35 1 0x10 40 0
r 1.595304 2 0 ack 40 ------- 0 3.0 0.0 1 28 5897 0x18 40 0
+ 1.596024 2 0 ack 40 ------- 0 3.0 0.0 1 29 6433 0x18 40 0
- 1.596024 2 0 ack 40 ------- 0 3.0 0.0 1 29 6433 0x18 40 0
r 1.601064 2 0 ack 40 ------- 0 3.0 0.0 1 29 6433 0x18 40 0
+ 1.601784 2 0 ack 40 ------- 0 3.0 0.0 1 30 6969 0x18 40 0
- 1.601784 2 0 ack 40 ------- 0 3.0 0.0 1 30 6969 0x18 40 0
r 1.606824 2 0 ack 40 ------- 0 3.0 0.0 1 30 6969 0x18 40 0
+ 1.607544 2 0 ack 40 ------- 0 3.0 0.0 1 31 7505 0x18 40 0
- 1.607544 2 0 ack 40 ------- 0 3.0 0.0 1 31 7505 0x18 40 0
r 1.612584 2 0 ack 40 ------- 0 3.0 0.0 1 31 7505 0x18 40 0
+ 1.613304 2 0 ack 40 ------- 0 3.0 0.0 1 32 8041 0x18 40 0
- 1.613304 2 0 ack 40 ------- 0 3.0 0.0 1 32 8041 0x18 40 0
r 1.618344 2 0 ack 40 ------- 0 3.0 0.0 1 32 8041 0x18 40 0
r 1.68936 2 3 tcp 576 ------- 0 0.0 3.0 8041 33 1 0x10 40 0
r 1.69512 2 3 tcp 576 ------- 0 0.0 3.0 8577 34 1 0x10 40 0
r 1.70088 2 3 tcp 576 ------- 0 0.0 3.0 9113 35 1 0x10 40 0
+ 1.78976 2 0 ack 40 ------- 0 3.0 0.0 1 36 8577 0x18 40 0
- 1.78976 2 0 ack 40 ------- 0 3.0 0.0 1 36 8577 0x18 40 0
r 1.7948 2 0 ack 40 ------- 0 3.0 0.0 1 36 8577 0x18 40 0
+ 1.79552 2 0 ack 40 ------- 0 3.0 0.0 1 37 9113 0x18 40 0
- 1.79552 2 0 ack 40 ------- 0 3.0 0.0 1 37 9113 0x18 40 0
r 1.80056 2 0 ack 40 ------- 0 3.0 0.0 1 37 9113 0x18 40 0
+ 1.80128 2 0 ack 40 ------- 0 3.0 0.0 1 38 9649 0x18 40 0
- 1.80128 2 0 ack 40 ------- 0 3.0 0.0 1 38 9649 0x18 40 0
r 1.80632 2 0 ack 40 ------- 0 3.0 0.0 1 38 9649 0x18 40 0
+ 1.811712 2 3 tcp 392 ------- 0 0.0 3.0 9649 39 1 0x18 40 0
- 1.811712 2 3 tcp 392 ------- 0 0.0 3.0 9649 39 1 0x18 40 0
r 1.915632 2 3 tcp 392 ------- 0 0.0 3.0 9649 39 1 0x18 40 0
+ 2.1004 2 0 ack 40 ------- 0 3.0 0.0 1 40 10001 0x18 40 0
- 2.1004 2 0 ack 40 ------- 0 3.0 0.0 1 40 10001 0x18 40 0
r 2.10544 2 0 ack 40 ------- 0 3.0 0.0 1 40 10001 0x18 40 0
+ 5.005576 2 3 tcp 576 ---A--- 0 0.0 3.0 10001 41 1 0x90 40 0
- 5.005576 2 3 tcp 576 ---A--- 0 0.0 3.0 10001 41 1 0x90 40 0
r 5.111336 2 3 tcp 576 ---A--- 0 0.0 3.0 10001 41 1 0x90 40 0
+ 5.211736 2 0 ack 40 ------- 0 3.0 0.0 1 42 10537 0x18 40 0
- 5.211736 2 0 ack 40 ------- 0 3.0 0.0 1 42 10537 0x18 40 0
r 5.216776 2 0 ack 40 ------- 0 3.0 0.0 1 42 10537 0x18 40 0
+ 5.222352 2 3 tcp 576 ------- 0 0.0 3.0 10537 43 1 0x10 40 0
- 5.222352 2 3 tcp 576 ------- 0 0.0 3.0 10537 43 1 0x10 40 0
+ 5.222928 2 3 tcp 576 ------- 0 0.0 3.0 11073 44 1 0x10 40 0
- 5.228112 2 3 tcp 576 ------- 0 0.0 3.0 11073 44 1 0x10 40 0
r 5.328112 2 3 tcp 576 ------- 0 0.0 3.0 10537 43 1 0x10 40 0
r 5.333872 2 3 tcp 576 ------- 0 0.0 3.0 11073 44 1 0x10 40 0
+ 5.428512 2 0 ack 40 ------- 0 3.0 0.0 1 45 11073 0x18 40 0
- 5.428512 2 0 ack 40 ------- 0 3.0 0.0 1 45 11073 0x18 40 0
r 5.433552 2 0 ack 40 ------- 0 3.0 0.0 1 45 11073 0x18 40 0
+ 5.434272 2 0 ack 40 ------- 0 3.0 0.0 1 46 11609 0x18 40 0
- 5.434272 2 0 ack 40 ------- 0 3.0 0.0 1 46 11609 0x18 40 0
+ 5.439128 2 3 tcp 576 ------- 0 0.0 3.0 11609 47 1 0x10 40 0
- 5.439128 2 3 tcp 576 ------- 0 0.0 3.0 11609 47 1 0x10 40 0
r 5.439312 2 0 ack 40 ------- 0 3.0 0.0 1 46 11609 0x18 40 0
+ 5.439704 2 3 tcp 576 ------- 0 0.0 3.0 12145 48 1 0x10 40 0
- 5.444888 2 3 tcp 576 ------- 0 0.0 3.0 12145 48 1 0x10 40 0
+ 5.444888 2 3 tcp 576 ------- 0 0.0 3.0 12681 49 1 0x10 40 0
+ 5.445464 2 3 tcp 576 ------- 0 0.0 3.0 13217 50 1 0x10 40 0
- 5.450648 2 3 tcp 576 ------- 0 0.0 3.0 12681 49 1 0x10 40 0
- 5.456408 2 3 tcp 576 ------- 0 0.0 3.0 13217 50 1 0x10 40 0
r 5.544888 2 3 tcp 576 ------- 0 0.0 3.0 11609 47 1 0x10 40 0
r 5.550648 2 3 tcp 576 ------- 0 0.0 3.0 12145 48 1 0x10 40 0
r 5.556408 2 3 tcp 576 ------- 0 0.0 3.0 12681 49 1 0x10 40 0
r 5.562168 2 3 tcp 576 ------- 0 0.0 3.0 13217 50 1 0x10 40 0
+ 5.645288 2 0 ack 40 ------- 0 3.0 0.0 1 51 12145 0x18 40 0
- 5.645288 2 0 ack 40 ------- 0 3.0 0.0 1 51 12145 0x18 40 0
r 5.650328 2 0 ack 40 ------- 0 3.0 0.0 1 51 12145 0x18 40 0
+ 5.651048 2 0 ack 40 ------- 0 3.0 0.0 1 52 12681 0x18 40 0
- 5.651048 2 0 ack 40 ------- 0 3.0 0.0 1 52 12681 0x18 40 0
+ 5.655904 2 3 tcp 576 ------- 0 0.0 3.0 13753 55 1 0x10 40 0
- 5.655904 2 3 tcp 576 ------- 0 0.0 3.0 13753 55 1 0x10 40 0
r 5.656088 2 0 ack 40 ------- 0 3.0 0.0 1 52 12681 0x18 40 0
+ 5.65648 2 3 tcp 576 ------- 0 0.0 3.0 14289 56 1 0x10 40 0
+ 5.656808 2 0 ack 40 ------- 0 3.0 0.0 1 53 13217 0x18 40 0
- 5.656808 2 0 ack 40 ------- 0 3.0 0.0 1 53 13217 0x18 40 0
- 5.661664 2 3 tcp 576 ------- 0 0.0 3.0 14289 56 1 0x10 40 0
+ 5.661664 2 3 tcp 576 ------- 0 0.0 3.0 14825 57 1 0x10 40 0
r 5.661848 2 0 ack 40 ------- 0 3.0 0.0 1 53 13217 0x18 40 0
+ 5.66224 2 3 tcp 576 ------- 0 0.0 3.0 15361 58 1 0x10 40 0
+ 5.662568 2 0 ack 40 ------- 0 3.0 0.0 1 54 13753 0x18 40 0
- 5.662568 2 0 ack 40 ------- 0 3.0 0.0 1 54 13753 0x18 40 0
- 5.667424 2 3 tcp 576 ------- 0 0.0 3.0 14825 57 1 0x10 40 0
+ 5.667424 2 3 tcp 576 ------- 0 0.0 3.0 15897 59 1 0x10 40 0
r 5.667608 2 0 ack 40 ------- 0 3.0 0.0 1 54 13753 0x18 40 0
+ 5.668 2 3 tcp 576 ------- 0 0.0 3.0 16433 60 1 0x10 40 0
- 5.673184 2 3 tcp 576 ------- 0 0.0 3.0 15361 58 1 0x10 40 0
+ 5.673184 2 3 tcp 576 ------- 0 0.0 3.0 16969 61 1 0x10 40 0
+ 5.67376 2 3 tcp 576 ------- 0 0.0 3.0 17505 62 1 0x10 40 0
- 5.678944 2 3 tcp 576 ------- 0 0.0 3.0 15897 59 1 0x10 40 0
- 5.684704 2 3 tcp 576 ------- 0 0.0 3.0 16433 60 1 0x10 40 0
- 5.690464 2 3 tcp 576 ------- 0 0.0 3.0 16969 61 1 0x10 40 0
- 5.696224 2 3 tcp 576 ------- 0 0.0 3.0 17505 62 1 0x10 40 0
r 5.761664 2 3 tcp 576 ------- 0 0.0 3.0 13753 55 1 0x10 40 0
r 5.767424 2 3 tcp 576 ------- 0 0.0 3.0 14289 56 1 0x10 40 0
r 5.773184 2 3 tcp 576 ------- 0 0.0 3.0 14825 57 1 0x10 40 0
r 5.778944 2 3 tcp 576 ------- 0 0.0 3.0 15361 58 1 0x10 40 0
r 5.784704 2 3 tcp 576 ------- 0 0.0 3.0 15897 59 1 0x10 40 0
r 5.790464 2 3 tcp 576 ------- 0 0.0 3.0 16433 60 1 0x10 40 0
r 5.796224 2 3 tcp 576 ------- 0 0.0 3.0 16969 61 1 0x10 40 0
r 5.801984 2 3 tcp 576 ------- 0 0.0 3.0 17505 62 1 0x10 40 0
+ 5.862064 2 0 ack 40 ------- 0 3.0 0.0 1 63 14289 0x18 40 0
- 5.862064 2 0 ack 40 ------- 0 3.0 0.0 1 63 14289 0x18 40 0
r 5.867104 2 0 ack 40 ------- 0 3.0 0.0 1 63 14289 0x18 40 0
+ 5.867824 2 0 ack 40 ------- 0 3.0 0.0 1 64 14825 0x18 40 0
- 5.867824 2 0 ack 40 ------- 0 3.0 0.0 1 64 14825 0x18 40 0
+ 5.87268 2 3 tcp 576 ------- 0 0.0 3.0 18041 71 1 0x10 40 0
- 5.87268 2 3 tcp 576 ------- 0 0.0 3.0 18041 71 1 0x10 40 0
r 5.872864 2 0 ack 40 ------- 0 3.0 0.0 1 64 14825 0x18 40 0
+ 5.873256 2 3 tcp 576 ------- 0 0.0 3.0 18577 72 1 0x10 40 0
+ 5.873584 2 0 ack 40 ------- 0 3.0 0.0 1 65 15361 0x18 40 0
- 5.873584 2 0 ack 40 ------- 0 3.0 0.0 1 65 15361 0x18 40 0
- 5.87844 2 3 tcp 576 ------- 0 0.0 3.0 18577 72 1 0x10 40 0
+ 5.87844 2 3 tcp 576 ------- 0 0.0 3.0 19113 73 1 0x10 40 0
r 5.878624 2 0 ack 40 ------- 0 3.0 0.0 1 65 15361 0x18 40 0
+ 5.879344 2 0 ack 40 ------- 0 3.0 0.0 1 66 15897 0x18 40 0
- 5.879344 2 0 ack 40 ------- 0 3.0 0.0 1 66 15897 0x18 40 0
- 5.8842 2 3 tcp 576 ------- 0 0.0 3.0 19113 73 1 0x10 40 0
r 5.884384 2 0 ack 40 ------- 0 3.0 0.0 1 66 15897 0x18 40 0
+ 5.885104 2 0 ack 40 ------- 0 3.0 0.0 1 67 16433 0x18 40 0
- 5.885104 2 0 ack 40 ------- 0 3.0 0.0 1 67 16433 0x18 40 0
r 5.890144 2 0 ack 40 ------- 0 3.0 0.0 1 67 16433 0x18 40 0
+ 5.890864 2 0 ack 40 ------- 0 3.0 0.0 1 68 16969 0x18 40 0
- 5.890864 2 0 ack 40 ------- 0 3.0 0.0 1 68 16969 0x18 40 0
r 5.895904 2 0 ack 40 ------- 0 3.0 0.0 1 68 16969 0x18 40 0
+ 5.896624 2 0 ack 40 ------- 0 3.0 0.0 1 69 17505 0x18 40 0
- 5.896624 2 0 ack 40 ------- 0 3.0 0.0 1 69 17505 0x18 40 0
r 5.901664 2 0 ack 40 ------- 0 3.0 0.0 1 69 17505 0x18 40 0
+ 5.902384 2 0 ack 40 ------- 0 3.0 0.0 1 70 18041 0x18 40 0
- 5.902384 2 0 ack 40 ------- 0 3.0 0.0 1 70 18041 0x18 40 0
r 5.907424 2 0 ack 40 ------- 0 3.0 0.0 1 70 18041 0x18 40 0
r 5.97844 2 3 tcp 576 ------- 0 0.0 3.0 18041 71 1 0x10 40 0
r 5.9842 2 3 tcp 576 ------- 0 0.0 3.0 18577 72 1 0x10 40 0
r 5.98996 2 3 tcp 576 ------- 0 0.0 3.0 19113 73 1 0x10 40 0
+ 6.07884 2 0 ack 40 ------- 0 3.0 0.0 1 74 18577 0x18 40 0
- 6.07884 2 0 ack 40 ------- 0 3.0 0.0 1 74 18577 0x18 40 0
r 6.08388 2 0 ack 40 ------- 0 3.0 0.0 1 74 18577 0x18 40 0
+ 6.0846 2 0 ack 40 ------- 0 3.0 0.0 1 75 19113 0x18 40 0
- 6.0846 2 0 ack 40 ------- 0 3.0 0.0 1 75 19113 0x18 40 0
r 6.08964 2 0 ack 40 ------- 0 3.0 0.0 1 75 19113 0x18 40 0
+ 6.09036 2 0 ack 40 ------- 0 3.0 0.0 1 76 19649 0x18 40 0
- 6.09036 2 0 ack 40 ------- 0 3.0 0.0 1 76 19649 0x18 40 0
r 6.0954 2 0 ack 40 ------- 0 3.0 0.0 1 76 19649 0x18 40 0
+ 6.100792 2 3 tcp 392 ------- 0 0.0 3.0 19649 77 1 0x18 40 0
- 6.100792 2 3 tcp 392 ------- 0 0.0 3.0 19649 77 1 0x18 40 0
r 6.204712 2 3 tcp 392 ------- 0 0.0 3.0 19649 77 1 0x18 40 0
+ 6.4004 2 0 ack 40 ------- 0 3.0 0.0 1 78 20001 0x18 40 0
- 6.4004 2 0 ack 40 ------- 0 3.0 0.0 1 78 20001 0x18 40 0
r 6.40544 2 0 ack 40 ------- 0 3.0 0.0 1 78 20001 0x18 40 0
