v testName telnet(200ms-delack)
+ 0.665362 2 3 tcp 40 ------- 0 0.0 3.0 0 0 -1 0xa 40 0
- 0.665362 2 3 tcp 40 ------- 0 0.0 3.0 0 0 -1 0xa 40 0
r 0.765762 2 3 tcp 40 ------- 0 0.0 3.0 0 0 -1 0xa 40 0
+ 0.866162 2 0 ack 40 ------- 0 3.0 0.0 0 1 1 0x1a 40 0
- 0.866162 2 0 ack 40 ------- 0 3.0 0.0 0 1 1 0x1a 40 0
r 0.871202 2 0 ack 40 ------- 0 3.0 0.0 0 1 1 0x1a 40 0
+ 0.876242 2 3 tcp 40 ------- 0 0.0 3.0 1 2 1 0x10 40 0
- 0.876242 2 3 tcp 40 ------- 0 0.0 3.0 1 2 1 0x10 40 0
+ 0.876818 2 3 tcp 576 ------- 0 0.0 3.0 1 3 1 0x10 40 0
- 0.876818 2 3 tcp 576 ------- 0 0.0 3.0 1 3 1 0x10 40 0
r 0.976642 2 3 tcp 40 ------- 0 0.0 3.0 1 2 1 0x10 40 0
r 0.982578 2 3 tcp 576 ------- 0 0.0 3.0 1 3 1 0x10 40 0
+ 1.1004 2 0 ack 40 ------- 0 3.0 0.0 1 4 537 0x18 40 0
- 1.1004 2 0 ack 40 ------- 0 3.0 0.0 1 4 537 0x18 40 0
r 1.10544 2 0 ack 40 ------- 0 3.0 0.0 1 4 537 0x18 40 0
+ 1.111016 2 3 tcp 576 ------- 0 0.0 3.0 537 5 1 0x18 40 0
- 1.111016 2 3 tcp 576 ------- 0 0.0 3.0 537 5 1 0x18 40 0
+ 1.146973 2 3 tcp 576 ------- 0 0.0 3.0 1073 6 1 0x18 40 0
- 1.146973 2 3 tcp 576 ------- 0 0.0 3.0 1073 6 1 0x18 40 0
r 1.216776 2 3 tcp 576 ------- 0 0.0 3.0 537 5 1 0x18 40 0
r 1.252733 2 3 tcp 576 ------- 0 0.0 3.0 1073 6 1 0x18 40 0
+ 1.5004 2 0 ack 40 ------- 0 3.0 0.0 1 7 1609 0x18 40 0
- 1.5004 2 0 ack 40 ------- 0 3.0 0.0 1 7 1609 0x18 40 0
r 1.50544 2 0 ack 40 ------- 0 3.0 0.0 1 7 1609 0x18 40 0
+ 1.511016 2 3 tcp 576 ------- 0 0.0 3.0 1609 8 1 0x18 40 0
- 1.511016 2 3 tcp 576 ------- 0 0.0 3.0 1609 8 1 0x18 40 0
r 1.616776 2 3 tcp 576 ------- 0 0.0 3.0 1609 8 1 0x18 40 0
+ 1.9004 2 0 ack 40 ------- 0 3.0 0.0 1 9 2145 0x18 40 0
- 1.9004 2 0 ack 40 ------- 0 3.0 0.0 1 9 2145 0x18 40 0
r 1.90544 2 0 ack 40 ------- 0 3.0 0.0 1 9 2145 0x18 40 0
+ 2.224989 2 3 tcp 576 ------- 0 0.0 3.0 2145 10 1 0x18 40 0
- 2.224989 2 3 tcp 576 ------- 0 0.0 3.0 2145 10 1 0x18 40 0
+ 2.324106 2 3 tcp 576 ------- 0 0.0 3.0 2681 11 1 0x18 40 0
- 2.324106 2 3 tcp 576 ------- 0 0.0 3.0 2681 11 1 0x18 40 0
r 2.330749 2 3 tcp 576 ------- 0 0.0 3.0 2145 10 1 0x18 40 0
+ 2.332983 2 3 tcp 576 ------- 0 0.0 3.0 3217 12 1 0x18 40 0
- 2.332983 2 3 tcp 576 ------- 0 0.0 3.0 3217 12 1 0x18 40 0
r 2.429866 2 3 tcp 576 ------- 0 0.0 3.0 2681 11 1 0x18 40 0
r 2.438743 2 3 tcp 576 ------- 0 0.0 3.0 3217 12 1 0x18 40 0
+ 2.5004 2 0 ack 40 ------- 0 3.0 0.0 1 13 2681 0x18 40 0
- 2.5004 2 0 ack 40 ------- 0 3.0 0.0 1 13 2681 0x18 40 0
r 2.50544 2 0 ack 40 ------- 0 3.0 0.0 1 13 2681 0x18 40 0
+ 2.685904 2 3 tcp 576 ------- 0 0.0 3.0 3753 15 1 0x18 40 0
- 2.685904 2 3 tcp 576 ------- 0 0.0 3.0 3753 15 1 0x18 40 0
+ 2.7004 2 0 ack 40 ------- 0 3.0 0.0 1 14 3753 0x18 40 0
- 2.7004 2 0 ack 40 ------- 0 3.0 0.0 1 14 3753 0x18 40 0
r 2.70544 2 0 ack 40 ------- 0 3.0 0.0 1 14 3753 0x18 40 0
+ 2.762221 2 3 tcp 576 ------- 0 0.0 3.0 4289 16 1 0x18 40 0
- 2.762221 2 3 tcp 576 ------- 0 0.0 3.0 4289 16 1 0x18 40 0
r 2.791664 2 3 tcp 576 ------- 0 0.0 3.0 3753 15 1 0x18 40 0
r 2.867981 2 3 tcp 576 ------- 0 0.0 3.0 4289 16 1 0x18 40 0
+ 2.9004 2 0 ack 40 ------- 0 3.0 0.0 1 17 4289 0x18 40 0
- 2.9004 2 0 ack 40 ------- 0 3.0 0.0 1 17 4289 0x18 40 0
r 2.90544 2 0 ack 40 ------- 0 3.0 0.0 1 17 4289 0x18 40 0
+ 3.1004 2 0 ack 40 ------- 0 3.0 0.0 1 18 4825 0x18 40 0
- 3.1004 2 0 ack 40 ------- 0 3.0 0.0 1 18 4825 0x18 40 0
r 3.10544 2 0 ack 40 ------- 0 3.0 0.0 1 18 4825 0x18 40 0
+ 3.800306 2 3 tcp 576 ------- 0 0.0 3.0 4825 19 1 0x18 40 0
- 3.800306 2 3 tcp 576 ------- 0 0.0 3.0 4825 19 1 0x18 40 0
r 3.906066 2 3 tcp 576 ------- 0 0.0 3.0 4825 19 1 0x18 40 0
+ 4.000178 2 3 tcp 576 ------- 0 0.0 3.0 5361 20 1 0x18 40 0
- 4.000178 2 3 tcp 576 ------- 0 0.0 3.0 5361 20 1 0x18 40 0
+ 4.100146 2 3 tcp 576 ------- 0 0.0 3.0 5897 22 1 0x18 40 0
- 4.100146 2 3 tcp 576 ------- 0 0.0 3.0 5897 22 1 0x18 40 0
+ 4.1004 2 0 ack 40 ------- 0 3.0 0.0 1 21 5361 0x18 40 0
- 4.1004 2 0 ack 40 ------- 0 3.0 0.0 1 21 5361 0x18 40 0
r 4.10544 2 0 ack 40 ------- 0 3.0 0.0 1 21 5361 0x18 40 0
r 4.105938 2 3 tcp 576 ------- 0 0.0 3.0 5361 20 1 0x18 40 0
+ 4.165235 2 3 tcp 576 ------- 0 0.0 3.0 6433 23 1 0x18 40 0
- 4.165235 2 3 tcp 576 ------- 0 0.0 3.0 6433 23 1 0x18 40 0
r 4.205906 2 3 tcp 576 ------- 0 0.0 3.0 5897 22 1 0x18 40 0
r 4.270995 2 3 tcp 576 ------- 0 0.0 3.0 6433 23 1 0x18 40 0
+ 4.3004 2 0 ack 40 ------- 0 3.0 0.0 1 24 5897 0x18 40 0
- 4.3004 2 0 ack 40 ------- 0 3.0 0.0 1 24 5897 0x18 40 0
r 4.30544 2 0 ack 40 ------- 0 3.0 0.0 1 24 5897 0x18 40 0
+ 4.5004 2 0 ack 40 ------- 0 3.0 0.0 1 25 6969 0x18 40 0
- 4.5004 2 0 ack 40 ------- 0 3.0 0.0 1 25 6969 0x18 40 0
r 4.50544 2 0 ack 40 ------- 0 3.0 0.0 1 25 6969 0x18 40 0
+ 4.923744 2 3 tcp 576 ------- 0 0.0 3.0 6969 26 1 0x18 40 0
- 4.923744 2 3 tcp 576 ------- 0 0.0 3.0 6969 26 1 0x18 40 0
r 5.029504 2 3 tcp 576 ------- 0 0.0 3.0 6969 26 1 0x18 40 0
+ 5.099735 2 3 tcp 576 ------- 0 0.0 3.0 7505 27 1 0x18 40 0
- 5.099735 2 3 tcp 576 ------- 0 0.0 3.0 7505 27 1 0x18 40 0
r 5.205495 2 3 tcp 576 ------- 0 0.0 3.0 7505 27 1 0x18 40 0
+ 5.239813 2 3 tcp 576 ------- 0 0.0 3.0 8041 29 1 0x18 40 0
- 5.239813 2 3 tcp 576 ------- 0 0.0 3.0 8041 29 1 0x18 40 0
+ 5.3004 2 0 ack 40 ------- 0 3.0 0.0 1 28 7505 0x18 40 0
- 5.3004 2 0 ack 40 ------- 0 3.0 0.0 1 28 7505 0x18 40 0
r 5.30544 2 0 ack 40 ------- 0 3.0 0.0 1 28 7505 0x18 40 0
r 5.345573 2 3 tcp 576 ------- 0 0.0 3.0 8041 29 1 0x18 40 0
+ 5.435545 2 3 tcp 576 ------- 0 0.0 3.0 8577 31 1 0x18 40 0
- 5.435545 2 3 tcp 576 ------- 0 0.0 3.0 8577 31 1 0x18 40 0
+ 5.5004 2 0 ack 40 ------- 0 3.0 0.0 1 30 8577 0x18 40 0
- 5.5004 2 0 ack 40 ------- 0 3.0 0.0 1 30 8577 0x18 40 0
r 5.50544 2 0 ack 40 ------- 0 3.0 0.0 1 30 8577 0x18 40 0
r 5.541305 2 3 tcp 576 ------- 0 0.0 3.0 8577 31 1 0x18 40 0
+ 5.683136 2 3 tcp 576 ------- 0 0.0 3.0 9113 33 1 0x18 40 0
- 5.683136 2 3 tcp 576 ------- 0 0.0 3.0 9113 33 1 0x18 40 0
+ 5.7004 2 0 ack 40 ------- 0 3.0 0.0 1 32 9113 0x18 40 0
- 5.7004 2 0 ack 40 ------- 0 3.0 0.0 1 32 9113 0x18 40 0
r 5.70544 2 0 ack 40 ------- 0 3.0 0.0 1 32 9113 0x18 40 0
r 5.788896 2 3 tcp 576 ------- 0 0.0 3.0 9113 33 1 0x18 40 0
+ 5.9004 2 0 ack 40 ------- 0 3.0 0.0 1 34 9649 0x18 40 0
- 5.9004 2 0 ack 40 ------- 0 3.0 0.0 1 34 9649 0x18 40 0
+ 5.903763 2 3 tcp 576 ------- 0 0.0 3.0 9649 35 1 0x18 40 0
- 5.903763 2 3 tcp 576 ------- 0 0.0 3.0 9649 35 1 0x18 40 0
r 5.90544 2 0 ack 40 ------- 0 3.0 0.0 1 34 9649 0x18 40 0
r 6.009523 2 3 tcp 576 ------- 0 0.0 3.0 9649 35 1 0x18 40 0
+ 6.3004 2 0 ack 40 ------- 0 3.0 0.0 1 36 10185 0x18 40 0
- 6.3004 2 0 ack 40 ------- 0 3.0 0.0 1 36 10185 0x18 40 0
r 6.30544 2 0 ack 40 ------- 0 3.0 0.0 1 36 10185 0x18 40 0
+ 6.313925 2 3 tcp 576 ------- 0 0.0 3.0 10185 37 1 0x18 40 0
- 6.313925 2 3 tcp 576 ------- 0 0.0 3.0 10185 37 1 0x18 40 0
r 6.419685 2 3 tcp 576 ------- 0 0.0 3.0 10185 37 1 0x18 40 0
+ 6.7004 2 0 ack 40 ------- 0 3.0 0.0 1 38 10721 0x18 40 0
- 6.7004 2 0 ack 40 ------- 0 3.0 0.0 1 38 10721 0x18 40 0
r 6.70544 2 0 ack 40 ------- 0 3.0 0.0 1 38 10721 0x18 40 0
+ 7.371892 2 3 tcp 576 ------- 0 0.0 3.0 10721 39 1 0x18 40 0
- 7.371892 2 3 tcp 576 ------- 0 0.0 3.0 10721 39 1 0x18 40 0
r 7.477652 2 3 tcp 576 ------- 0 0.0 3.0 10721 39 1 0x18 40 0
+ 7.7004 2 0 ack 40 ------- 0 3.0 0.0 1 40 11257 0x18 40 0
- 7.7004 2 0 ack 40 ------- 0 3.0 0.0 1 40 11257 0x18 40 0
r 7.70544 2 0 ack 40 ------- 0 3.0 0.0 1 40 11257 0x18 40 0
+ 8.330199 2 3 tcp 576 ------- 0 0.0 3.0 11257 41 1 0x18 40 0
- 8.330199 2 3 tcp 576 ------- 0 0.0 3.0 11257 41 1 0x18 40 0
r 8.435959 2 3 tcp 576 ------- 0 0.0 3.0 11257 41 1 0x18 40 0
+ 8.450855 2 3 tcp 576 ------- 0 0.0 3.0 11793 42 1 0x18 40 0
- 8.450855 2 3 tcp 576 ------- 0 0.0 3.0 11793 42 1 0x18 40 0
r 8.556615 2 3 tcp 576 ------- 0 0.0 3.0 11793 42 1 0x18 40 0
+ 8.582963 2 3 tcp 576 ------- 0 0.0 3.0 12329 43 1 0x18 40 0
- 8.582963 2 3 tcp 576 ------- 0 0.0 3.0 12329 43 1 0x18 40 0
r 8.688723 2 3 tcp 576 ------- 0 0.0 3.0 12329 43 1 0x18 40 0
+ 8.7004 2 0 ack 40 ------- 0 3.0 0.0 1 44 12329 0x18 40 0
- 8.7004 2 0 ack 40 ------- 0 3.0 0.0 1 44 12329 0x18 40 0
r 8.70544 2 0 ack 40 ------- 0 3.0 0.0 1 44 12329 0x18 40 0
+ 8.9004 2 0 ack 40 ------- 0 3.0 0.0 1 45 12865 0x18 40 0
- 8.9004 2 0 ack 40 ------- 0 3.0 0.0 1 45 12865 0x18 40 0
r 8.90544 2 0 ack 40 ------- 0 3.0 0.0 1 45 12865 0x18 40 0
+ 9.577269 2 3 tcp 576 ------- 0 0.0 3.0 12865 46 1 0x18 40 0
- 9.577269 2 3 tcp 576 ------- 0 0.0 3.0 12865 46 1 0x18 40 0
r 9.683029 2 3 tcp 576 ------- 0 0.0 3.0 12865 46 1 0x18 40 0
+ 9.9004 2 0 ack 40 ------- 0 3.0 0.0 1 47 13401 0x18 40 0
- 9.9004 2 0 ack 40 ------- 0 3.0 0.0 1 47 13401 0x18 40 0
r 9.90544 2 0 ack 40 ------- 0 3.0 0.0 1 47 13401 0x18 40 0
+ 9.972536 2 3 tcp 576 ------- 0 0.0 3.0 13401 48 1 0x18 40 0
- 9.972536 2 3 tcp 576 ------- 0 0.0 3.0 13401 48 1 0x18 40 0
