v testName telnet2(3segperack-600ms-delack)
+ 0.665362 2 3 tcp 40 ------- 0 0.0 3.0 0 0 -1 0xa 40 0
- 0.665362 2 3 tcp 40 ------- 0 0.0 3.0 0 0 -1 0xa 40 0
r 0.765762 2 3 tcp 40 ------- 0 0.0 3.0 0 0 -1 0xa 40 0
+ 0.866162 2 0 ack 40 ------- 0 3.0 0.0 0 1 1 0x1a 40 0
- 0.866162 2 0 ack 40 ------- 0 3.0 0.0 0 1 1 0x1a 40 0
r 0.871202 2 0 ack 40 ------- 0 3.0 0.0 0 1 1 0x1a 40 0
+ 0.876242 2 3 tcp 40 ------- 0 0.0 3.0 1 2 1 0x10 40 0
- 0.876242 2 3 tcp 40 ------- 0 0.0 3.0 1 2 1 0x10 40 0
+ 0.876818 2 3 tcp 576 ------- 0 0.0 3.0 1 3 1 0x10 40 0
- 0.876818 2 3 tcp 576 ------- 0 0.0 3.0 1 3 1 0x10 40 0
r 0.976642 2 3 tcp 40 ------- 0 0.0 3.0 1 2 1 0x10 40 0
r 0.982578 2 3 tcp 576 ------- 0 0.0 3.0 1 3 1 0x10 40 0
+ 1.3004 2 0 ack 40 ------- 0 3.0 0.0 1 4 537 0x18 40 0
- 1.3004 2 0 ack 40 ------- 0 3.0 0.0 1 4 537 0x18 40 0
r 1.30544 2 0 ack 40 ------- 0 3.0 0.0 1 4 537 0x18 40 0
+ 1.311016 2 3 tcp 576 ------- 0 0.0 3.0 537 5 1 0x10 40 0
- 1.311016 2 3 tcp 576 ------- 0 0.0 3.0 537 5 1 0x10 40 0
+ 1.311592 2 3 tcp 576 ------- 0 0.0 3.0 1073 6 1 0x10 40 0
- 1.316776 2 3 tcp 576 ------- 0 0.0 3.0 1073 6 1 0x10 40 0
r 1.416776 2 3 tcp 576 ------- 0 0.0 3.0 537 5 1 0x10 40 0
r 1.422536 2 3 tcp 576 ------- 0 0.0 3.0 1073 6 1 0x10 40 0
+ 1.9004 2 0 ack 40 ------- 0 3.0 0.0 1 7 1609 0x18 40 0
- 1.9004 2 0 ack 40 ------- 0 3.0 0.0 1 7 1609 0x18 40 0
r 1.90544 2 0 ack 40 ------- 0 3.0 0.0 1 7 1609 0x18 40 0
+ 1.911016 2 3 tcp 576 ------- 0 0.0 3.0 1609 8 1 0x18 40 0
- 1.911016 2 3 tcp 576 ------- 0 0.0 3.0 1609 8 1 0x18 40 0
r 2.016776 2 3 tcp 576 ------- 0 0.0 3.0 1609 8 1 0x18 40 0
+ 2.224989 2 3 tcp 576 ------- 0 0.0 3.0 2145 9 1 0x18 40 0
- 2.224989 2 3 tcp 576 ------- 0 0.0 3.0 2145 9 1 0x18 40 0
+ 2.324106 2 3 tcp 576 ------- 0 0.0 3.0 2681 10 1 0x18 40 0
- 2.324106 2 3 tcp 576 ------- 0 0.0 3.0 2681 10 1 0x18 40 0
r 2.330749 2 3 tcp 576 ------- 0 0.0 3.0 2145 9 1 0x18 40 0
r 2.429866 2 3 tcp 576 ------- 0 0.0 3.0 2681 10 1 0x18 40 0
+ 2.5004 2 0 ack 40 ------- 0 3.0 0.0 1 11 2681 0x18 40 0
- 2.5004 2 0 ack 40 ------- 0 3.0 0.0 1 11 2681 0x18 40 0
r 2.50544 2 0 ack 40 ------- 0 3.0 0.0 1 11 2681 0x18 40 0
+ 2.511016 2 3 tcp 576 ------- 0 0.0 3.0 3217 12 1 0x18 40 0
- 2.511016 2 3 tcp 576 ------- 0 0.0 3.0 3217 12 1 0x18 40 0
r 2.616776 2 3 tcp 576 ------- 0 0.0 3.0 3217 12 1 0x18 40 0
+ 2.685904 2 3 tcp 576 ------- 0 0.0 3.0 3753 13 1 0x18 40 0
- 2.685904 2 3 tcp 576 ------- 0 0.0 3.0 3753 13 1 0x18 40 0
+ 2.762221 2 3 tcp 576 ------- 0 0.0 3.0 4289 14 1 0x18 40 0
- 2.762221 2 3 tcp 576 ------- 0 0.0 3.0 4289 14 1 0x18 40 0
r 2.791664 2 3 tcp 576 ------- 0 0.0 3.0 3753 13 1 0x18 40 0
r 2.867981 2 3 tcp 576 ------- 0 0.0 3.0 4289 14 1 0x18 40 0
+ 2.892064 2 0 ack 40 ------- 0 3.0 0.0 1 15 4289 0x18 40 0
- 2.892064 2 0 ack 40 ------- 0 3.0 0.0 1 15 4289 0x18 40 0
r 2.897104 2 0 ack 40 ------- 0 3.0 0.0 1 15 4289 0x18 40 0
+ 3.1004 2 0 ack 40 ------- 0 3.0 0.0 1 16 4825 0x18 40 0
- 3.1004 2 0 ack 40 ------- 0 3.0 0.0 1 16 4825 0x18 40 0
r 3.10544 2 0 ack 40 ------- 0 3.0 0.0 1 16 4825 0x18 40 0
+ 3.800306 2 3 tcp 576 ------- 0 0.0 3.0 4825 17 1 0x18 40 0
- 3.800306 2 3 tcp 576 ------- 0 0.0 3.0 4825 17 1 0x18 40 0
r 3.906066 2 3 tcp 576 ------- 0 0.0 3.0 4825 17 1 0x18 40 0
+ 4.000178 2 3 tcp 576 ------- 0 0.0 3.0 5361 18 1 0x18 40 0
- 4.000178 2 3 tcp 576 ------- 0 0.0 3.0 5361 18 1 0x18 40 0
+ 4.100146 2 3 tcp 576 ------- 0 0.0 3.0 5897 19 1 0x18 40 0
- 4.100146 2 3 tcp 576 ------- 0 0.0 3.0 5897 19 1 0x18 40 0
r 4.105938 2 3 tcp 576 ------- 0 0.0 3.0 5361 18 1 0x18 40 0
+ 4.165235 2 3 tcp 576 ------- 0 0.0 3.0 6433 20 1 0x18 40 0
- 4.165235 2 3 tcp 576 ------- 0 0.0 3.0 6433 20 1 0x18 40 0
r 4.205906 2 3 tcp 576 ------- 0 0.0 3.0 5897 19 1 0x18 40 0
r 4.270995 2 3 tcp 576 ------- 0 0.0 3.0 6433 20 1 0x18 40 0
+ 4.3004 2 0 ack 40 ------- 0 3.0 0.0 1 21 5897 0x18 40 0
- 4.3004 2 0 ack 40 ------- 0 3.0 0.0 1 21 5897 0x18 40 0
r 4.30544 2 0 ack 40 ------- 0 3.0 0.0 1 21 5897 0x18 40 0
+ 4.9004 2 0 ack 40 ------- 0 3.0 0.0 1 22 6969 0x18 40 0
- 4.9004 2 0 ack 40 ------- 0 3.0 0.0 1 22 6969 0x18 40 0
r 4.90544 2 0 ack 40 ------- 0 3.0 0.0 1 22 6969 0x18 40 0
+ 4.923744 2 3 tcp 576 ------- 0 0.0 3.0 6969 23 1 0x18 40 0
- 4.923744 2 3 tcp 576 ------- 0 0.0 3.0 6969 23 1 0x18 40 0
r 5.029504 2 3 tcp 576 ------- 0 0.0 3.0 6969 23 1 0x18 40 0
+ 5.099735 2 3 tcp 576 ------- 0 0.0 3.0 7505 24 1 0x18 40 0
- 5.099735 2 3 tcp 576 ------- 0 0.0 3.0 7505 24 1 0x18 40 0
r 5.205495 2 3 tcp 576 ------- 0 0.0 3.0 7505 24 1 0x18 40 0
+ 5.239813 2 3 tcp 576 ------- 0 0.0 3.0 8041 25 1 0x18 40 0
- 5.239813 2 3 tcp 576 ------- 0 0.0 3.0 8041 25 1 0x18 40 0
r 5.345573 2 3 tcp 576 ------- 0 0.0 3.0 8041 25 1 0x18 40 0
+ 5.435545 2 3 tcp 576 ------- 0 0.0 3.0 8577 27 1 0x18 40 0
- 5.435545 2 3 tcp 576 ------- 0 0.0 3.0 8577 27 1 0x18 40 0
+ 5.445973 2 0 ack 40 ------- 0 3.0 0.0 1 26 8577 0x18 40 0
- 5.445973 2 0 ack 40 ------- 0 3.0 0.0 1 26 8577 0x18 40 0
r 5.451013 2 0 ack 40 ------- 0 3.0 0.0 1 26 8577 0x18 40 0
r 5.541305 2 3 tcp 576 ------- 0 0.0 3.0 8577 27 1 0x18 40 0
+ 5.683136 2 3 tcp 576 ------- 0 0.0 3.0 9113 28 1 0x18 40 0
- 5.683136 2 3 tcp 576 ------- 0 0.0 3.0 9113 28 1 0x18 40 0
r 5.788896 2 3 tcp 576 ------- 0 0.0 3.0 9113 28 1 0x18 40 0
+ 5.903763 2 3 tcp 576 ------- 0 0.0 3.0 9649 29 1 0x18 40 0
- 5.903763 2 3 tcp 576 ------- 0 0.0 3.0 9649 29 1 0x18 40 0
r 6.009523 2 3 tcp 576 ------- 0 0.0 3.0 9649 29 1 0x18 40 0
+ 6.1004 2 0 ack 40 ------- 0 3.0 0.0 1 30 9649 0x18 40 0
- 6.1004 2 0 ack 40 ------- 0 3.0 0.0 1 30 9649 0x18 40 0
r 6.10544 2 0 ack 40 ------- 0 3.0 0.0 1 30 9649 0x18 40 0
+ 6.313925 2 3 tcp 576 ------- 0 0.0 3.0 10185 31 1 0x18 40 0
- 6.313925 2 3 tcp 576 ------- 0 0.0 3.0 10185 31 1 0x18 40 0
r 6.419685 2 3 tcp 576 ------- 0 0.0 3.0 10185 31 1 0x18 40 0
+ 6.7004 2 0 ack 40 ------- 0 3.0 0.0 1 32 10721 0x18 40 0
- 6.7004 2 0 ack 40 ------- 0 3.0 0.0 1 32 10721 0x18 40 0
r 6.70544 2 0 ack 40 ------- 0 3.0 0.0 1 32 10721 0x18 40 0
+ 7.371892 2 3 tcp 576 ------- 0 0.0 3.0 10721 33 1 0x18 40 0
- 7.371892 2 3 tcp 576 ------- 0 0.0 3.0 10721 33 1 0x18 40 0
r 7.477652 2 3 tcp 576 ------- 0 0.0 3.0 10721 33 1 0x18 40 0
+ 7.9004 2 0 ack 40 ------- 0 3.0 0.0 1 34 11257 0x18 40 0
- 7.9004 2 0 ack 40 ------- 0 3.0 0.0 1 34 11257 0x18 40 0
r 7.90544 2 0 ack 40 ------- 0 3.0 0.0 1 34 11257 0x18 40 0
+ 8.330199 2 3 tcp 576 ------- 0 0.0 3.0 11257 35 1 0x18 40 0
- 8.330199 2 3 tcp 576 ------- 0 0.0 3.0 11257 35 1 0x18 40 0
r 8.435959 2 3 tcp 576 ------- 0 0.0 3.0 11257 35 1 0x18 40 0
+ 8.450855 2 3 tcp 576 ------- 0 0.0 3.0 11793 36 1 0x18 40 0
- 8.450855 2 3 tcp 576 ------- 0 0.0 3.0 11793 36 1 0x18 40 0
r 8.556615 2 3 tcp 576 ------- 0 0.0 3.0 11793 36 1 0x18 40 0
+ 8.582963 2 3 tcp 576 ------- 0 0.0 3.0 12329 37 1 0x18 40 0
- 8.582963 2 3 tcp 576 ------- 0 0.0 3.0 12329 37 1 0x18 40 0
r 8.688723 2 3 tcp 576 ------- 0 0.0 3.0 12329 37 1 0x18 40 0
+ 8.789123 2 0 ack 40 ------- 0 3.0 0.0 1 38 12865 0x18 40 0
- 8.789123 2 0 ack 40 ------- 0 3.0 0.0 1 38 12865 0x18 40 0
r 8.794163 2 0 ack 40 ------- 0 3.0 0.0 1 38 12865 0x18 40 0
+ 9.577269 2 3 tcp 576 ------- 0 0.0 3.0 12865 39 1 0x18 40 0
- 9.577269 2 3 tcp 576 ------- 0 0.0 3.0 12865 39 1 0x18 40 0
r 9.683029 2 3 tcp 576 ------- 0 0.0 3.0 12865 39 1 0x18 40 0
+ 9.972536 2 3 tcp 576 ------- 0 0.0 3.0 13401 40 1 0x18 40 0
- 9.972536 2 3 tcp 576 ------- 0 0.0 3.0 13401 40 1 0x18 40 0
