v testName tsopt
+ 0.50505 2 3 tcp 50 ------- 0 0.0 3.0 0 0 -1 0xa 50 0
- 0.50505 2 3 tcp 50 ------- 0 0.0 3.0 0 0 -1 0xa 50 0
r 0.60555 2 3 tcp 50 ------- 0 0.0 3.0 0 0 -1 0xa 50 0
+ 0.70605 2 0 ack 50 ------- 0 3.0 0.0 0 1 1 0x1a 50 0
- 0.70605 2 0 ack 50 ------- 0 3.0 0.0 0 1 1 0x1a 50 0
r 0.7111 2 0 ack 50 ------- 0 3.0 0.0 0 1 1 0x1a 50 0
+ 0.71615 2 3 tcp 50 ------- 0 0.0 3.0 1 2 1 0x10 50 0
- 0.71615 2 3 tcp 50 ------- 0 0.0 3.0 1 2 1 0x10 50 0
+ 0.716736 2 3 tcp 586 ------- 0 0.0 3.0 1 3 1 0x10 50 0
- 0.716736 2 3 tcp 586 ------- 0 0.0 3.0 1 3 1 0x10 50 0
r 0.81665 2 3 tcp 50 ------- 0 0.0 3.0 1 2 1 0x10 50 0
r 0.822596 2 3 tcp 586 ------- 0 0.0 3.0 1 3 1 0x10 50 0
+ 0.923096 2 0 ack 50 ------- 0 3.0 0.0 1 4 537 0x18 50 0
- 0.923096 2 0 ack 50 ------- 0 3.0 0.0 1 4 537 0x18 50 0
r 0.928146 2 0 ack 50 ------- 0 3.0 0.0 1 4 537 0x18 50 0
+ 0.933732 2 3 tcp 586 ------- 0 0.0 3.0 537 5 1 0x10 50 0
- 0.933732 2 3 tcp 586 ------- 0 0.0 3.0 537 5 1 0x10 50 0
+ 0.934318 2 3 tcp 586 ------- 0 0.0 3.0 1073 6 1 0x10 50 0
- 0.939592 2 3 tcp 586 ------- 0 0.0 3.0 1073 6 1 0x10 50 0
r 1.039592 2 3 tcp 586 ------- 0 0.0 3.0 537 5 1 0x10 50 0
r 1.045452 2 3 tcp 586 ------- 0 0.0 3.0 1073 6 1 0x10 50 0
+ 1.140092 2 0 ack 50 ------- 0 3.0 0.0 1 7 1073 0x18 50 0
- 1.140092 2 0 ack 50 ------- 0 3.0 0.0 1 7 1073 0x18 50 0
r 1.145142 2 0 ack 50 ------- 0 3.0 0.0 1 7 1073 0x18 50 0
+ 1.145952 2 0 ack 50 ------- 0 3.0 0.0 1 8 1609 0x18 50 0
- 1.145952 2 0 ack 50 ------- 0 3.0 0.0 1 8 1609 0x18 50 0
+ 1.150728 2 3 tcp 586 ------- 0 0.0 3.0 1609 9 1 0x10 50 0
- 1.150728 2 3 tcp 586 ------- 0 0.0 3.0 1609 9 1 0x10 50 0
r 1.151002 2 0 ack 50 ------- 0 3.0 0.0 1 8 1609 0x18 50 0
+ 1.151314 2 3 tcp 586 ------- 0 0.0 3.0 2145 10 1 0x10 50 0
- 1.156588 2 3 tcp 586 ------- 0 0.0 3.0 2145 10 1 0x10 50 0
+ 1.156588 2 3 tcp 586 ------- 0 0.0 3.0 2681 11 1 0x10 50 0
+ 1.157174 2 3 tcp 586 ------- 0 0.0 3.0 3217 12 1 0x10 50 0
- 1.162448 2 3 tcp 586 ------- 0 0.0 3.0 2681 11 1 0x10 50 0
- 1.168308 2 3 tcp 586 ------- 0 0.0 3.0 3217 12 1 0x10 50 0
r 1.256588 2 3 tcp 586 ------- 0 0.0 3.0 1609 9 1 0x10 50 0
r 1.262448 2 3 tcp 586 ------- 0 0.0 3.0 2145 10 1 0x10 50 0
r 1.268308 2 3 tcp 586 ------- 0 0.0 3.0 2681 11 1 0x10 50 0
r 1.274168 2 3 tcp 586 ------- 0 0.0 3.0 3217 12 1 0x10 50 0
+ 1.357088 2 0 ack 50 ------- 0 3.0 0.0 1 13 2145 0x18 50 0
- 1.357088 2 0 ack 50 ------- 0 3.0 0.0 1 13 2145 0x18 50 0
r 1.362138 2 0 ack 50 ------- 0 3.0 0.0 1 13 2145 0x18 50 0
+ 1.362948 2 0 ack 50 ------- 0 3.0 0.0 1 14 2681 0x18 50 0
- 1.362948 2 0 ack 50 ------- 0 3.0 0.0 1 14 2681 0x18 50 0
+ 1.367724 2 3 tcp 586 ------- 0 0.0 3.0 3753 17 1 0x10 50 0
- 1.367724 2 3 tcp 586 ------- 0 0.0 3.0 3753 17 1 0x10 50 0
r 1.367998 2 0 ack 50 ------- 0 3.0 0.0 1 14 2681 0x18 50 0
+ 1.36831 2 3 tcp 586 ------- 0 0.0 3.0 4289 18 1 0x10 50 0
+ 1.368808 2 0 ack 50 ------- 0 3.0 0.0 1 15 3217 0x18 50 0
- 1.368808 2 0 ack 50 ------- 0 3.0 0.0 1 15 3217 0x18 50 0
- 1.373584 2 3 tcp 586 ------- 0 0.0 3.0 4289 18 1 0x10 50 0
+ 1.373584 2 3 tcp 586 ------- 0 0.0 3.0 4825 19 1 0x10 50 0
r 1.373858 2 0 ack 50 ------- 0 3.0 0.0 1 15 3217 0x18 50 0
+ 1.37417 2 3 tcp 586 ------- 0 0.0 3.0 5361 20 1 0x10 50 0
+ 1.374668 2 0 ack 50 ------- 0 3.0 0.0 1 16 3753 0x18 50 0
- 1.374668 2 0 ack 50 ------- 0 3.0 0.0 1 16 3753 0x18 50 0
- 1.379444 2 3 tcp 586 ------- 0 0.0 3.0 4825 19 1 0x10 50 0
+ 1.379444 2 3 tcp 586 ------- 0 0.0 3.0 5897 21 1 0x10 50 0
r 1.379718 2 0 ack 50 ------- 0 3.0 0.0 1 16 3753 0x18 50 0
+ 1.38003 2 3 tcp 586 ------- 0 0.0 3.0 6433 22 1 0x10 50 0
- 1.385304 2 3 tcp 586 ------- 0 0.0 3.0 5361 20 1 0x10 50 0
+ 1.385304 2 3 tcp 586 ------- 0 0.0 3.0 6969 23 1 0x10 50 0
+ 1.38589 2 3 tcp 586 ------- 0 0.0 3.0 7505 24 1 0x10 50 0
- 1.391164 2 3 tcp 586 ------- 0 0.0 3.0 5897 21 1 0x10 50 0
- 1.397024 2 3 tcp 586 ------- 0 0.0 3.0 6433 22 1 0x10 50 0
- 1.402884 2 3 tcp 586 ------- 0 0.0 3.0 6969 23 1 0x10 50 0
- 1.408744 2 3 tcp 586 ------- 0 0.0 3.0 7505 24 1 0x10 50 0
r 1.473584 2 3 tcp 586 ------- 0 0.0 3.0 3753 17 1 0x10 50 0
r 1.479444 2 3 tcp 586 ------- 0 0.0 3.0 4289 18 1 0x10 50 0
r 1.485304 2 3 tcp 586 ------- 0 0.0 3.0 4825 19 1 0x10 50 0
r 1.491164 2 3 tcp 586 ------- 0 0.0 3.0 5361 20 1 0x10 50 0
r 1.497024 2 3 tcp 586 ------- 0 0.0 3.0 5897 21 1 0x10 50 0
r 1.502884 2 3 tcp 586 ------- 0 0.0 3.0 6433 22 1 0x10 50 0
r 1.508744 2 3 tcp 586 ------- 0 0.0 3.0 6969 23 1 0x10 50 0
r 1.514604 2 3 tcp 586 ------- 0 0.0 3.0 7505 24 1 0x10 50 0
+ 1.574084 2 0 ack 50 ------- 0 3.0 0.0 1 25 4289 0x18 50 0
- 1.574084 2 0 ack 50 ------- 0 3.0 0.0 1 25 4289 0x18 50 0
r 1.579134 2 0 ack 50 ------- 0 3.0 0.0 1 25 4289 0x18 50 0
+ 1.579944 2 0 ack 50 ------- 0 3.0 0.0 1 26 4825 0x18 50 0
- 1.579944 2 0 ack 50 ------- 0 3.0 0.0 1 26 4825 0x18 50 0
+ 1.58472 2 3 tcp 586 ------- 0 0.0 3.0 8041 33 1 0x10 50 0
- 1.58472 2 3 tcp 586 ------- 0 0.0 3.0 8041 33 1 0x10 50 0
r 1.584994 2 0 ack 50 ------- 0 3.0 0.0 1 26 4825 0x18 50 0
+ 1.585306 2 3 tcp 586 ------- 0 0.0 3.0 8577 34 1 0x10 50 0
+ 1.585804 2 0 ack 50 ------- 0 3.0 0.0 1 27 5361 0x18 50 0
- 1.585804 2 0 ack 50 ------- 0 3.0 0.0 1 27 5361 0x18 50 0
- 1.59058 2 3 tcp 586 ------- 0 0.0 3.0 8577 34 1 0x10 50 0
+ 1.59058 2 3 tcp 586 ------- 0 0.0 3.0 9113 35 1 0x10 50 0
r 1.590854 2 0 ack 50 ------- 0 3.0 0.0 1 27 5361 0x18 50 0
+ 1.591166 2 3 tcp 586 ------- 0 0.0 3.0 9649 36 1 0x10 50 0
+ 1.591664 2 0 ack 50 ------- 0 3.0 0.0 1 28 5897 0x18 50 0
- 1.591664 2 0 ack 50 ------- 0 3.0 0.0 1 28 5897 0x18 50 0
- 1.59644 2 3 tcp 586 ------- 0 0.0 3.0 9113 35 1 0x10 50 0
+ 1.59644 2 3 tcp 586 ------- 0 0.0 3.0 10185 37 1 0x10 50 0
r 1.596714 2 0 ack 50 ------- 0 3.0 0.0 1 28 5897 0x18 50 0
+ 1.597026 2 3 tcp 586 ------- 0 0.0 3.0 10721 38 1 0x10 50 0
+ 1.597524 2 0 ack 50 ------- 0 3.0 0.0 1 29 6433 0x18 50 0
- 1.597524 2 0 ack 50 ------- 0 3.0 0.0 1 29 6433 0x18 50 0
- 1.6023 2 3 tcp 586 ------- 0 0.0 3.0 9649 36 1 0x10 50 0
+ 1.6023 2 3 tcp 586 ------- 0 0.0 3.0 11257 39 1 0x10 50 0
r 1.602574 2 0 ack 50 ------- 0 3.0 0.0 1 29 6433 0x18 50 0
+ 1.602886 2 3 tcp 586 ------- 0 0.0 3.0 11793 40 1 0x10 50 0
+ 1.603384 2 0 ack 50 ------- 0 3.0 0.0 1 30 6969 0x18 50 0
- 1.603384 2 0 ack 50 ------- 0 3.0 0.0 1 30 6969 0x18 50 0
- 1.60816 2 3 tcp 586 ------- 0 0.0 3.0 10185 37 1 0x10 50 0
+ 1.60816 2 3 tcp 586 ------- 0 0.0 3.0 12329 41 1 0x10 50 0
r 1.608434 2 0 ack 50 ------- 0 3.0 0.0 1 30 6969 0x18 50 0
+ 1.608746 2 3 tcp 586 ------- 0 0.0 3.0 12865 42 1 0x10 50 0
+ 1.609244 2 0 ack 50 ------- 0 3.0 0.0 1 31 7505 0x18 50 0
- 1.609244 2 0 ack 50 ------- 0 3.0 0.0 1 31 7505 0x18 50 0
- 1.61402 2 3 tcp 586 ------- 0 0.0 3.0 10721 38 1 0x10 50 0
+ 1.61402 2 3 tcp 586 ------- 0 0.0 3.0 13401 43 1 0x10 50 0
r 1.614294 2 0 ack 50 ------- 0 3.0 0.0 1 31 7505 0x18 50 0
+ 1.614606 2 3 tcp 586 ------- 0 0.0 3.0 13937 44 1 0x10 50 0
d 1.614606 2 3 tcp 586 ------- 0 0.0 3.0 13937 44 1 0x10 50 0
+ 1.615104 2 0 ack 50 ------- 0 3.0 0.0 1 32 8041 0x18 50 0
- 1.615104 2 0 ack 50 ------- 0 3.0 0.0 1 32 8041 0x18 50 0
- 1.61988 2 3 tcp 586 ------- 0 0.0 3.0 11257 39 1 0x10 50 0
+ 1.61988 2 3 tcp 586 ------- 0 0.0 3.0 14473 45 1 0x10 50 0
r 1.620154 2 0 ack 50 ------- 0 3.0 0.0 1 32 8041 0x18 50 0
+ 1.620466 2 3 tcp 586 ------- 0 0.0 3.0 15009 46 1 0x10 50 0
d 1.620466 2 3 tcp 586 ------- 0 0.0 3.0 15009 46 1 0x10 50 0
- 1.62574 2 3 tcp 586 ------- 0 0.0 3.0 11793 40 1 0x10 50 0
+ 1.62574 2 3 tcp 586 ------- 0 0.0 3.0 15545 47 1 0x10 50 0
+ 1.626326 2 3 tcp 586 ------- 0 0.0 3.0 16081 48 1 0x10 50 0
d 1.626326 2 3 tcp 586 ------- 0 0.0 3.0 16081 48 1 0x10 50 0
- 1.6316 2 3 tcp 586 ------- 0 0.0 3.0 12329 41 1 0x10 50 0
- 1.63746 2 3 tcp 586 ------- 0 0.0 3.0 12865 42 1 0x10 50 0
- 1.64332 2 3 tcp 586 ------- 0 0.0 3.0 13401 43 1 0x10 50 0
- 1.64918 2 3 tcp 586 ------- 0 0.0 3.0 14473 45 1 0x10 50 0
- 1.65504 2 3 tcp 586 ------- 0 0.0 3.0 15545 47 1 0x10 50 0
r 1.69058 2 3 tcp 586 ------- 0 0.0 3.0 8041 33 1 0x10 50 0
r 1.69644 2 3 tcp 586 ------- 0 0.0 3.0 8577 34 1 0x10 50 0
r 1.7023 2 3 tcp 586 ------- 0 0.0 3.0 9113 35 1 0x10 50 0
r 1.70816 2 3 tcp 586 ------- 0 0.0 3.0 9649 36 1 0x10 50 0
r 1.71402 2 3 tcp 586 ------- 0 0.0 3.0 10185 37 1 0x10 50 0
r 1.71988 2 3 tcp 586 ------- 0 0.0 3.0 10721 38 1 0x10 50 0
r 1.72574 2 3 tcp 586 ------- 0 0.0 3.0 11257 39 1 0x10 50 0
r 1.7316 2 3 tcp 586 ------- 0 0.0 3.0 11793 40 1 0x10 50 0
r 1.73746 2 3 tcp 586 ------- 0 0.0 3.0 12329 41 1 0x10 50 0
r 1.74332 2 3 tcp 586 ------- 0 0.0 3.0 12865 42 1 0x10 50 0
r 1.74918 2 3 tcp 586 ------- 0 0.0 3.0 13401 43 1 0x10 50 0
r 1.75504 2 3 tcp 586 ------- 0 0.0 3.0 14473 45 1 0x10 50 0
r 1.7609 2 3 tcp 586 ------- 0 0.0 3.0 15545 47 1 0x10 50 0
+ 1.79108 2 0 ack 50 ------- 0 3.0 0.0 1 49 8577 0x18 50 0
- 1.79108 2 0 ack 50 ------- 0 3.0 0.0 1 49 8577 0x18 50 0
r 1.79613 2 0 ack 50 ------- 0 3.0 0.0 1 49 8577 0x18 50 0
+ 1.79694 2 0 ack 50 ------- 0 3.0 0.0 1 50 9113 0x18 50 0
- 1.79694 2 0 ack 50 ------- 0 3.0 0.0 1 50 9113 0x18 50 0
+ 1.801716 2 3 tcp 586 ------- 0 0.0 3.0 16617 62 1 0x10 50 0
- 1.801716 2 3 tcp 586 ------- 0 0.0 3.0 16617 62 1 0x10 50 0
r 1.80199 2 0 ack 50 ------- 0 3.0 0.0 1 50 9113 0x18 50 0
+ 1.802302 2 3 tcp 586 ------- 0 0.0 3.0 17153 63 1 0x10 50 0
+ 1.8028 2 0 ack 50 ------- 0 3.0 0.0 1 51 9649 0x18 50 0
- 1.8028 2 0 ack 50 ------- 0 3.0 0.0 1 51 9649 0x18 50 0
- 1.807576 2 3 tcp 586 ------- 0 0.0 3.0 17153 63 1 0x10 50 0
+ 1.807576 2 3 tcp 586 ------- 0 0.0 3.0 17689 64 1 0x10 50 0
r 1.80785 2 0 ack 50 ------- 0 3.0 0.0 1 51 9649 0x18 50 0
+ 1.808162 2 3 tcp 586 ------- 0 0.0 3.0 18225 65 1 0x10 50 0
+ 1.80866 2 0 ack 50 ------- 0 3.0 0.0 1 52 10185 0x18 50 0
- 1.80866 2 0 ack 50 ------- 0 3.0 0.0 1 52 10185 0x18 50 0
- 1.813436 2 3 tcp 586 ------- 0 0.0 3.0 17689 64 1 0x10 50 0
+ 1.813436 2 3 tcp 586 ------- 0 0.0 3.0 18761 66 1 0x10 50 0
r 1.81371 2 0 ack 50 ------- 0 3.0 0.0 1 52 10185 0x18 50 0
+ 1.814022 2 3 tcp 586 ------- 0 0.0 3.0 19297 67 1 0x10 50 0
+ 1.81452 2 0 ack 50 ------- 0 3.0 0.0 1 53 10721 0x18 50 0
- 1.81452 2 0 ack 50 ------- 0 3.0 0.0 1 53 10721 0x18 50 0
- 1.819296 2 3 tcp 586 ------- 0 0.0 3.0 18225 65 1 0x10 50 0
+ 1.819296 2 3 tcp 586 ------- 0 0.0 3.0 19833 68 1 0x10 50 0
r 1.81957 2 0 ack 50 ------- 0 3.0 0.0 1 53 10721 0x18 50 0
+ 1.819882 2 3 tcp 586 ------- 0 0.0 3.0 20369 69 1 0x10 50 0
+ 1.82038 2 0 ack 50 ------- 0 3.0 0.0 1 54 11257 0x18 50 0
- 1.82038 2 0 ack 50 ------- 0 3.0 0.0 1 54 11257 0x18 50 0
- 1.825156 2 3 tcp 586 ------- 0 0.0 3.0 18761 66 1 0x10 50 0
+ 1.825156 2 3 tcp 586 ------- 0 0.0 3.0 20905 70 1 0x10 50 0
r 1.82543 2 0 ack 50 ------- 0 3.0 0.0 1 54 11257 0x18 50 0
+ 1.825742 2 3 tcp 586 ------- 0 0.0 3.0 21441 71 1 0x10 50 0
+ 1.82624 2 0 ack 50 ------- 0 3.0 0.0 1 55 11793 0x18 50 0
- 1.82624 2 0 ack 50 ------- 0 3.0 0.0 1 55 11793 0x18 50 0
- 1.831016 2 3 tcp 586 ------- 0 0.0 3.0 19297 67 1 0x10 50 0
+ 1.831016 2 3 tcp 586 ------- 0 0.0 3.0 21977 72 1 0x10 50 0
r 1.83129 2 0 ack 50 ------- 0 3.0 0.0 1 55 11793 0x18 50 0
+ 1.831602 2 3 tcp 586 ------- 0 0.0 3.0 22513 73 1 0x10 50 0
d 1.831602 2 3 tcp 586 ------- 0 0.0 3.0 22513 73 1 0x10 50 0
+ 1.8321 2 0 ack 50 ------- 0 3.0 0.0 1 56 12329 0x18 50 0
- 1.8321 2 0 ack 50 ------- 0 3.0 0.0 1 56 12329 0x18 50 0
- 1.836876 2 3 tcp 586 ------- 0 0.0 3.0 19833 68 1 0x10 50 0
+ 1.836876 2 3 tcp 586 ------- 0 0.0 3.0 23049 74 1 0x10 50 0
r 1.83715 2 0 ack 50 ------- 0 3.0 0.0 1 56 12329 0x18 50 0
+ 1.837462 2 3 tcp 586 ------- 0 0.0 3.0 23585 75 1 0x10 50 0
d 1.837462 2 3 tcp 586 ------- 0 0.0 3.0 23585 75 1 0x10 50 0
+ 1.83796 2 0 ack 50 ------- 0 3.0 0.0 1 57 12865 0x18 50 0
- 1.83796 2 0 ack 50 ------- 0 3.0 0.0 1 57 12865 0x18 50 0
- 1.842736 2 3 tcp 586 ------- 0 0.0 3.0 20369 69 1 0x10 50 0
+ 1.842736 2 3 tcp 586 ------- 0 0.0 3.0 24121 76 1 0x10 50 0
r 1.84301 2 0 ack 50 ------- 0 3.0 0.0 1 57 12865 0x18 50 0
+ 1.843322 2 3 tcp 586 ------- 0 0.0 3.0 24657 77 1 0x10 50 0
d 1.843322 2 3 tcp 586 ------- 0 0.0 3.0 24657 77 1 0x10 50 0
+ 1.84382 2 0 ack 50 ------- 0 3.0 0.0 1 58 13401 0x18 50 0
- 1.84382 2 0 ack 50 ------- 0 3.0 0.0 1 58 13401 0x18 50 0
- 1.848596 2 3 tcp 586 ------- 0 0.0 3.0 20905 70 1 0x10 50 0
+ 1.848596 2 3 tcp 586 ------- 0 0.0 3.0 25193 78 1 0x10 50 0
r 1.84887 2 0 ack 50 ------- 0 3.0 0.0 1 58 13401 0x18 50 0
+ 1.849182 2 3 tcp 586 ------- 0 0.0 3.0 25729 79 1 0x10 50 0
d 1.849182 2 3 tcp 586 ------- 0 0.0 3.0 25729 79 1 0x10 50 0
+ 1.84968 2 0 ack 50 ------- 0 3.0 0.0 1 59 13937 0x18 50 0
- 1.84968 2 0 ack 50 ------- 0 3.0 0.0 1 59 13937 0x18 50 0
- 1.854456 2 3 tcp 586 ------- 0 0.0 3.0 21441 71 1 0x10 50 0
+ 1.854456 2 3 tcp 586 ------- 0 0.0 3.0 26265 80 1 0x10 50 0
r 1.85473 2 0 ack 50 ------- 0 3.0 0.0 1 59 13937 0x18 50 0
+ 1.855042 2 3 tcp 586 ------- 0 0.0 3.0 26801 81 1 0x10 50 0
d 1.855042 2 3 tcp 586 ------- 0 0.0 3.0 26801 81 1 0x10 50 0
+ 1.85554 2 0 ack 50 ------- 0 3.0 0.0 1 60 13937 0x18 50 0
- 1.85554 2 0 ack 50 ------- 0 3.0 0.0 1 60 13937 0x18 50 0
- 1.860316 2 3 tcp 586 ------- 0 0.0 3.0 21977 72 1 0x10 50 0
+ 1.860316 2 3 tcp 586 ------- 0 0.0 3.0 27337 82 1 0x10 50 0
r 1.86059 2 0 ack 50 ------- 0 3.0 0.0 1 60 13937 0x18 50 0
+ 1.860902 2 3 tcp 586 ------- 0 0.0 3.0 27873 83 1 0x10 50 0
d 1.860902 2 3 tcp 586 ------- 0 0.0 3.0 27873 83 1 0x10 50 0
+ 1.8614 2 0 ack 50 ------- 0 3.0 0.0 1 61 13937 0x18 50 0
- 1.8614 2 0 ack 50 ------- 0 3.0 0.0 1 61 13937 0x18 50 0
- 1.866176 2 3 tcp 586 ------- 0 0.0 3.0 23049 74 1 0x10 50 0
r 1.86645 2 0 ack 50 ------- 0 3.0 0.0 1 61 13937 0x18 50 0
- 1.872036 2 3 tcp 586 ------- 0 0.0 3.0 24121 76 1 0x10 50 0
- 1.877896 2 3 tcp 586 ------- 0 0.0 3.0 25193 78 1 0x10 50 0
- 1.883756 2 3 tcp 586 ------- 0 0.0 3.0 26265 80 1 0x10 50 0
- 1.889616 2 3 tcp 586 ------- 0 0.0 3.0 27337 82 1 0x10 50 0
r 1.907576 2 3 tcp 586 ------- 0 0.0 3.0 16617 62 1 0x10 50 0
r 1.913436 2 3 tcp 586 ------- 0 0.0 3.0 17153 63 1 0x10 50 0
r 1.919296 2 3 tcp 586 ------- 0 0.0 3.0 17689 64 1 0x10 50 0
r 1.925156 2 3 tcp 586 ------- 0 0.0 3.0 18225 65 1 0x10 50 0
r 1.931016 2 3 tcp 586 ------- 0 0.0 3.0 18761 66 1 0x10 50 0
r 1.936876 2 3 tcp 586 ------- 0 0.0 3.0 19297 67 1 0x10 50 0
r 1.942736 2 3 tcp 586 ------- 0 0.0 3.0 19833 68 1 0x10 50 0
r 1.948596 2 3 tcp 586 ------- 0 0.0 3.0 20369 69 1 0x10 50 0
r 1.954456 2 3 tcp 586 ------- 0 0.0 3.0 20905 70 1 0x10 50 0
r 1.960316 2 3 tcp 586 ------- 0 0.0 3.0 21441 71 1 0x10 50 0
r 1.966176 2 3 tcp 586 ------- 0 0.0 3.0 21977 72 1 0x10 50 0
r 1.972036 2 3 tcp 586 ------- 0 0.0 3.0 23049 74 1 0x10 50 0
r 1.977896 2 3 tcp 586 ------- 0 0.0 3.0 24121 76 1 0x10 50 0
r 1.983756 2 3 tcp 586 ------- 0 0.0 3.0 25193 78 1 0x10 50 0
r 1.989616 2 3 tcp 586 ------- 0 0.0 3.0 26265 80 1 0x10 50 0
r 1.995476 2 3 tcp 586 ------- 0 0.0 3.0 27337 82 1 0x10 50 0
+ 2.008076 2 0 ack 50 ------- 0 3.0 0.0 1 84 13937 0x18 50 0
- 2.008076 2 0 ack 50 ------- 0 3.0 0.0 1 84 13937 0x18 50 0
r 2.013126 2 0 ack 50 ------- 0 3.0 0.0 1 84 13937 0x18 50 0
+ 2.013936 2 0 ack 50 ------- 0 3.0 0.0 1 85 13937 0x18 50 0
- 2.013936 2 0 ack 50 ------- 0 3.0 0.0 1 85 13937 0x18 50 0
+ 2.018712 2 3 tcp 586 ------- 0 0.0 3.0 13937 100 1 0x10 50 0
- 2.018712 2 3 tcp 586 ------- 0 0.0 3.0 13937 100 1 0x10 50 0
r 2.018986 2 0 ack 50 ------- 0 3.0 0.0 1 85 13937 0x18 50 0
+ 2.019796 2 0 ack 50 ------- 0 3.0 0.0 1 86 13937 0x18 50 0
- 2.019796 2 0 ack 50 ------- 0 3.0 0.0 1 86 13937 0x18 50 0
r 2.024846 2 0 ack 50 ------- 0 3.0 0.0 1 86 13937 0x18 50 0
+ 2.025656 2 0 ack 50 ------- 0 3.0 0.0 1 87 13937 0x18 50 0
- 2.025656 2 0 ack 50 ------- 0 3.0 0.0 1 87 13937 0x18 50 0
r 2.030706 2 0 ack 50 ------- 0 3.0 0.0 1 87 13937 0x18 50 0
+ 2.031516 2 0 ack 50 ------- 0 3.0 0.0 1 88 13937 0x18 50 0
- 2.031516 2 0 ack 50 ------- 0 3.0 0.0 1 88 13937 0x18 50 0
r 2.036566 2 0 ack 50 ------- 0 3.0 0.0 1 88 13937 0x18 50 0
+ 2.037376 2 0 ack 50 ------- 0 3.0 0.0 1 89 13937 0x18 50 0
- 2.037376 2 0 ack 50 ------- 0 3.0 0.0 1 89 13937 0x18 50 0
r 2.042426 2 0 ack 50 ------- 0 3.0 0.0 1 89 13937 0x18 50 0
+ 2.043236 2 0 ack 50 ------- 0 3.0 0.0 1 90 13937 0x18 50 0
- 2.043236 2 0 ack 50 ------- 0 3.0 0.0 1 90 13937 0x18 50 0
r 2.048286 2 0 ack 50 ------- 0 3.0 0.0 1 90 13937 0x18 50 0
+ 2.049096 2 0 ack 50 ------- 0 3.0 0.0 1 91 13937 0x18 50 0
- 2.049096 2 0 ack 50 ------- 0 3.0 0.0 1 91 13937 0x18 50 0
r 2.054146 2 0 ack 50 ------- 0 3.0 0.0 1 91 13937 0x18 50 0
+ 2.054956 2 0 ack 50 ------- 0 3.0 0.0 1 92 13937 0x18 50 0
- 2.054956 2 0 ack 50 ------- 0 3.0 0.0 1 92 13937 0x18 50 0
r 2.060006 2 0 ack 50 ------- 0 3.0 0.0 1 92 13937 0x18 50 0
+ 2.060816 2 0 ack 50 ------- 0 3.0 0.0 1 93 13937 0x18 50 0
- 2.060816 2 0 ack 50 ------- 0 3.0 0.0 1 93 13937 0x18 50 0
r 2.065866 2 0 ack 50 ------- 0 3.0 0.0 1 93 13937 0x18 50 0
+ 2.066676 2 0 ack 50 ------- 0 3.0 0.0 1 94 13937 0x18 50 0
- 2.066676 2 0 ack 50 ------- 0 3.0 0.0 1 94 13937 0x18 50 0
r 2.071726 2 0 ack 50 ------- 0 3.0 0.0 1 94 13937 0x18 50 0
+ 2.072536 2 0 ack 50 ------- 0 3.0 0.0 1 95 13937 0x18 50 0
- 2.072536 2 0 ack 50 ------- 0 3.0 0.0 1 95 13937 0x18 50 0
r 2.077586 2 0 ack 50 ------- 0 3.0 0.0 1 95 13937 0x18 50 0
+ 2.078396 2 0 ack 50 ------- 0 3.0 0.0 1 96 13937 0x18 50 0
- 2.078396 2 0 ack 50 ------- 0 3.0 0.0 1 96 13937 0x18 50 0
r 2.083446 2 0 ack 50 ------- 0 3.0 0.0 1 96 13937 0x18 50 0
+ 2.084256 2 0 ack 50 ------- 0 3.0 0.0 1 97 13937 0x18 50 0
- 2.084256 2 0 ack 50 ------- 0 3.0 0.0 1 97 13937 0x18 50 0
+ 2.089032 2 3 tcp 586 ---A--- 0 0.0 3.0 28409 101 1 0x90 50 0
- 2.089032 2 3 tcp 586 ---A--- 0 0.0 3.0 28409 101 1 0x90 50 0
r 2.089306 2 0 ack 50 ------- 0 3.0 0.0 1 97 13937 0x18 50 0
+ 2.090116 2 0 ack 50 ------- 0 3.0 0.0 1 98 13937 0x18 50 0
- 2.090116 2 0 ack 50 ------- 0 3.0 0.0 1 98 13937 0x18 50 0
+ 2.094892 2 3 tcp 586 ------- 0 0.0 3.0 28945 102 1 0x10 50 0
- 2.094892 2 3 tcp 586 ------- 0 0.0 3.0 28945 102 1 0x10 50 0
r 2.095166 2 0 ack 50 ------- 0 3.0 0.0 1 98 13937 0x18 50 0
+ 2.095976 2 0 ack 50 ------- 0 3.0 0.0 1 99 13937 0x18 50 0
- 2.095976 2 0 ack 50 ------- 0 3.0 0.0 1 99 13937 0x18 50 0
+ 2.100752 2 3 tcp 586 ------- 0 0.0 3.0 29481 103 1 0x10 50 0
- 2.100752 2 3 tcp 586 ------- 0 0.0 3.0 29481 103 1 0x10 50 0
r 2.101026 2 0 ack 50 ------- 0 3.0 0.0 1 99 13937 0x18 50 0
+ 2.106612 2 3 tcp 586 ------- 0 0.0 3.0 30017 104 1 0x10 50 0
- 2.106612 2 3 tcp 586 ------- 0 0.0 3.0 30017 104 1 0x10 50 0
r 2.124572 2 3 tcp 586 ------- 0 0.0 3.0 13937 100 1 0x10 50 0
r 2.194892 2 3 tcp 586 ---A--- 0 0.0 3.0 28409 101 1 0x90 50 0
r 2.200752 2 3 tcp 586 ------- 0 0.0 3.0 28945 102 1 0x10 50 0
r 2.206612 2 3 tcp 586 ------- 0 0.0 3.0 29481 103 1 0x10 50 0
r 2.212472 2 3 tcp 586 ------- 0 0.0 3.0 30017 104 1 0x10 50 0
+ 2.225072 2 0 ack 50 ------- 0 3.0 0.0 1 105 15009 0x18 50 0
- 2.225072 2 0 ack 50 ------- 0 3.0 0.0 1 105 15009 0x18 50 0
r 2.230122 2 0 ack 50 ------- 0 3.0 0.0 1 105 15009 0x18 50 0
+ 2.295392 2 0 ack 50 ------- 0 3.0 0.0 1 106 15009 0x18 50 0
- 2.295392 2 0 ack 50 ------- 0 3.0 0.0 1 106 15009 0x18 50 0
r 2.300442 2 0 ack 50 ------- 0 3.0 0.0 1 106 15009 0x18 50 0
+ 2.301252 2 0 ack 50 ------- 0 3.0 0.0 1 107 15009 0x18 50 0
- 2.301252 2 0 ack 50 ------- 0 3.0 0.0 1 107 15009 0x18 50 0
r 2.306302 2 0 ack 50 ------- 0 3.0 0.0 1 107 15009 0x18 50 0
+ 2.307112 2 0 ack 50 ------- 0 3.0 0.0 1 108 15009 0x18 50 0
- 2.307112 2 0 ack 50 ------- 0 3.0 0.0 1 108 15009 0x18 50 0
r 2.312162 2 0 ack 50 ------- 0 3.0 0.0 1 108 15009 0x18 50 0
+ 2.312972 2 0 ack 50 ------- 0 3.0 0.0 1 109 15009 0x18 50 0
- 2.312972 2 0 ack 50 ------- 0 3.0 0.0 1 109 15009 0x18 50 0
+ 2.317748 2 3 tcp 586 ------- 0 0.0 3.0 15009 110 1 0x10 50 0
- 2.317748 2 3 tcp 586 ------- 0 0.0 3.0 15009 110 1 0x10 50 0
r 2.318022 2 0 ack 50 ------- 0 3.0 0.0 1 109 15009 0x18 50 0
r 2.423608 2 3 tcp 586 ------- 0 0.0 3.0 15009 110 1 0x10 50 0
+ 2.524108 2 0 ack 50 ------- 0 3.0 0.0 1 111 16081 0x18 50 0
- 2.524108 2 0 ack 50 ------- 0 3.0 0.0 1 111 16081 0x18 50 0
r 2.529158 2 0 ack 50 ------- 0 3.0 0.0 1 111 16081 0x18 50 0
+ 4.034744 2 3 tcp 586 ------- 0 0.0 3.0 16081 112 1 0x10 50 0
- 4.034744 2 3 tcp 586 ------- 0 0.0 3.0 16081 112 1 0x10 50 0
r 4.140604 2 3 tcp 586 ------- 0 0.0 3.0 16081 112 1 0x10 50 0
+ 4.241104 2 0 ack 50 ------- 0 3.0 0.0 1 113 22513 0x18 50 0
- 4.241104 2 0 ack 50 ------- 0 3.0 0.0 1 113 22513 0x18 50 0
r 4.246154 2 0 ack 50 ------- 0 3.0 0.0 1 113 22513 0x18 50 0
+ 4.25174 2 3 tcp 586 ------- 0 0.0 3.0 22513 114 1 0x10 50 0
- 4.25174 2 3 tcp 586 ------- 0 0.0 3.0 22513 114 1 0x10 50 0
+ 4.252326 2 3 tcp 586 ------- 0 0.0 3.0 23049 115 1 0x10 50 0
- 4.2576 2 3 tcp 586 ------- 0 0.0 3.0 23049 115 1 0x10 50 0
r 4.3576 2 3 tcp 586 ------- 0 0.0 3.0 22513 114 1 0x10 50 0
r 4.36346 2 3 tcp 586 ------- 0 0.0 3.0 23049 115 1 0x10 50 0
+ 4.4581 2 0 ack 50 ------- 0 3.0 0.0 1 116 23585 0x18 50 0
- 4.4581 2 0 ack 50 ------- 0 3.0 0.0 1 116 23585 0x18 50 0
r 4.46315 2 0 ack 50 ------- 0 3.0 0.0 1 116 23585 0x18 50 0
+ 4.46396 2 0 ack 50 ------- 0 3.0 0.0 1 117 23585 0x18 50 0
- 4.46396 2 0 ack 50 ------- 0 3.0 0.0 1 117 23585 0x18 50 0
+ 4.468736 2 3 tcp 586 ------- 0 0.0 3.0 23585 118 1 0x10 50 0
- 4.468736 2 3 tcp 586 ------- 0 0.0 3.0 23585 118 1 0x10 50 0
r 4.46901 2 0 ack 50 ------- 0 3.0 0.0 1 117 23585 0x18 50 0
+ 4.469322 2 3 tcp 586 ------- 0 0.0 3.0 24121 119 1 0x10 50 0
+ 4.469908 2 3 tcp 586 ------- 0 0.0 3.0 24657 120 1 0x10 50 0
- 4.474596 2 3 tcp 586 ------- 0 0.0 3.0 24121 119 1 0x10 50 0
- 4.480456 2 3 tcp 586 ------- 0 0.0 3.0 24657 120 1 0x10 50 0
r 4.574596 2 3 tcp 586 ------- 0 0.0 3.0 23585 118 1 0x10 50 0
r 4.580456 2 3 tcp 586 ------- 0 0.0 3.0 24121 119 1 0x10 50 0
r 4.586316 2 3 tcp 586 ------- 0 0.0 3.0 24657 120 1 0x10 50 0
+ 4.675096 2 0 ack 50 ------- 0 3.0 0.0 1 121 24657 0x18 50 0
- 4.675096 2 0 ack 50 ------- 0 3.0 0.0 1 121 24657 0x18 50 0
r 4.680146 2 0 ack 50 ------- 0 3.0 0.0 1 121 24657 0x18 50 0
+ 4.680956 2 0 ack 50 ------- 0 3.0 0.0 1 122 24657 0x18 50 0
- 4.680956 2 0 ack 50 ------- 0 3.0 0.0 1 122 24657 0x18 50 0
+ 4.685732 2 3 tcp 586 ------- 0 0.0 3.0 25193 124 1 0x10 50 0
- 4.685732 2 3 tcp 586 ------- 0 0.0 3.0 25193 124 1 0x10 50 0
r 4.686006 2 0 ack 50 ------- 0 3.0 0.0 1 122 24657 0x18 50 0
+ 4.686318 2 3 tcp 586 ------- 0 0.0 3.0 25729 125 1 0x10 50 0
+ 4.686816 2 0 ack 50 ------- 0 3.0 0.0 1 123 25729 0x18 50 0
- 4.686816 2 0 ack 50 ------- 0 3.0 0.0 1 123 25729 0x18 50 0
- 4.691592 2 3 tcp 586 ------- 0 0.0 3.0 25729 125 1 0x10 50 0
r 4.691866 2 0 ack 50 ------- 0 3.0 0.0 1 123 25729 0x18 50 0
+ 4.697452 2 3 tcp 586 ------- 0 0.0 3.0 26265 126 1 0x10 50 0
- 4.697452 2 3 tcp 586 ------- 0 0.0 3.0 26265 126 1 0x10 50 0
+ 4.698038 2 3 tcp 586 ------- 0 0.0 3.0 26801 127 1 0x10 50 0
- 4.703312 2 3 tcp 586 ------- 0 0.0 3.0 26801 127 1 0x10 50 0
r 4.791592 2 3 tcp 586 ------- 0 0.0 3.0 25193 124 1 0x10 50 0
r 4.797452 2 3 tcp 586 ------- 0 0.0 3.0 25729 125 1 0x10 50 0
r 4.803312 2 3 tcp 586 ------- 0 0.0 3.0 26265 126 1 0x10 50 0
r 4.809172 2 3 tcp 586 ------- 0 0.0 3.0 26801 127 1 0x10 50 0
+ 4.892092 2 0 ack 50 ------- 0 3.0 0.0 1 128 25729 0x18 50 0
- 4.892092 2 0 ack 50 ------- 0 3.0 0.0 1 128 25729 0x18 50 0
r 4.897142 2 0 ack 50 ------- 0 3.0 0.0 1 128 25729 0x18 50 0
+ 4.897952 2 0 ack 50 ------- 0 3.0 0.0 1 129 26801 0x18 50 0
- 4.897952 2 0 ack 50 ------- 0 3.0 0.0 1 129 26801 0x18 50 0
r 4.903002 2 0 ack 50 ------- 0 3.0 0.0 1 129 26801 0x18 50 0
+ 4.903812 2 0 ack 50 ------- 0 3.0 0.0 1 130 26801 0x18 50 0
- 4.903812 2 0 ack 50 ------- 0 3.0 0.0 1 130 26801 0x18 50 0
+ 4.908588 2 3 tcp 586 ------- 0 0.0 3.0 27337 132 1 0x10 50 0
- 4.908588 2 3 tcp 586 ------- 0 0.0 3.0 27337 132 1 0x10 50 0
r 4.908862 2 0 ack 50 ------- 0 3.0 0.0 1 130 26801 0x18 50 0
+ 4.909174 2 3 tcp 586 ------- 0 0.0 3.0 27873 133 1 0x10 50 0
+ 4.909672 2 0 ack 50 ------- 0 3.0 0.0 1 131 27873 0x18 50 0
- 4.909672 2 0 ack 50 ------- 0 3.0 0.0 1 131 27873 0x18 50 0
- 4.914448 2 3 tcp 586 ------- 0 0.0 3.0 27873 133 1 0x10 50 0
r 4.914722 2 0 ack 50 ------- 0 3.0 0.0 1 131 27873 0x18 50 0
+ 4.920308 2 3 tcp 586 ------- 0 0.0 3.0 28409 134 1 0x10 50 0
- 4.920308 2 3 tcp 586 ------- 0 0.0 3.0 28409 134 1 0x10 50 0
+ 4.920894 2 3 tcp 586 ------- 0 0.0 3.0 28945 135 1 0x10 50 0
+ 4.92148 2 3 tcp 586 ------- 0 0.0 3.0 29481 136 1 0x10 50 0
- 4.926168 2 3 tcp 586 ------- 0 0.0 3.0 28945 135 1 0x10 50 0
- 4.932028 2 3 tcp 586 ------- 0 0.0 3.0 29481 136 1 0x10 50 0
r 5.014448 2 3 tcp 586 ------- 0 0.0 3.0 27337 132 1 0x10 50 0
r 5.020308 2 3 tcp 586 ------- 0 0.0 3.0 27873 133 1 0x10 50 0
r 5.026168 2 3 tcp 586 ------- 0 0.0 3.0 28409 134 1 0x10 50 0
r 5.032028 2 3 tcp 586 ------- 0 0.0 3.0 28945 135 1 0x10 50 0
r 5.037888 2 3 tcp 586 ------- 0 0.0 3.0 29481 136 1 0x10 50 0
+ 5.114948 2 0 ack 50 ------- 0 3.0 0.0 1 137 27873 0x18 50 0
- 5.114948 2 0 ack 50 ------- 0 3.0 0.0 1 137 27873 0x18 50 0
r 5.119998 2 0 ack 50 ------- 0 3.0 0.0 1 137 27873 0x18 50 0
+ 5.120808 2 0 ack 50 ------- 0 3.0 0.0 1 138 30553 0x18 50 0
- 5.120808 2 0 ack 50 ------- 0 3.0 0.0 1 138 30553 0x18 50 0
r 5.125858 2 0 ack 50 ------- 0 3.0 0.0 1 138 30553 0x18 50 0
+ 5.126668 2 0 ack 50 ------- 0 3.0 0.0 1 139 30553 0x18 50 0
- 5.126668 2 0 ack 50 ------- 0 3.0 0.0 1 139 30553 0x18 50 0
+ 5.131444 2 3 tcp 586 ---A--- 0 0.0 3.0 30553 142 1 0x90 50 0
- 5.131444 2 3 tcp 586 ---A--- 0 0.0 3.0 30553 142 1 0x90 50 0
r 5.131718 2 0 ack 50 ------- 0 3.0 0.0 1 139 30553 0x18 50 0
+ 5.13203 2 3 tcp 586 ------- 0 0.0 3.0 31089 143 1 0x10 50 0
+ 5.132528 2 0 ack 50 ------- 0 3.0 0.0 1 140 30553 0x18 50 0
- 5.132528 2 0 ack 50 ------- 0 3.0 0.0 1 140 30553 0x18 50 0
+ 5.132616 2 3 tcp 586 ------- 0 0.0 3.0 31625 144 1 0x10 50 0
+ 5.133202 2 3 tcp 586 ------- 0 0.0 3.0 32161 145 1 0x10 50 0
- 5.137304 2 3 tcp 586 ------- 0 0.0 3.0 31089 143 1 0x10 50 0
r 5.137578 2 0 ack 50 ------- 0 3.0 0.0 1 140 30553 0x18 50 0
+ 5.138388 2 0 ack 50 ------- 0 3.0 0.0 1 141 30553 0x18 50 0
- 5.138388 2 0 ack 50 ------- 0 3.0 0.0 1 141 30553 0x18 50 0
- 5.143164 2 3 tcp 586 ------- 0 0.0 3.0 31625 144 1 0x10 50 0
r 5.143438 2 0 ack 50 ------- 0 3.0 0.0 1 141 30553 0x18 50 0
- 5.149024 2 3 tcp 586 ------- 0 0.0 3.0 32161 145 1 0x10 50 0
r 5.237304 2 3 tcp 586 ---A--- 0 0.0 3.0 30553 142 1 0x90 50 0
r 5.243164 2 3 tcp 586 ------- 0 0.0 3.0 31089 143 1 0x10 50 0
r 5.249024 2 3 tcp 586 ------- 0 0.0 3.0 31625 144 1 0x10 50 0
r 5.254884 2 3 tcp 586 ------- 0 0.0 3.0 32161 145 1 0x10 50 0
+ 5.337804 2 0 ack 50 ------- 0 3.0 0.0 1 146 31089 0x18 50 0
- 5.337804 2 0 ack 50 ------- 0 3.0 0.0 1 146 31089 0x18 50 0
r 5.342854 2 0 ack 50 ------- 0 3.0 0.0 1 146 31089 0x18 50 0
+ 5.343664 2 0 ack 50 ------- 0 3.0 0.0 1 147 31625 0x18 50 0
- 5.343664 2 0 ack 50 ------- 0 3.0 0.0 1 147 31625 0x18 50 0
r 5.348714 2 0 ack 50 ------- 0 3.0 0.0 1 147 31625 0x18 50 0
+ 5.349524 2 0 ack 50 ------- 0 3.0 0.0 1 148 32161 0x18 50 0
- 5.349524 2 0 ack 50 ------- 0 3.0 0.0 1 148 32161 0x18 50 0
+ 5.3543 2 3 tcp 586 ------- 0 0.0 3.0 32697 150 1 0x10 50 0
- 5.3543 2 3 tcp 586 ------- 0 0.0 3.0 32697 150 1 0x10 50 0
r 5.354574 2 0 ack 50 ------- 0 3.0 0.0 1 148 32161 0x18 50 0
+ 5.355384 2 0 ack 50 ------- 0 3.0 0.0 1 149 32697 0x18 50 0
- 5.355384 2 0 ack 50 ------- 0 3.0 0.0 1 149 32697 0x18 50 0
+ 5.36016 2 3 tcp 586 ------- 0 0.0 3.0 33233 151 1 0x10 50 0
- 5.36016 2 3 tcp 586 ------- 0 0.0 3.0 33233 151 1 0x10 50 0
r 5.360434 2 0 ack 50 ------- 0 3.0 0.0 1 149 32697 0x18 50 0
+ 5.36602 2 3 tcp 586 ------- 0 0.0 3.0 33769 152 1 0x10 50 0
- 5.36602 2 3 tcp 586 ------- 0 0.0 3.0 33769 152 1 0x10 50 0
+ 5.366606 2 3 tcp 586 ------- 0 0.0 3.0 34305 153 1 0x10 50 0
- 5.37188 2 3 tcp 586 ------- 0 0.0 3.0 34305 153 1 0x10 50 0
r 5.46016 2 3 tcp 586 ------- 0 0.0 3.0 32697 150 1 0x10 50 0
r 5.46602 2 3 tcp 586 ------- 0 0.0 3.0 33233 151 1 0x10 50 0
r 5.47188 2 3 tcp 586 ------- 0 0.0 3.0 33769 152 1 0x10 50 0
r 5.47774 2 3 tcp 586 ------- 0 0.0 3.0 34305 153 1 0x10 50 0
+ 5.56066 2 0 ack 50 ------- 0 3.0 0.0 1 154 33233 0x18 50 0
- 5.56066 2 0 ack 50 ------- 0 3.0 0.0 1 154 33233 0x18 50 0
r 5.56571 2 0 ack 50 ------- 0 3.0 0.0 1 154 33233 0x18 50 0
+ 5.56652 2 0 ack 50 ------- 0 3.0 0.0 1 155 33769 0x18 50 0
- 5.56652 2 0 ack 50 ------- 0 3.0 0.0 1 155 33769 0x18 50 0
+ 5.571296 2 3 tcp 586 ------- 0 0.0 3.0 34841 158 1 0x10 50 0
- 5.571296 2 3 tcp 586 ------- 0 0.0 3.0 34841 158 1 0x10 50 0
r 5.57157 2 0 ack 50 ------- 0 3.0 0.0 1 155 33769 0x18 50 0
+ 5.57238 2 0 ack 50 ------- 0 3.0 0.0 1 156 34305 0x18 50 0
- 5.57238 2 0 ack 50 ------- 0 3.0 0.0 1 156 34305 0x18 50 0
+ 5.577156 2 3 tcp 586 ------- 0 0.0 3.0 35377 159 1 0x10 50 0
- 5.577156 2 3 tcp 586 ------- 0 0.0 3.0 35377 159 1 0x10 50 0
r 5.57743 2 0 ack 50 ------- 0 3.0 0.0 1 156 34305 0x18 50 0
+ 5.57824 2 0 ack 50 ------- 0 3.0 0.0 1 157 34841 0x18 50 0
- 5.57824 2 0 ack 50 ------- 0 3.0 0.0 1 157 34841 0x18 50 0
+ 5.583016 2 3 tcp 586 ------- 0 0.0 3.0 35913 160 1 0x10 50 0
- 5.583016 2 3 tcp 586 ------- 0 0.0 3.0 35913 160 1 0x10 50 0
r 5.58329 2 0 ack 50 ------- 0 3.0 0.0 1 157 34841 0x18 50 0
+ 5.588876 2 3 tcp 586 ------- 0 0.0 3.0 36449 161 1 0x10 50 0
- 5.588876 2 3 tcp 586 ------- 0 0.0 3.0 36449 161 1 0x10 50 0
+ 5.589462 2 3 tcp 586 ------- 0 0.0 3.0 36985 162 1 0x10 50 0
- 5.594736 2 3 tcp 586 ------- 0 0.0 3.0 36985 162 1 0x10 50 0
r 5.677156 2 3 tcp 586 ------- 0 0.0 3.0 34841 158 1 0x10 50 0
r 5.683016 2 3 tcp 586 ------- 0 0.0 3.0 35377 159 1 0x10 50 0
r 5.688876 2 3 tcp 586 ------- 0 0.0 3.0 35913 160 1 0x10 50 0
r 5.694736 2 3 tcp 586 ------- 0 0.0 3.0 36449 161 1 0x10 50 0
r 5.700596 2 3 tcp 586 ------- 0 0.0 3.0 36985 162 1 0x10 50 0
+ 5.777656 2 0 ack 50 ------- 0 3.0 0.0 1 163 35377 0x18 50 0
- 5.777656 2 0 ack 50 ------- 0 3.0 0.0 1 163 35377 0x18 50 0
r 5.782706 2 0 ack 50 ------- 0 3.0 0.0 1 163 35377 0x18 50 0
+ 5.783516 2 0 ack 50 ------- 0 3.0 0.0 1 164 35913 0x18 50 0
- 5.783516 2 0 ack 50 ------- 0 3.0 0.0 1 164 35913 0x18 50 0
+ 5.788292 2 3 tcp 586 ------- 0 0.0 3.0 37521 168 1 0x10 50 0
- 5.788292 2 3 tcp 586 ------- 0 0.0 3.0 37521 168 1 0x10 50 0
r 5.788566 2 0 ack 50 ------- 0 3.0 0.0 1 164 35913 0x18 50 0
+ 5.789376 2 0 ack 50 ------- 0 3.0 0.0 1 165 36449 0x18 50 0