v testName twowayrandom
+ 0.00504 2 3 tcp 40 ------- 0 0.0 3.0 0 0 -1 0xa 40 0
- 0.00504 2 3 tcp 40 ------- 0 0.0 3.0 0 0 -1 0xa 40 0
r 0.10544 2 3 tcp 40 ------- 0 0.0 3.0 0 0 -1 0xa 40 0
+ 0.20584 2 0 ack 40 ------- 0 3.0 0.0 2144 1 1 0x1a 40 0
- 0.20584 2 0 ack 40 ------- 0 3.0 0.0 2144 1 1 0x1a 40 0
r 0.21088 2 0 ack 40 ------- 0 3.0 0.0 2144 1 1 0x1a 40 0
+ 0.21592 2 3 tcp 40 ------- 0 0.0 3.0 1 2 2145 0x10 40 0
- 0.21592 2 3 tcp 40 ------- 0 0.0 3.0 1 2 2145 0x10 40 0
+ 0.216496 2 3 tcp 576 ------- 0 0.0 3.0 1 3 2145 0x10 40 0
- 0.216496 2 3 tcp 576 ------- 0 0.0 3.0 1 3 2145 0x10 40 0
r 0.31632 2 3 tcp 40 ------- 0 0.0 3.0 1 2 2145 0x10 40 0
r 0.322256 2 3 tcp 576 ------- 0 0.0 3.0 1 3 2145 0x10 40 0
+ 0.422656 2 0 ack 40 ------- 0 3.0 0.0 2145 4 537 0x18 40 0
- 0.422656 2 0 ack 40 ------- 0 3.0 0.0 2145 4 537 0x18 40 0
r 0.427696 2 0 ack 40 ------- 0 3.0 0.0 2145 4 537 0x18 40 0
+ 0.433272 2 3 tcp 576 ------- 0 0.0 3.0 537 5 2145 0x10 40 0
- 0.433272 2 3 tcp 576 ------- 0 0.0 3.0 537 5 2145 0x10 40 0
+ 0.433848 2 3 tcp 576 ------- 0 0.0 3.0 1073 6 2145 0x10 40 0
- 0.439032 2 3 tcp 576 ------- 0 0.0 3.0 1073 6 2145 0x10 40 0
r 0.539032 2 3 tcp 576 ------- 0 0.0 3.0 537 5 2145 0x10 40 0
r 0.544792 2 3 tcp 576 ------- 0 0.0 3.0 1073 6 2145 0x10 40 0
+ 0.639432 2 0 ack 40 ------- 0 3.0 0.0 2145 7 1073 0x18 40 0
- 0.639432 2 0 ack 40 ------- 0 3.0 0.0 2145 7 1073 0x18 40 0
r 0.644472 2 0 ack 40 ------- 0 3.0 0.0 2145 7 1073 0x18 40 0
+ 0.645192 2 0 ack 40 ------- 0 3.0 0.0 2145 8 1609 0x18 40 0
- 0.645192 2 0 ack 40 ------- 0 3.0 0.0 2145 8 1609 0x18 40 0
+ 0.650048 2 3 tcp 576 ------- 0 0.0 3.0 1609 9 2145 0x10 40 0
- 0.650048 2 3 tcp 576 ------- 0 0.0 3.0 1609 9 2145 0x10 40 0
r 0.650232 2 0 ack 40 ------- 0 3.0 0.0 2145 8 1609 0x18 40 0
+ 0.650624 2 3 tcp 576 ------- 0 0.0 3.0 2145 10 2145 0x10 40 0
- 0.655808 2 3 tcp 576 ------- 0 0.0 3.0 2145 10 2145 0x10 40 0
+ 0.655808 2 3 tcp 576 ------- 0 0.0 3.0 2681 11 2145 0x10 40 0
+ 0.656384 2 3 tcp 576 ------- 0 0.0 3.0 3217 12 2145 0x10 40 0
- 0.661568 2 3 tcp 576 ------- 0 0.0 3.0 2681 11 2145 0x10 40 0
- 0.667328 2 3 tcp 576 ------- 0 0.0 3.0 3217 12 2145 0x10 40 0
r 0.755808 2 3 tcp 576 ------- 0 0.0 3.0 1609 9 2145 0x10 40 0
r 0.761568 2 3 tcp 576 ------- 0 0.0 3.0 2145 10 2145 0x10 40 0
r 0.767328 2 3 tcp 576 ------- 0 0.0 3.0 2681 11 2145 0x10 40 0
r 0.773088 2 3 tcp 576 ------- 0 0.0 3.0 3217 12 2145 0x10 40 0
+ 0.856208 2 0 ack 40 ------- 0 3.0 0.0 2145 13 2145 0x18 40 0
- 0.856208 2 0 ack 40 ------- 0 3.0 0.0 2145 13 2145 0x18 40 0
r 0.861248 2 0 ack 40 ------- 0 3.0 0.0 2145 13 2145 0x18 40 0
+ 0.861968 2 0 ack 40 ------- 0 3.0 0.0 2145 14 2681 0x18 40 0
- 0.861968 2 0 ack 40 ------- 0 3.0 0.0 2145 14 2681 0x18 40 0
+ 0.866824 2 3 tcp 576 ------- 0 0.0 3.0 3753 17 2145 0x10 40 0
- 0.866824 2 3 tcp 576 ------- 0 0.0 3.0 3753 17 2145 0x10 40 0
r 0.867008 2 0 ack 40 ------- 0 3.0 0.0 2145 14 2681 0x18 40 0
+ 0.8674 2 3 tcp 576 ------- 0 0.0 3.0 4289 18 2145 0x10 40 0
+ 0.867728 2 0 ack 40 ------- 0 3.0 0.0 2145 15 3217 0x18 40 0
- 0.867728 2 0 ack 40 ------- 0 3.0 0.0 2145 15 3217 0x18 40 0
- 0.872584 2 3 tcp 576 ------- 0 0.0 3.0 4289 18 2145 0x10 40 0
+ 0.872584 2 3 tcp 576 ------- 0 0.0 3.0 4825 19 2145 0x10 40 0
r 0.872768 2 0 ack 40 ------- 0 3.0 0.0 2145 15 3217 0x18 40 0
+ 0.87316 2 3 tcp 576 ------- 0 0.0 3.0 5361 20 2145 0x10 40 0
+ 0.873488 2 0 ack 40 ------- 0 3.0 0.0 2145 16 3753 0x18 40 0
- 0.873488 2 0 ack 40 ------- 0 3.0 0.0 2145 16 3753 0x18 40 0
- 0.878344 2 3 tcp 576 ------- 0 0.0 3.0 4825 19 2145 0x10 40 0
+ 0.878344 2 3 tcp 576 ------- 0 0.0 3.0 5897 21 2145 0x10 40 0
r 0.878528 2 0 ack 40 ------- 0 3.0 0.0 2145 16 3753 0x18 40 0
+ 0.87892 2 3 tcp 576 ------- 0 0.0 3.0 6433 22 2145 0x10 40 0
- 0.884104 2 3 tcp 576 ------- 0 0.0 3.0 5361 20 2145 0x10 40 0
+ 0.884104 2 3 tcp 576 ------- 0 0.0 3.0 6969 23 2145 0x10 40 0
+ 0.88468 2 3 tcp 576 ------- 0 0.0 3.0 7505 24 2145 0x10 40 0
- 0.889864 2 3 tcp 576 ------- 0 0.0 3.0 5897 21 2145 0x10 40 0
- 0.895624 2 3 tcp 576 ------- 0 0.0 3.0 6433 22 2145 0x10 40 0
- 0.901384 2 3 tcp 576 ------- 0 0.0 3.0 6969 23 2145 0x10 40 0
- 0.907144 2 3 tcp 576 ------- 0 0.0 3.0 7505 24 2145 0x10 40 0
r 0.972584 2 3 tcp 576 ------- 0 0.0 3.0 3753 17 2145 0x10 40 0
r 0.978344 2 3 tcp 576 ------- 0 0.0 3.0 4289 18 2145 0x10 40 0
r 0.984104 2 3 tcp 576 ------- 0 0.0 3.0 4825 19 2145 0x10 40 0
r 0.989864 2 3 tcp 576 ------- 0 0.0 3.0 5361 20 2145 0x10 40 0
r 0.995624 2 3 tcp 576 ------- 0 0.0 3.0 5897 21 2145 0x10 40 0
r 1.001384 2 3 tcp 576 ------- 0 0.0 3.0 6433 22 2145 0x10 40 0
r 1.007144 2 3 tcp 576 ------- 0 0.0 3.0 6969 23 2145 0x10 40 0
r 1.012904 2 3 tcp 576 ------- 0 0.0 3.0 7505 24 2145 0x10 40 0
+ 1.072984 2 0 ack 40 ------- 0 3.0 0.0 2145 25 4289 0x18 40 0
- 1.072984 2 0 ack 40 ------- 0 3.0 0.0 2145 25 4289 0x18 40 0
r 1.078024 2 0 ack 40 ------- 0 3.0 0.0 2145 25 4289 0x18 40 0
+ 1.078744 2 0 ack 40 ------- 0 3.0 0.0 2145 26 4825 0x18 40 0
- 1.078744 2 0 ack 40 ------- 0 3.0 0.0 2145 26 4825 0x18 40 0
+ 1.0836 2 3 tcp 576 ------- 0 0.0 3.0 8041 34 2145 0x10 40 0
- 1.0836 2 3 tcp 576 ------- 0 0.0 3.0 8041 34 2145 0x10 40 0
r 1.083784 2 0 ack 40 ------- 0 3.0 0.0 2145 26 4825 0x18 40 0
+ 1.084176 2 3 tcp 576 ------- 0 0.0 3.0 8577 35 2145 0x10 40 0
+ 1.084504 2 0 ack 40 ------- 0 3.0 0.0 2145 27 5361 0x18 40 0
- 1.084504 2 0 ack 40 ------- 0 3.0 0.0 2145 27 5361 0x18 40 0
- 1.08936 2 3 tcp 576 ------- 0 0.0 3.0 8577 35 2145 0x10 40 0
+ 1.08936 2 3 tcp 576 ------- 0 0.0 3.0 9113 36 2145 0x10 40 0
r 1.089544 2 0 ack 40 ------- 0 3.0 0.0 2145 27 5361 0x18 40 0
+ 1.089936 2 3 tcp 576 ------- 0 0.0 3.0 9649 37 2145 0x10 40 0
+ 1.090264 2 0 ack 40 ------- 0 3.0 0.0 2145 28 5897 0x18 40 0
- 1.090264 2 0 ack 40 ------- 0 3.0 0.0 2145 28 5897 0x18 40 0
- 1.09512 2 3 tcp 576 ------- 0 0.0 3.0 9113 36 2145 0x10 40 0
+ 1.09512 2 3 tcp 576 ------- 0 0.0 3.0 10185 38 2145 0x10 40 0
r 1.095304 2 0 ack 40 ------- 0 3.0 0.0 2145 28 5897 0x18 40 0
+ 1.095696 2 3 tcp 576 ------- 0 0.0 3.0 10721 39 2145 0x10 40 0
+ 1.096024 2 0 ack 40 ------- 0 3.0 0.0 2145 29 6433 0x18 40 0
- 1.096024 2 0 ack 40 ------- 0 3.0 0.0 2145 29 6433 0x18 40 0
- 1.10088 2 3 tcp 576 ------- 0 0.0 3.0 9649 37 2145 0x10 40 0
+ 1.10088 2 3 tcp 576 ------- 0 0.0 3.0 11257 40 2145 0x10 40 0
r 1.101064 2 0 ack 40 ------- 0 3.0 0.0 2145 29 6433 0x18 40 0
+ 1.101456 2 3 tcp 576 ------- 0 0.0 3.0 11793 41 2145 0x10 40 0
+ 1.10576 2 0 ack 576 ------- 0 3.0 0.0 2145 30 6433 0x10 40 0
- 1.10576 2 0 ack 576 ------- 0 3.0 0.0 2145 30 6433 0x10 40 0
+ 1.10616 2 0 ack 40 ------- 0 3.0 0.0 2681 31 6969 0x10 40 0
- 1.106336 2 0 ack 40 ------- 0 3.0 0.0 2681 31 6969 0x10 40 0
- 1.10664 2 3 tcp 576 ------- 0 0.0 3.0 10185 38 2145 0x10 40 0
+ 1.10664 2 3 tcp 576 ------- 0 0.0 3.0 12329 42 2145 0x10 40 0
+ 1.107216 2 3 tcp 576 ------- 0 0.0 3.0 12865 43 2145 0x10 40 0
+ 1.107544 2 0 ack 40 ------- 0 3.0 0.0 2681 32 7505 0x10 40 0
- 1.107544 2 0 ack 40 ------- 0 3.0 0.0 2681 32 7505 0x10 40 0
r 1.111336 2 0 ack 576 ------- 0 3.0 0.0 2145 30 6433 0x10 40 0
r 1.111376 2 0 ack 40 ------- 0 3.0 0.0 2681 31 6969 0x10 40 0
- 1.1124 2 3 tcp 576 ------- 0 0.0 3.0 10721 39 2145 0x10 40 0
r 1.112584 2 0 ack 40 ------- 0 3.0 0.0 2681 32 7505 0x10 40 0
+ 1.113304 2 0 ack 40 ------- 0 3.0 0.0 2681 33 8041 0x10 40 0
- 1.113304 2 0 ack 40 ------- 0 3.0 0.0 2681 33 8041 0x10 40 0
+ 1.116376 2 3 tcp 40 ------- 0 0.0 3.0 13401 44 2681 0x10 40 0
+ 1.116952 2 3 tcp 576 ------- 0 0.0 3.0 13401 45 2681 0x10 40 0
d 1.116952 2 3 tcp 576 ------- 0 0.0 3.0 13401 45 2681 0x10 40 0
+ 1.117528 2 3 tcp 576 ------- 0 0.0 3.0 13937 46 2681 0x10 40 0
d 1.117528 2 3 tcp 576 ------- 0 0.0 3.0 13937 46 2681 0x10 40 0
- 1.11816 2 3 tcp 576 ------- 0 0.0 3.0 11257 40 2145 0x10 40 0
+ 1.11816 2 3 tcp 576 ------- 0 0.0 3.0 14473 47 2681 0x10 40 0
r 1.118344 2 0 ack 40 ------- 0 3.0 0.0 2681 33 8041 0x10 40 0
+ 1.118736 2 3 tcp 576 ------- 0 0.0 3.0 15009 48 2681 0x10 40 0
d 1.118736 2 3 tcp 576 ------- 0 0.0 3.0 15009 48 2681 0x10 40 0
- 1.12392 2 3 tcp 576 ------- 0 0.0 3.0 11793 41 2145 0x10 40 0
+ 1.12392 2 3 tcp 576 ------- 0 0.0 3.0 15545 49 2681 0x10 40 0
+ 1.124496 2 3 tcp 576 ------- 0 0.0 3.0 16081 50 2681 0x10 40 0
d 1.124496 2 3 tcp 576 ------- 0 0.0 3.0 16081 50 2681 0x10 40 0
- 1.12968 2 3 tcp 576 ------- 0 0.0 3.0 12329 42 2145 0x10 40 0
- 1.13544 2 3 tcp 576 ------- 0 0.0 3.0 12865 43 2145 0x10 40 0
- 1.1412 2 3 tcp 40 ------- 0 0.0 3.0 13401 44 2681 0x10 40 0
- 1.1416 2 3 tcp 576 ------- 0 0.0 3.0 14473 47 2681 0x10 40 0
- 1.14736 2 3 tcp 576 ------- 0 0.0 3.0 15545 49 2681 0x10 40 0
r 1.18936 2 3 tcp 576 ------- 0 0.0 3.0 8041 34 2145 0x10 40 0
r 1.19512 2 3 tcp 576 ------- 0 0.0 3.0 8577 35 2145 0x10 40 0
r 1.20088 2 3 tcp 576 ------- 0 0.0 3.0 9113 36 2145 0x10 40 0
r 1.20664 2 3 tcp 576 ------- 0 0.0 3.0 9649 37 2145 0x10 40 0
r 1.2124 2 3 tcp 576 ------- 0 0.0 3.0 10185 38 2145 0x10 40 0
r 1.21816 2 3 tcp 576 ------- 0 0.0 3.0 10721 39 2145 0x10 40 0
r 1.22392 2 3 tcp 576 ------- 0 0.0 3.0 11257 40 2145 0x10 40 0
r 1.22968 2 3 tcp 576 ------- 0 0.0 3.0 11793 41 2145 0x10 40 0
r 1.23544 2 3 tcp 576 ------- 0 0.0 3.0 12329 42 2145 0x10 40 0
r 1.2412 2 3 tcp 576 ------- 0 0.0 3.0 12865 43 2145 0x10 40 0
r 1.2416 2 3 tcp 40 ------- 0 0.0 3.0 13401 44 2681 0x10 40 0
r 1.24736 2 3 tcp 576 ------- 0 0.0 3.0 14473 47 2681 0x10 40 0
r 1.25312 2 3 tcp 576 ------- 0 0.0 3.0 15545 49 2681 0x10 40 0
+ 1.28976 2 0 ack 40 ------- 0 3.0 0.0 2681 51 8577 0x10 40 0
- 1.28976 2 0 ack 40 ------- 0 3.0 0.0 2681 51 8577 0x10 40 0
r 1.2948 2 0 ack 40 ------- 0 3.0 0.0 2681 51 8577 0x10 40 0
+ 1.29552 2 0 ack 40 ------- 0 3.0 0.0 2681 52 9113 0x10 40 0
- 1.29552 2 0 ack 40 ------- 0 3.0 0.0 2681 52 9113 0x10 40 0
+ 1.300376 2 3 tcp 576 ------- 0 0.0 3.0 16617 65 2681 0x10 40 0
- 1.300376 2 3 tcp 576 ------- 0 0.0 3.0 16617 65 2681 0x10 40 0
r 1.30056 2 0 ack 40 ------- 0 3.0 0.0 2681 52 9113 0x10 40 0
+ 1.300952 2 3 tcp 576 ------- 0 0.0 3.0 17153 66 2681 0x10 40 0
+ 1.30128 2 0 ack 40 ------- 0 3.0 0.0 2681 53 9649 0x10 40 0
- 1.30128 2 0 ack 40 ------- 0 3.0 0.0 2681 53 9649 0x10 40 0
- 1.306136 2 3 tcp 576 ------- 0 0.0 3.0 17153 66 2681 0x10 40 0
+ 1.306136 2 3 tcp 576 ------- 0 0.0 3.0 17689 67 2681 0x10 40 0
r 1.30632 2 0 ack 40 ------- 0 3.0 0.0 2681 53 9649 0x10 40 0
+ 1.306712 2 3 tcp 576 ------- 0 0.0 3.0 18225 68 2681 0x10 40 0
+ 1.30704 2 0 ack 40 ------- 0 3.0 0.0 2681 54 10185 0x10 40 0
- 1.30704 2 0 ack 40 ------- 0 3.0 0.0 2681 54 10185 0x10 40 0
- 1.311896 2 3 tcp 576 ------- 0 0.0 3.0 17689 67 2681 0x10 40 0
+ 1.311896 2 3 tcp 576 ------- 0 0.0 3.0 18761 69 2681 0x10 40 0
r 1.31208 2 0 ack 40 ------- 0 3.0 0.0 2681 54 10185 0x10 40 0
+ 1.312472 2 3 tcp 576 ------- 0 0.0 3.0 19297 70 2681 0x10 40 0
+ 1.3128 2 0 ack 40 ------- 0 3.0 0.0 2681 55 10721 0x10 40 0
- 1.3128 2 0 ack 40 ------- 0 3.0 0.0 2681 55 10721 0x10 40 0
- 1.317656 2 3 tcp 576 ------- 0 0.0 3.0 18225 68 2681 0x10 40 0
+ 1.317656 2 3 tcp 576 ------- 0 0.0 3.0 19833 71 2681 0x10 40 0
r 1.31784 2 0 ack 40 ------- 0 3.0 0.0 2681 55 10721 0x10 40 0
+ 1.318232 2 3 tcp 576 ------- 0 0.0 3.0 20369 72 2681 0x10 40 0
+ 1.31856 2 0 ack 40 ------- 0 3.0 0.0 2681 56 11257 0x10 40 0
- 1.31856 2 0 ack 40 ------- 0 3.0 0.0 2681 56 11257 0x10 40 0
- 1.323416 2 3 tcp 576 ------- 0 0.0 3.0 18761 69 2681 0x10 40 0
+ 1.323416 2 3 tcp 576 ------- 0 0.0 3.0 20905 73 2681 0x10 40 0
r 1.3236 2 0 ack 40 ------- 0 3.0 0.0 2681 56 11257 0x10 40 0
+ 1.323992 2 3 tcp 576 ------- 0 0.0 3.0 21441 74 2681 0x10 40 0
+ 1.32432 2 0 ack 40 ------- 0 3.0 0.0 2681 57 11793 0x10 40 0
- 1.32432 2 0 ack 40 ------- 0 3.0 0.0 2681 57 11793 0x10 40 0
- 1.329176 2 3 tcp 576 ------- 0 0.0 3.0 19297 70 2681 0x10 40 0
+ 1.329176 2 3 tcp 576 ------- 0 0.0 3.0 21977 75 2681 0x10 40 0
r 1.32936 2 0 ack 40 ------- 0 3.0 0.0 2681 57 11793 0x10 40 0
+ 1.329752 2 3 tcp 576 ------- 0 0.0 3.0 22513 76 2681 0x10 40 0
d 1.329752 2 3 tcp 576 ------- 0 0.0 3.0 22513 76 2681 0x10 40 0
+ 1.33008 2 0 ack 40 ------- 0 3.0 0.0 2681 58 12329 0x10 40 0
- 1.33008 2 0 ack 40 ------- 0 3.0 0.0 2681 58 12329 0x10 40 0
- 1.334936 2 3 tcp 576 ------- 0 0.0 3.0 19833 71 2681 0x10 40 0
+ 1.334936 2 3 tcp 576 ------- 0 0.0 3.0 23049 77 2681 0x10 40 0
r 1.33512 2 0 ack 40 ------- 0 3.0 0.0 2681 58 12329 0x10 40 0
+ 1.335512 2 3 tcp 576 ------- 0 0.0 3.0 23585 78 2681 0x10 40 0
d 1.335512 2 3 tcp 576 ------- 0 0.0 3.0 23585 78 2681 0x10 40 0
+ 1.33584 2 0 ack 40 ------- 0 3.0 0.0 2681 59 12865 0x10 40 0
- 1.33584 2 0 ack 40 ------- 0 3.0 0.0 2681 59 12865 0x10 40 0
- 1.340696 2 3 tcp 576 ------- 0 0.0 3.0 20369 72 2681 0x10 40 0
+ 1.340696 2 3 tcp 576 ------- 0 0.0 3.0 24121 79 2681 0x10 40 0
r 1.34088 2 0 ack 40 ------- 0 3.0 0.0 2681 59 12865 0x10 40 0
+ 1.341272 2 3 tcp 576 ------- 0 0.0 3.0 24657 80 2681 0x10 40 0
d 1.341272 2 3 tcp 576 ------- 0 0.0 3.0 24657 80 2681 0x10 40 0
+ 1.3416 2 0 ack 40 ------- 0 3.0 0.0 2681 60 13401 0x10 40 0
- 1.3416 2 0 ack 40 ------- 0 3.0 0.0 2681 60 13401 0x10 40 0
- 1.346456 2 3 tcp 576 ------- 0 0.0 3.0 20905 73 2681 0x10 40 0
+ 1.346456 2 3 tcp 576 ------- 0 0.0 3.0 25193 81 2681 0x10 40 0
r 1.34664 2 0 ack 40 ------- 0 3.0 0.0 2681 60 13401 0x10 40 0
+ 1.347032 2 3 tcp 576 ------- 0 0.0 3.0 25729 82 2681 0x10 40 0
d 1.347032 2 3 tcp 576 ------- 0 0.0 3.0 25729 82 2681 0x10 40 0
+ 1.34736 2 0 ack 576 ------- 0 3.0 0.0 2681 61 13401 0x10 40 0
- 1.34736 2 0 ack 576 ------- 0 3.0 0.0 2681 61 13401 0x10 40 0
- 1.352216 2 3 tcp 576 ------- 0 0.0 3.0 21441 74 2681 0x10 40 0
+ 1.352216 2 3 tcp 576 ------- 0 0.0 3.0 26265 83 2681 0x10 40 0
+ 1.352792 2 3 tcp 576 ------- 0 0.0 3.0 26801 84 2681 0x10 40 0
d 1.352792 2 3 tcp 576 ------- 0 0.0 3.0 26801 84 2681 0x10 40 0
r 1.352936 2 0 ack 576 ------- 0 3.0 0.0 2681 61 13401 0x10 40 0
+ 1.35312 2 0 ack 576 ------- 0 3.0 0.0 3217 62 13401 0x10 40 0
- 1.35312 2 0 ack 576 ------- 0 3.0 0.0 3217 62 13401 0x10 40 0
+ 1.35352 2 0 ack 40 ------- 0 3.0 0.0 3753 63 13401 0x10 40 0
- 1.353696 2 0 ack 40 ------- 0 3.0 0.0 3753 63 13401 0x10 40 0
+ 1.35392 2 0 ack 40 ------- 0 3.0 0.0 3753 64 13401 0x10 40 0
- 1.35392 2 0 ack 40 ------- 0 3.0 0.0 3753 64 13401 0x10 40 0
- 1.357976 2 3 tcp 576 ------- 0 0.0 3.0 21977 75 2681 0x10 40 0
+ 1.357976 2 3 tcp 40 ------- 0 0.0 3.0 27337 85 3217 0x10 40 0
r 1.358696 2 0 ack 576 ------- 0 3.0 0.0 3217 62 13401 0x10 40 0
r 1.358736 2 0 ack 40 ------- 0 3.0 0.0 3753 63 13401 0x10 40 0
r 1.35896 2 0 ack 40 ------- 0 3.0 0.0 3753 64 13401 0x10 40 0
- 1.363736 2 3 tcp 576 ------- 0 0.0 3.0 23049 77 2681 0x10 40 0
+ 1.363736 2 3 tcp 40 ------- 0 0.0 3.0 27337 86 3753 0x10 40 0
- 1.369496 2 3 tcp 576 ------- 0 0.0 3.0 24121 79 2681 0x10 40 0
- 1.375256 2 3 tcp 576 ------- 0 0.0 3.0 25193 81 2681 0x10 40 0
- 1.381016 2 3 tcp 576 ------- 0 0.0 3.0 26265 83 2681 0x10 40 0
- 1.386776 2 3 tcp 40 ------- 0 0.0 3.0 27337 85 3217 0x10 40 0
- 1.387176 2 3 tcp 40 ------- 0 0.0 3.0 27337 86 3753 0x10 40 0
r 1.406136 2 3 tcp 576 ------- 0 0.0 3.0 16617 65 2681 0x10 40 0
r 1.411896 2 3 tcp 576 ------- 0 0.0 3.0 17153 66 2681 0x10 40 0
r 1.417656 2 3 tcp 576 ------- 0 0.0 3.0 17689 67 2681 0x10 40 0
r 1.423416 2 3 tcp 576 ------- 0 0.0 3.0 18225 68 2681 0x10 40 0
r 1.429176 2 3 tcp 576 ------- 0 0.0 3.0 18761 69 2681 0x10 40 0
r 1.434936 2 3 tcp 576 ------- 0 0.0 3.0 19297 70 2681 0x10 40 0
r 1.440696 2 3 tcp 576 ------- 0 0.0 3.0 19833 71 2681 0x10 40 0
r 1.446456 2 3 tcp 576 ------- 0 0.0 3.0 20369 72 2681 0x10 40 0
r 1.452216 2 3 tcp 576 ------- 0 0.0 3.0 20905 73 2681 0x10 40 0
r 1.457976 2 3 tcp 576 ------- 0 0.0 3.0 21441 74 2681 0x10 40 0
r 1.463736 2 3 tcp 576 ------- 0 0.0 3.0 21977 75 2681 0x10 40 0
r 1.469496 2 3 tcp 576 ------- 0 0.0 3.0 23049 77 2681 0x10 40 0
r 1.475256 2 3 tcp 576 ------- 0 0.0 3.0 24121 79 2681 0x10 40 0
r 1.481016 2 3 tcp 576 ------- 0 0.0 3.0 25193 81 2681 0x10 40 0
r 1.486776 2 3 tcp 576 ------- 0 0.0 3.0 26265 83 2681 0x10 40 0
r 1.487176 2 3 tcp 40 ------- 0 0.0 3.0 27337 85 3217 0x10 40 0
r 1.487576 2 3 tcp 40 ------- 0 0.0 3.0 27337 86 3753 0x10 40 0
+ 1.506536 2 0 ack 40 ------- 0 3.0 0.0 3753 87 13401 0x10 40 0
- 1.506536 2 0 ack 40 ------- 0 3.0 0.0 3753 87 13401 0x10 40 0
r 1.511576 2 0 ack 40 ------- 0 3.0 0.0 3753 87 13401 0x10 40 0
+ 1.512296 2 0 ack 40 ------- 0 3.0 0.0 3753 88 13401 0x10 40 0
- 1.512296 2 0 ack 40 ------- 0 3.0 0.0 3753 88 13401 0x10 40 0
+ 1.517152 2 3 tcp 576 ------- 0 0.0 3.0 13401 106 3753 0x10 40 0
- 1.517152 2 3 tcp 576 ------- 0 0.0 3.0 13401 106 3753 0x10 40 0
r 1.517336 2 0 ack 40 ------- 0 3.0 0.0 3753 88 13401 0x10 40 0
+ 1.518056 2 0 ack 40 ------- 0 3.0 0.0 3753 89 13401 0x10 40 0
- 1.518056 2 0 ack 40 ------- 0 3.0 0.0 3753 89 13401 0x10 40 0
r 1.523096 2 0 ack 40 ------- 0 3.0 0.0 3753 89 13401 0x10 40 0
+ 1.523816 2 0 ack 40 ------- 0 3.0 0.0 3753 90 13401 0x10 40 0
- 1.523816 2 0 ack 40 ------- 0 3.0 0.0 3753 90 13401 0x10 40 0
r 1.528856 2 0 ack 40 ------- 0 3.0 0.0 3753 90 13401 0x10 40 0
+ 1.529576 2 0 ack 40 ------- 0 3.0 0.0 3753 91 13401 0x10 40 0
- 1.529576 2 0 ack 40 ------- 0 3.0 0.0 3753 91 13401 0x10 40 0
r 1.534616 2 0 ack 40 ------- 0 3.0 0.0 3753 91 13401 0x10 40 0
+ 1.535336 2 0 ack 40 ------- 0 3.0 0.0 3753 92 13401 0x10 40 0
- 1.535336 2 0 ack 40 ------- 0 3.0 0.0 3753 92 13401 0x10 40 0
r 1.540376 2 0 ack 40 ------- 0 3.0 0.0 3753 92 13401 0x10 40 0
+ 1.541096 2 0 ack 40 ------- 0 3.0 0.0 3753 93 13401 0x10 40 0
- 1.541096 2 0 ack 40 ------- 0 3.0 0.0 3753 93 13401 0x10 40 0
r 1.546136 2 0 ack 40 ------- 0 3.0 0.0 3753 93 13401 0x10 40 0
+ 1.546856 2 0 ack 40 ------- 0 3.0 0.0 3753 94 13401 0x10 40 0
- 1.546856 2 0 ack 40 ------- 0 3.0 0.0 3753 94 13401 0x10 40 0
r 1.551896 2 0 ack 40 ------- 0 3.0 0.0 3753 94 13401 0x10 40 0
+ 1.552616 2 0 ack 40 ------- 0 3.0 0.0 3753 95 13401 0x10 40 0
- 1.552616 2 0 ack 40 ------- 0 3.0 0.0 3753 95 13401 0x10 40 0
r 1.557656 2 0 ack 40 ------- 0 3.0 0.0 3753 95 13401 0x10 40 0
+ 1.558376 2 0 ack 40 ------- 0 3.0 0.0 3753 96 13401 0x10 40 0
- 1.558376 2 0 ack 40 ------- 0 3.0 0.0 3753 96 13401 0x10 40 0
r 1.563416 2 0 ack 40 ------- 0 3.0 0.0 3753 96 13401 0x10 40 0
+ 1.564136 2 0 ack 40 ------- 0 3.0 0.0 3753 97 13401 0x10 40 0
- 1.564136 2 0 ack 40 ------- 0 3.0 0.0 3753 97 13401 0x10 40 0
r 1.569176 2 0 ack 40 ------- 0 3.0 0.0 3753 97 13401 0x10 40 0
+ 1.569896 2 0 ack 40 ------- 0 3.0 0.0 3753 98 13401 0x10 40 0
- 1.569896 2 0 ack 40 ------- 0 3.0 0.0 3753 98 13401 0x10 40 0
r 1.574936 2 0 ack 40 ------- 0 3.0 0.0 3753 98 13401 0x10 40 0
+ 1.575656 2 0 ack 40 ------- 0 3.0 0.0 3753 99 13401 0x10 40 0
- 1.575656 2 0 ack 40 ------- 0 3.0 0.0 3753 99 13401 0x10 40 0
+ 1.580512 2 3 tcp 576 ---A--- 0 0.0 3.0 27337 107 3753 0x90 40 0
- 1.580512 2 3 tcp 576 ---A--- 0 0.0 3.0 27337 107 3753 0x90 40 0
r 1.580696 2 0 ack 40 ------- 0 3.0 0.0 3753 99 13401 0x10 40 0
+ 1.581416 2 0 ack 40 ------- 0 3.0 0.0 3753 100 13401 0x10 40 0
- 1.581416 2 0 ack 40 ------- 0 3.0 0.0 3753 100 13401 0x10 40 0
+ 1.586272 2 3 tcp 576 ------- 0 0.0 3.0 27873 108 3753 0x10 40 0
- 1.586272 2 3 tcp 576 ------- 0 0.0 3.0 27873 108 3753 0x10 40 0
r 1.586456 2 0 ack 40 ------- 0 3.0 0.0 3753 100 13401 0x10 40 0
+ 1.587176 2 0 ack 40 ------- 0 3.0 0.0 3753 101 13401 0x10 40 0
- 1.587176 2 0 ack 40 ------- 0 3.0 0.0 3753 101 13401 0x10 40 0
+ 1.592032 2 3 tcp 576 ------- 0 0.0 3.0 28409 109 3753 0x10 40 0
- 1.592032 2 3 tcp 576 ------- 0 0.0 3.0 28409 109 3753 0x10 40 0
r 1.592216 2 0 ack 40 ------- 0 3.0 0.0 3753 101 13401 0x10 40 0
+ 1.592936 2 0 ack 576 ------- 0 3.0 0.0 3753 102 13401 0x10 40 0
- 1.592936 2 0 ack 576 ------- 0 3.0 0.0 3753 102 13401 0x10 40 0
+ 1.597792 2 3 tcp 576 ------- 0 0.0 3.0 28945 110 3753 0x10 40 0
- 1.597792 2 3 tcp 576 ------- 0 0.0 3.0 28945 110 3753 0x10 40 0
r 1.598512 2 0 ack 576 ------- 0 3.0 0.0 3753 102 13401 0x10 40 0
+ 1.598696 2 0 ack 576 ------- 0 3.0 0.0 4289 103 13401 0x10 40 0
- 1.598696 2 0 ack 576 ------- 0 3.0 0.0 4289 103 13401 0x10 40 0
+ 1.603552 2 3 tcp 40 ------- 0 0.0 3.0 29481 111 4289 0x10 40 0
- 1.603552 2 3 tcp 40 ------- 0 0.0 3.0 29481 111 4289 0x10 40 0
r 1.604272 2 0 ack 576 ------- 0 3.0 0.0 4289 103 13401 0x10 40 0
+ 1.604456 2 0 ack 576 ------- 0 3.0 0.0 4825 104 13401 0x10 40 0
- 1.604456 2 0 ack 576 ------- 0 3.0 0.0 4825 104 13401 0x10 40 0
+ 1.609312 2 3 tcp 40 ------- 0 0.0 3.0 29481 112 4825 0x10 40 0
- 1.609312 2 3 tcp 40 ------- 0 0.0 3.0 29481 112 4825 0x10 40 0
r 1.610032 2 0 ack 576 ------- 0 3.0 0.0 4825 104 13401 0x10 40 0
+ 1.610216 2 0 ack 576 ------- 0 3.0 0.0 5361 105 13401 0x10 40 0
- 1.610216 2 0 ack 576 ------- 0 3.0 0.0 5361 105 13401 0x10 40 0
+ 1.615072 2 3 tcp 40 ------- 0 0.0 3.0 29481 113 5361 0x10 40 0
- 1.615072 2 3 tcp 40 ------- 0 0.0 3.0 29481 113 5361 0x10 40 0
r 1.615792 2 0 ack 576 ------- 0 3.0 0.0 5361 105 13401 0x10 40 0
+ 1.620832 2 3 tcp 40 ------- 0 0.0 3.0 29481 114 5897 0x10 40 0
- 1.620832 2 3 tcp 40 ------- 0 0.0 3.0 29481 114 5897 0x10 40 0
r 1.622912 2 3 tcp 576 ------- 0 0.0 3.0 13401 106 3753 0x10 40 0
r 1.686272 2 3 tcp 576 ---A--- 0 0.0 3.0 27337 107 3753 0x90 40 0
r 1.692032 2 3 tcp 576 ------- 0 0.0 3.0 27873 108 3753 0x10 40 0
r 1.697792 2 3 tcp 576 ------- 0 0.0 3.0 28409 109 3753 0x10 40 0
r 1.703552 2 3 tcp 576 ------- 0 0.0 3.0 28945 110 3753 0x10 40 0
r 1.703952 2 3 tcp 40 ------- 0 0.0 3.0 29481 111 4289 0x10 40 0
r 1.709712 2 3 tcp 40 ------- 0 0.0 3.0 29481 112 4825 0x10 40 0
r 1.715472 2 3 tcp 40 ------- 0 0.0 3.0 29481 113 5361 0x10 40 0
r 1.721232 2 3 tcp 40 ------- 0 0.0 3.0 29481 114 5897 0x10 40 0
+ 1.723312 2 0 ack 40 ------- 0 3.0 0.0 5897 115 13937 0x10 40 0
- 1.723312 2 0 ack 40 ------- 0 3.0 0.0 5897 115 13937 0x10 40 0
r 1.728352 2 0 ack 40 ------- 0 3.0 0.0 5897 115 13937 0x10 40 0
+ 1.786672 2 0 ack 40 ------- 0 3.0 0.0 5897 116 13937 0x10 40 0
- 1.786672 2 0 ack 40 ------- 0 3.0 0.0 5897 116 13937 0x10 40 0
r 1.791712 2 0 ack 40 ------- 0 3.0 0.0 5897 116 13937 0x10 40 0
+ 1.792432 2 0 ack 40 ------- 0 3.0 0.0 5897 117 13937 0x10 40 0
- 1.792432 2 0 ack 40 ------- 0 3.0 0.0 5897 117 13937 0x10 40 0
r 1.797472 2 0 ack 40 ------- 0 3.0 0.0 5897 117 13937 0x10 40 0
+ 1.798192 2 0 ack 40 ------- 0 3.0 0.0 5897 118 13937 0x10 40 0
- 1.798192 2 0 ack 40 ------- 0 3.0 0.0 5897 118 13937 0x10 40 0
r 1.803232 2 0 ack 40 ------- 0 3.0 0.0 5897 118 13937 0x10 40 0
+ 1.803952 2 0 ack 40 ------- 0 3.0 0.0 5897 119 13937 0x10 40 0
- 1.803952 2 0 ack 40 ------- 0 3.0 0.0 5897 119 13937 0x10 40 0
+ 1.808808 2 3 tcp 576 ------- 0 0.0 3.0 13937 128 5897 0x10 40 0
- 1.808808 2 3 tcp 576 ------- 0 0.0 3.0 13937 128 5897 0x10 40 0
r 1.808992 2 0 ack 40 ------- 0 3.0 0.0 5897 119 13937 0x10 40 0
+ 1.809712 2 0 ack 576 ------- 0 3.0 0.0 5897 120 13937 0x10 40 0
- 1.809712 2 0 ack 576 ------- 0 3.0 0.0 5897 120 13937 0x10 40 0
r 1.815288 2 0 ack 576 ------- 0 3.0 0.0 5897 120 13937 0x10 40 0
+ 1.815472 2 0 ack 576 ------- 0 3.0 0.0 6433 121 13937 0x10 40 0
- 1.815472 2 0 ack 576 ------- 0 3.0 0.0 6433 121 13937 0x10 40 0
+ 1.820328 2 3 tcp 40 ------- 0 0.0 3.0 29481 129 6433 0x10 40 0
- 1.820328 2 3 tcp 40 ------- 0 0.0 3.0 29481 129 6433 0x10 40 0
r 1.821048 2 0 ack 576 ------- 0 3.0 0.0 6433 121 13937 0x10 40 0
+ 1.821232 2 0 ack 576 ------- 0 3.0 0.0 6969 122 13937 0x10 40 0
- 1.821232 2 0 ack 576 ------- 0 3.0 0.0 6969 122 13937 0x10 40 0
+ 1.826088 2 3 tcp 40 ------- 0 0.0 3.0 29481 130 6969 0x10 40 0
- 1.826088 2 3 tcp 40 ------- 0 0.0 3.0 29481 130 6969 0x10 40 0
r 1.826808 2 0 ack 576 ------- 0 3.0 0.0 6969 122 13937 0x10 40 0
+ 1.826992 2 0 ack 576 ------- 0 3.0 0.0 7505 123 13937 0x10 40 0
- 1.826992 2 0 ack 576 ------- 0 3.0 0.0 7505 123 13937 0x10 40 0
+ 1.831848 2 3 tcp 40 ------- 0 0.0 3.0 29481 131 7505 0x10 40 0
- 1.831848 2 3 tcp 40 ------- 0 0.0 3.0 29481 131 7505 0x10 40 0
r 1.832568 2 0 ack 576 ------- 0 3.0 0.0 7505 123 13937 0x10 40 0
+ 1.832752 2 0 ack 576 ------- 0 3.0 0.0 8041 124 13937 0x10 40 0
- 1.832752 2 0 ack 576 ------- 0 3.0 0.0 8041 124 13937 0x10 40 0
+ 1.837608 2 3 tcp 40 ------- 0 0.0 3.0 29481 132 8041 0x10 40 0
- 1.837608 2 3 tcp 40 ------- 0 0.0 3.0 29481 132 8041 0x10 40 0
r 1.838328 2 0 ack 576 ------- 0 3.0 0.0 8041 124 13937 0x10 40 0
+ 1.838512 2 0 ack 576 ------- 0 3.0 0.0 8577 125 13937 0x10 40 0
- 1.838512 2 0 ack 576 ------- 0 3.0 0.0 8577 125 13937 0x10 40 0
+ 1.843368 2 3 tcp 40 ------- 0 0.0 3.0 29481 133 8577 0x10 40 0
- 1.843368 2 3 tcp 40 ------- 0 0.0 3.0 29481 133 8577 0x10 40 0
r 1.844088 2 0 ack 576 ------- 0 3.0 0.0 8577 125 13937 0x10 40 0
+ 1.844272 2 0 ack 576 ------- 0 3.0 0.0 9113 126 13937 0x10 40 0
- 1.844272 2 0 ack 576 ------- 0 3.0 0.0 9113 126 13937 0x10 40 0
+ 1.849128 2 3 tcp 40 ------- 0 0.0 3.0 29481 134 9113 0x10 40 0
- 1.849128 2 3 tcp 40 ------- 0 0.0 3.0 29481 134 9113 0x10 40 0
r 1.849848 2 0 ack 576 ------- 0 3.0 0.0 9113 126 13937 0x10 40 0
+ 1.850032 2 0 ack 576 ------- 0 3.0 0.0 9649 127 13937 0x10 40 0
- 1.850032 2 0 ack 576 ------- 0 3.0 0.0 9649 127 13937 0x10 40 0
+ 1.854888 2 3 tcp 40 ------- 0 0.0 3.0 29481 135 9649 0x10 40 0
- 1.854888 2 3 tcp 40 ------- 0 0.0 3.0 29481 135 9649 0x10 40 0
r 1.855608 2 0 ack 576 ------- 0 3.0 0.0 9649 127 13937 0x10 40 0
+ 1.860648 2 3 tcp 40 ------- 0 0.0 3.0 29481 136 10185 0x10 40 0
- 1.860648 2 3 tcp 40 ------- 0 0.0 3.0 29481 136 10185 0x10 40 0
r 1.914568 2 3 tcp 576 ------- 0 0.0 3.0 13937 128 5897 0x10 40 0
r 1.920728 2 3 tcp 40 ------- 0 0.0 3.0 29481 129 6433 0x10 40 0
r 1.926488 2 3 tcp 40 ------- 0 0.0 3.0 29481 130 6969 0x10 40 0
r 1.932248 2 3 tcp 40 ------- 0 0.0 3.0 29481 131 7505 0x10 40 0
r 1.938008 2 3 tcp 40 ------- 0 0.0 3.0 29481 132 8041 0x10 40 0
r 1.943768 2 3 tcp 40 ------- 0 0.0 3.0 29481 133 8577 0x10 40 0
r 1.949528 2 3 tcp 40 ------- 0 0.0 3.0 29481 134 9113 0x10 40 0
r 1.955288 2 3 tcp 40 ------- 0 0.0 3.0 29481 135 9649 0x10 40 0
r 1.961048 2 3 tcp 40 ------- 0 0.0 3.0 29481 136 10185 0x10 40 0
+ 2.014968 2 0 ack 40 ------- 0 3.0 0.0 10185 137 15009 0x10 40 0
- 2.014968 2 0 ack 40 ------- 0 3.0 0.0 10185 137 15009 0x10 40 0
r 2.020008 2 0 ack 40 ------- 0 3.0 0.0 10185 137 15009 0x10 40 0
+ 2.026488 2 0 ack 576 ------- 0 3.0 0.0 10185 138 15009 0x10 40 0
- 2.026488 2 0 ack 576 ------- 0 3.0 0.0 10185 138 15009 0x10 40 0
r 2.032064 2 0 ack 576 ------- 0 3.0 0.0 10185 138 15009 0x10 40 0
+ 2.032248 2 0 ack 576 ------- 0 3.0 0.0 10721 139 15009 0x10 40 0
- 2.032248 2 0 ack 576 ------- 0 3.0 0.0 10721 139 15009 0x10 40 0
+ 2.037104 2 3 tcp 40 ------- 0 0.0 3.0 29481 154 10721 0x10 40 0
- 2.037104 2 3 tcp 40 ------- 0 0.0 3.0 29481 154 10721 0x10 40 0
r 2.037824 2 0 ack 576 ------- 0 3.0 0.0 10721 139 15009 0x10 40 0
+ 2.038008 2 0 ack 576 ------- 0 3.0 0.0 11257 140 15009 0x10 40 0
- 2.038008 2 0 ack 576 ------- 0 3.0 0.0 11257 140 15009 0x10 40 0
+ 2.042864 2 3 tcp 40 ------- 0 0.0 3.0 29481 155 11257 0x10 40 0
- 2.042864 2 3 tcp 40 ------- 0 0.0 3.0 29481 155 11257 0x10 40 0
r 2.043584 2 0 ack 576 ------- 0 3.0 0.0 11257 140 15009 0x10 40 0
+ 2.043768 2 0 ack 576 ------- 0 3.0 0.0 11793 141 15009 0x10 40 0
- 2.043768 2 0 ack 576 ------- 0 3.0 0.0 11793 141 15009 0x10 40 0
+ 2.048624 2 3 tcp 40 ------- 0 0.0 3.0 29481 156 11793 0x10 40 0
- 2.048624 2 3 tcp 40 ------- 0 0.0 3.0 29481 156 11793 0x10 40 0
r 2.049344 2 0 ack 576 ------- 0 3.0 0.0 11793 141 15009 0x10 40 0
+ 2.049528 2 0 ack 576 ------- 0 3.0 0.0 12329 142 15009 0x10 40 0
- 2.049528 2 0 ack 576 ------- 0 3.0 0.0 12329 142 15009 0x10 40 0
+ 2.054384 2 3 tcp 40 ------- 0 0.0 3.0 29481 157 12329 0x10 40 0
- 2.054384 2 3 tcp 40 ------- 0 0.0 3.0 29481 157 12329 0x10 40 0
r 2.055104 2 0 ack 576 ------- 0 3.0 0.0 12329 142 15009 0x10 40 0
+ 2.055288 2 0 ack 576 ------- 0 3.0 0.0 12865 143 15009 0x10 40 0
- 2.055288 2 0 ack 576 ------- 0 3.0 0.0 12865 143 15009 0x10 40 0
+ 2.060144 2 3 tcp 40 ------- 0 0.0 3.0 29481 158 12865 0x10 40 0
- 2.060144 2 3 tcp 40 ------- 0 0.0 3.0 29481 158 12865 0x10 40 0
r 2.060864 2 0 ack 576 ------- 0 3.0 0.0 12865 143 15009 0x10 40 0
+ 2.061048 2 0 ack 576 ------- 0 3.0 0.0 13401 144 15009 0x10 40 0
- 2.061048 2 0 ack 576 ------- 0 3.0 0.0 13401 144 15009 0x10 40 0
+ 2.065904 2 3 tcp 40 ------- 0 0.0 3.0 29481 159 13401 0x10 40 0
- 2.065904 2 3 tcp 40 ------- 0 0.0 3.0 29481 159 13401 0x10 40 0
r 2.066624 2 0 ack 576 ------- 0 3.0 0.0 13401 144 15009 0x10 40 0
+ 2.066808 2 0 ack 576 ------- 0 3.0 0.0 13937 145 15009 0x10 40 0
- 2.066808 2 0 ack 576 ------- 0 3.0 0.0 13937 145 15009 0x10 40 0
+ 2.071664 2 3 tcp 40 ------- 0 0.0 3.0 29481 160 13937 0x10 40 0
- 2.071664 2 3 tcp 40 ------- 0 0.0 3.0 29481 160 13937 0x10 40 0
r 2.072384 2 0 ack 576 ------- 0 3.0 0.0 13937 145 15009 0x10 40 0
+ 2.072568 2 0 ack 576 ------- 0 3.0 0.0 14473 146 15009 0x10 40 0
- 2.072568 2 0 ack 576 ------- 0 3.0 0.0 14473 146 15009 0x10 40 0
+ 2.077424 2 3 tcp 40 ------- 0 0.0 3.0 29481 161 14473 0x10 40 0
- 2.077424 2 3 tcp 40 ------- 0 0.0 3.0 29481 161 14473 0x10 40 0
r 2.078144 2 0 ack 576 ------- 0 3.0 0.0 14473 146 15009 0x10 40 0
+ 2.078328 2 0 ack 576 ------- 0 3.0 0.0 15545 148 15009 0x10 40 0
- 2.078328 2 0 ack 576 ------- 0 3.0 0.0 15545 148 15009 0x10 40 0
+ 2.083184 2 3 tcp 40 ------- 0 0.0 3.0 29481 162 15009 0x10 40 0
- 2.083184 2 3 tcp 40 ------- 0 0.0 3.0 29481 162 15009 0x10 40 0
r 2.083904 2 0 ack 576 ------- 0 3.0 0.0 15545 148 15009 0x10 40 0
+ 2.084088 2 0 ack 576 ------- 0 3.0 0.0 16617 150 15009 0x10 40 0
- 2.084088 2 0 ack 576 ------- 0 3.0 0.0 16617 150 15009 0x10 40 0
+ 2.088944 2 3 tcp 40 ------- 0 0.0 3.0 29481 163 15009 0x10 40 0
- 2.088944 2 3 tcp 40 ------- 0 0.0 3.0 29481 163 15009 0x10 40 0
r 2.089664 2 0 ack 576 ------- 0 3.0 0.0 16617 150 15009 0x10 40 0
+ 2.089848 2 0 ack 576 ------- 0 3.0 0.0 17689 152 15009 0x10 40 0
- 2.089848 2 0 ack 576 ------- 0 3.0 0.0 17689 152 15009 0x10 40 0
+ 2.094704 2 3 tcp 40 ------- 0 0.0 3.0 29481 164 15009 0x10 40 0
- 2.094704 2 3 tcp 40 ------- 0 0.0 3.0 29481 164 15009 0x10 40 0
r 2.095424 2 0 ack 576 ------- 0 3.0 0.0 17689 152 15009 0x10 40 0
+ 2.100464 2 3 tcp 40 ------- 0 0.0 3.0 29481 165 15009 0x10 40 0
- 2.100464 2 3 tcp 40 ------- 0 0.0 3.0 29481 165 15009 0x10 40 0