v testName twoway
+ 0.00504 2 3 tcp 40 ------- 0 0.0 3.0 0 0 -1 0xa 40 0
- 0.00504 2 3 tcp 40 ------- 0 0.0 3.0 0 0 -1 0xa 40 0
r 0.10544 2 3 tcp 40 ------- 0 0.0 3.0 0 0 -1 0xa 40 0
+ 0.20584 2 0 ack 40 ------- 0 3.0 0.0 2144 1 1 0x1a 40 0
- 0.20584 2 0 ack 40 ------- 0 3.0 0.0 2144 1 1 0x1a 40 0
r 0.21088 2 0 ack 40 ------- 0 3.0 0.0 2144 1 1 0x1a 40 0
+ 0.21592 2 3 tcp 40 ------- 0 0.0 3.0 1 2 2145 0x10 40 0
- 0.21592 2 3 tcp 40 ------- 0 0.0 3.0 1 2 2145 0x10 40 0
+ 0.216496 2 3 tcp 576 ------- 0 0.0 3.0 1 3 2145 0x10 40 0
- 0.216496 2 3 tcp 576 ------- 0 0.0 3.0 1 3 2145 0x10 40 0
r 0.31632 2 3 tcp 40 ------- 0 0.0 3.0 1 2 2145 0x10 40 0
r 0.322256 2 3 tcp 576 ------- 0 0.0 3.0 1 3 2145 0x10 40 0
+ 0.422656 2 0 ack 40 ------- 0 3.0 0.0 2145 4 537 0x18 40 0
- 0.422656 2 0 ack 40 ------- 0 3.0 0.0 2145 4 537 0x18 40 0
r 0.427696 2 0 ack 40 ------- 0 3.0 0.0 2145 4 537 0x18 40 0
+ 0.433272 2 3 tcp 576 ------- 0 0.0 3.0 537 5 2145 0x10 40 0
- 0.433272 2 3 tcp 576 ------- 0 0.0 3.0 537 5 2145 0x10 40 0
+ 0.433848 2 3 tcp 576 ------- 0 0.0 3.0 1073 6 2145 0x10 40 0
- 0.439032 2 3 tcp 576 ------- 0 0.0 3.0 1073 6 2145 0x10 40 0
r 0.539032 2 3 tcp 576 ------- 0 0.0 3.0 537 5 2145 0x10 40 0
r 0.544792 2 3 tcp 576 ------- 0 0.0 3.0 1073 6 2145 0x10 40 0
+ 0.639432 2 0 ack 40 ------- 0 3.0 0.0 2145 7 1073 0x18 40 0
- 0.639432 2 0 ack 40 ------- 0 3.0 0.0 2145 7 1073 0x18 40 0
r 0.644472 2 0 ack 40 ------- 0 3.0 0.0 2145 7 1073 0x18 40 0
+ 0.645192 2 0 ack 40 ------- 0 3.0 0.0 2145 8 1609 0x18 40 0
- 0.645192 2 0 ack 40 ------- 0 3.0 0.0 2145 8 1609 0x18 40 0
+ 0.650048 2 3 tcp 576 ------- 0 0.0 3.0 1609 9 2145 0x10 40 0
- 0.650048 2 3 tcp 576 ------- 0 0.0 3.0 1609 9 2145 0x10 40 0
r 0.650232 2 0 ack 40 ------- 0 3.0 0.0 2145 8 1609 0x18 40 0
+ 0.650624 2 3 tcp 576 ------- 0 0.0 3.0 2145 10 2145 0x10 40 0
- 0.655808 2 3 tcp 576 ------- 0 0.0 3.0 2145 10 2145 0x10 40 0
+ 0.655808 2 3 tcp 576 ------- 0 0.0 3.0 2681 11 2145 0x10 40 0
+ 0.656384 2 3 tcp 576 ------- 0 0.0 3.0 3217 12 2145 0x10 40 0
- 0.661568 2 3 tcp 576 ------- 0 0.0 3.0 2681 11 2145 0x10 40 0
- 0.667328 2 3 tcp 576 ------- 0 0.0 3.0 3217 12 2145 0x10 40 0
r 0.755808 2 3 tcp 576 ------- 0 0.0 3.0 1609 9 2145 0x10 40 0
r 0.761568 2 3 tcp 576 ------- 0 0.0 3.0 2145 10 2145 0x10 40 0
r 0.767328 2 3 tcp 576 ------- 0 0.0 3.0 2681 11 2145 0x10 40 0
r 0.773088 2 3 tcp 576 ------- 0 0.0 3.0 3217 12 2145 0x10 40 0
+ 0.856208 2 0 ack 40 ------- 0 3.0 0.0 2145 13 2145 0x18 40 0
- 0.856208 2 0 ack 40 ------- 0 3.0 0.0 2145 13 2145 0x18 40 0
r 0.861248 2 0 ack 40 ------- 0 3.0 0.0 2145 13 2145 0x18 40 0
+ 0.861968 2 0 ack 40 ------- 0 3.0 0.0 2145 14 2681 0x18 40 0
- 0.861968 2 0 ack 40 ------- 0 3.0 0.0 2145 14 2681 0x18 40 0
+ 0.866824 2 3 tcp 576 ------- 0 0.0 3.0 3753 17 2145 0x10 40 0
- 0.866824 2 3 tcp 576 ------- 0 0.0 3.0 3753 17 2145 0x10 40 0
r 0.867008 2 0 ack 40 ------- 0 3.0 0.0 2145 14 2681 0x18 40 0
+ 0.8674 2 3 tcp 576 ------- 0 0.0 3.0 4289 18 2145 0x10 40 0
+ 0.867728 2 0 ack 40 ------- 0 3.0 0.0 2145 15 3217 0x18 40 0
- 0.867728 2 0 ack 40 ------- 0 3.0 0.0 2145 15 3217 0x18 40 0
- 0.872584 2 3 tcp 576 ------- 0 0.0 3.0 4289 18 2145 0x10 40 0
+ 0.872584 2 3 tcp 576 ------- 0 0.0 3.0 4825 19 2145 0x10 40 0
r 0.872768 2 0 ack 40 ------- 0 3.0 0.0 2145 15 3217 0x18 40 0
+ 0.87316 2 3 tcp 576 ------- 0 0.0 3.0 5361 20 2145 0x10 40 0
+ 0.873488 2 0 ack 40 ------- 0 3.0 0.0 2145 16 3753 0x18 40 0
- 0.873488 2 0 ack 40 ------- 0 3.0 0.0 2145 16 3753 0x18 40 0
- 0.878344 2 3 tcp 576 ------- 0 0.0 3.0 4825 19 2145 0x10 40 0
+ 0.878344 2 3 tcp 576 ------- 0 0.0 3.0 5897 21 2145 0x10 40 0
r 0.878528 2 0 ack 40 ------- 0 3.0 0.0 2145 16 3753 0x18 40 0
+ 0.87892 2 3 tcp 576 ------- 0 0.0 3.0 6433 22 2145 0x10 40 0
- 0.884104 2 3 tcp 576 ------- 0 0.0 3.0 5361 20 2145 0x10 40 0
+ 0.884104 2 3 tcp 576 ------- 0 0.0 3.0 6969 23 2145 0x10 40 0
+ 0.88468 2 3 tcp 576 ------- 0 0.0 3.0 7505 24 2145 0x10 40 0
- 0.889864 2 3 tcp 576 ------- 0 0.0 3.0 5897 21 2145 0x10 40 0
- 0.895624 2 3 tcp 576 ------- 0 0.0 3.0 6433 22 2145 0x10 40 0
- 0.901384 2 3 tcp 576 ------- 0 0.0 3.0 6969 23 2145 0x10 40 0
- 0.907144 2 3 tcp 576 ------- 0 0.0 3.0 7505 24 2145 0x10 40 0
r 0.972584 2 3 tcp 576 ------- 0 0.0 3.0 3753 17 2145 0x10 40 0
r 0.978344 2 3 tcp 576 ------- 0 0.0 3.0 4289 18 2145 0x10 40 0
r 0.984104 2 3 tcp 576 ------- 0 0.0 3.0 4825 19 2145 0x10 40 0
r 0.989864 2 3 tcp 576 ------- 0 0.0 3.0 5361 20 2145 0x10 40 0
r 0.995624 2 3 tcp 576 ------- 0 0.0 3.0 5897 21 2145 0x10 40 0
r 1.001384 2 3 tcp 576 ------- 0 0.0 3.0 6433 22 2145 0x10 40 0
r 1.007144 2 3 tcp 576 ------- 0 0.0 3.0 6969 23 2145 0x10 40 0
r 1.012904 2 3 tcp 576 ------- 0 0.0 3.0 7505 24 2145 0x10 40 0
+ 1.072984 2 0 ack 40 ------- 0 3.0 0.0 2145 25 4289 0x18 40 0
- 1.072984 2 0 ack 40 ------- 0 3.0 0.0 2145 25 4289 0x18 40 0
r 1.078024 2 0 ack 40 ------- 0 3.0 0.0 2145 25 4289 0x18 40 0
+ 1.078744 2 0 ack 40 ------- 0 3.0 0.0 2145 26 4825 0x18 40 0
- 1.078744 2 0 ack 40 ------- 0 3.0 0.0 2145 26 4825 0x18 40 0
+ 1.0836 2 3 tcp 576 ------- 0 0.0 3.0 8041 33 2145 0x10 40 0
- 1.0836 2 3 tcp 576 ------- 0 0.0 3.0 8041 33 2145 0x10 40 0
r 1.083784 2 0 ack 40 ------- 0 3.0 0.0 2145 26 4825 0x18 40 0
+ 1.084176 2 3 tcp 576 ------- 0 0.0 3.0 8577 34 2145 0x10 40 0
+ 1.084504 2 0 ack 40 ------- 0 3.0 0.0 2145 27 5361 0x18 40 0
- 1.084504 2 0 ack 40 ------- 0 3.0 0.0 2145 27 5361 0x18 40 0
- 1.08936 2 3 tcp 576 ------- 0 0.0 3.0 8577 34 2145 0x10 40 0
+ 1.08936 2 3 tcp 576 ------- 0 0.0 3.0 9113 35 2145 0x10 40 0
r 1.089544 2 0 ack 40 ------- 0 3.0 0.0 2145 27 5361 0x18 40 0
+ 1.089936 2 3 tcp 576 ------- 0 0.0 3.0 9649 36 2145 0x10 40 0
+ 1.090264 2 0 ack 40 ------- 0 3.0 0.0 2145 28 5897 0x18 40 0
- 1.090264 2 0 ack 40 ------- 0 3.0 0.0 2145 28 5897 0x18 40 0
- 1.09512 2 3 tcp 576 ------- 0 0.0 3.0 9113 35 2145 0x10 40 0
+ 1.09512 2 3 tcp 576 ------- 0 0.0 3.0 10185 37 2145 0x10 40 0
r 1.095304 2 0 ack 40 ------- 0 3.0 0.0 2145 28 5897 0x18 40 0
+ 1.095696 2 3 tcp 576 ------- 0 0.0 3.0 10721 38 2145 0x10 40 0
+ 1.096024 2 0 ack 40 ------- 0 3.0 0.0 2145 29 6433 0x18 40 0
- 1.096024 2 0 ack 40 ------- 0 3.0 0.0 2145 29 6433 0x18 40 0
- 1.10088 2 3 tcp 576 ------- 0 0.0 3.0 9649 36 2145 0x10 40 0
+ 1.10088 2 3 tcp 576 ------- 0 0.0 3.0 11257 39 2145 0x10 40 0
r 1.101064 2 0 ack 40 ------- 0 3.0 0.0 2145 29 6433 0x18 40 0
+ 1.101456 2 3 tcp 576 ------- 0 0.0 3.0 11793 40 2145 0x10 40 0
+ 1.101784 2 0 ack 40 ------- 0 3.0 0.0 2145 30 6969 0x18 40 0
- 1.101784 2 0 ack 40 ------- 0 3.0 0.0 2145 30 6969 0x18 40 0
- 1.10664 2 3 tcp 576 ------- 0 0.0 3.0 10185 37 2145 0x10 40 0
+ 1.10664 2 3 tcp 576 ------- 0 0.0 3.0 12329 41 2145 0x10 40 0
r 1.106824 2 0 ack 40 ------- 0 3.0 0.0 2145 30 6969 0x18 40 0
+ 1.107216 2 3 tcp 576 ------- 0 0.0 3.0 12865 42 2145 0x10 40 0
+ 1.107544 2 0 ack 40 ------- 0 3.0 0.0 2145 31 7505 0x18 40 0
- 1.107544 2 0 ack 40 ------- 0 3.0 0.0 2145 31 7505 0x18 40 0
- 1.1124 2 3 tcp 576 ------- 0 0.0 3.0 10721 38 2145 0x10 40 0
+ 1.1124 2 3 tcp 576 ------- 0 0.0 3.0 13401 43 2145 0x10 40 0
r 1.112584 2 0 ack 40 ------- 0 3.0 0.0 2145 31 7505 0x18 40 0
+ 1.112976 2 3 tcp 576 ------- 0 0.0 3.0 13937 44 2145 0x10 40 0
d 1.112976 2 3 tcp 576 ------- 0 0.0 3.0 13937 44 2145 0x10 40 0
+ 1.113304 2 0 ack 40 ------- 0 3.0 0.0 2145 32 8041 0x18 40 0
- 1.113304 2 0 ack 40 ------- 0 3.0 0.0 2145 32 8041 0x18 40 0
- 1.11816 2 3 tcp 576 ------- 0 0.0 3.0 11257 39 2145 0x10 40 0
+ 1.11816 2 3 tcp 576 ------- 0 0.0 3.0 14473 45 2145 0x10 40 0
r 1.118344 2 0 ack 40 ------- 0 3.0 0.0 2145 32 8041 0x18 40 0
+ 1.118736 2 3 tcp 576 ------- 0 0.0 3.0 15009 46 2145 0x10 40 0
d 1.118736 2 3 tcp 576 ------- 0 0.0 3.0 15009 46 2145 0x10 40 0
- 1.12392 2 3 tcp 576 ------- 0 0.0 3.0 11793 40 2145 0x10 40 0
+ 1.12392 2 3 tcp 576 ------- 0 0.0 3.0 15545 47 2145 0x10 40 0
+ 1.124496 2 3 tcp 576 ------- 0 0.0 3.0 16081 48 2145 0x10 40 0
d 1.124496 2 3 tcp 576 ------- 0 0.0 3.0 16081 48 2145 0x10 40 0
- 1.12968 2 3 tcp 576 ------- 0 0.0 3.0 12329 41 2145 0x10 40 0
- 1.13544 2 3 tcp 576 ------- 0 0.0 3.0 12865 42 2145 0x10 40 0
- 1.1412 2 3 tcp 576 ------- 0 0.0 3.0 13401 43 2145 0x10 40 0
- 1.14696 2 3 tcp 576 ------- 0 0.0 3.0 14473 45 2145 0x10 40 0
- 1.15272 2 3 tcp 576 ------- 0 0.0 3.0 15545 47 2145 0x10 40 0
r 1.18936 2 3 tcp 576 ------- 0 0.0 3.0 8041 33 2145 0x10 40 0
r 1.19512 2 3 tcp 576 ------- 0 0.0 3.0 8577 34 2145 0x10 40 0
r 1.20088 2 3 tcp 576 ------- 0 0.0 3.0 9113 35 2145 0x10 40 0
r 1.20664 2 3 tcp 576 ------- 0 0.0 3.0 9649 36 2145 0x10 40 0
r 1.2124 2 3 tcp 576 ------- 0 0.0 3.0 10185 37 2145 0x10 40 0
r 1.21816 2 3 tcp 576 ------- 0 0.0 3.0 10721 38 2145 0x10 40 0
r 1.22392 2 3 tcp 576 ------- 0 0.0 3.0 11257 39 2145 0x10 40 0
r 1.22968 2 3 tcp 576 ------- 0 0.0 3.0 11793 40 2145 0x10 40 0
r 1.23544 2 3 tcp 576 ------- 0 0.0 3.0 12329 41 2145 0x10 40 0
r 1.2412 2 3 tcp 576 ------- 0 0.0 3.0 12865 42 2145 0x10 40 0
r 1.24696 2 3 tcp 576 ------- 0 0.0 3.0 13401 43 2145 0x10 40 0
r 1.25272 2 3 tcp 576 ------- 0 0.0 3.0 14473 45 2145 0x10 40 0
r 1.25848 2 3 tcp 576 ------- 0 0.0 3.0 15545 47 2145 0x10 40 0
+ 1.28976 2 0 ack 40 ------- 0 3.0 0.0 2145 49 8577 0x18 40 0
- 1.28976 2 0 ack 40 ------- 0 3.0 0.0 2145 49 8577 0x18 40 0
r 1.2948 2 0 ack 40 ------- 0 3.0 0.0 2145 49 8577 0x18 40 0
+ 1.29552 2 0 ack 40 ------- 0 3.0 0.0 2145 50 9113 0x18 40 0
- 1.29552 2 0 ack 40 ------- 0 3.0 0.0 2145 50 9113 0x18 40 0
+ 1.300376 2 3 tcp 576 ------- 0 0.0 3.0 16617 62 2145 0x10 40 0
- 1.300376 2 3 tcp 576 ------- 0 0.0 3.0 16617 62 2145 0x10 40 0
r 1.30056 2 0 ack 40 ------- 0 3.0 0.0 2145 50 9113 0x18 40 0
+ 1.300952 2 3 tcp 576 ------- 0 0.0 3.0 17153 63 2145 0x10 40 0
+ 1.30128 2 0 ack 40 ------- 0 3.0 0.0 2145 51 9649 0x18 40 0
- 1.30128 2 0 ack 40 ------- 0 3.0 0.0 2145 51 9649 0x18 40 0
- 1.306136 2 3 tcp 576 ------- 0 0.0 3.0 17153 63 2145 0x10 40 0
+ 1.306136 2 3 tcp 576 ------- 0 0.0 3.0 17689 64 2145 0x10 40 0
r 1.30632 2 0 ack 40 ------- 0 3.0 0.0 2145 51 9649 0x18 40 0
+ 1.306712 2 3 tcp 576 ------- 0 0.0 3.0 18225 65 2145 0x10 40 0
+ 1.30704 2 0 ack 40 ------- 0 3.0 0.0 2145 52 10185 0x18 40 0
- 1.30704 2 0 ack 40 ------- 0 3.0 0.0 2145 52 10185 0x18 40 0
- 1.311896 2 3 tcp 576 ------- 0 0.0 3.0 17689 64 2145 0x10 40 0
+ 1.311896 2 3 tcp 576 ------- 0 0.0 3.0 18761 66 2145 0x10 40 0
r 1.31208 2 0 ack 40 ------- 0 3.0 0.0 2145 52 10185 0x18 40 0
+ 1.312472 2 3 tcp 576 ------- 0 0.0 3.0 19297 67 2145 0x10 40 0
+ 1.3128 2 0 ack 40 ------- 0 3.0 0.0 2145 53 10721 0x18 40 0
- 1.3128 2 0 ack 40 ------- 0 3.0 0.0 2145 53 10721 0x18 40 0
- 1.317656 2 3 tcp 576 ------- 0 0.0 3.0 18225 65 2145 0x10 40 0
+ 1.317656 2 3 tcp 576 ------- 0 0.0 3.0 19833 68 2145 0x10 40 0
r 1.31784 2 0 ack 40 ------- 0 3.0 0.0 2145 53 10721 0x18 40 0
+ 1.318232 2 3 tcp 576 ------- 0 0.0 3.0 20369 69 2145 0x10 40 0
+ 1.31856 2 0 ack 40 ------- 0 3.0 0.0 2145 54 11257 0x18 40 0
- 1.31856 2 0 ack 40 ------- 0 3.0 0.0 2145 54 11257 0x18 40 0
- 1.323416 2 3 tcp 576 ------- 0 0.0 3.0 18761 66 2145 0x10 40 0
+ 1.323416 2 3 tcp 576 ------- 0 0.0 3.0 20905 70 2145 0x10 40 0
r 1.3236 2 0 ack 40 ------- 0 3.0 0.0 2145 54 11257 0x18 40 0
+ 1.323992 2 3 tcp 576 ------- 0 0.0 3.0 21441 71 2145 0x10 40 0
+ 1.32432 2 0 ack 40 ------- 0 3.0 0.0 2145 55 11793 0x18 40 0
- 1.32432 2 0 ack 40 ------- 0 3.0 0.0 2145 55 11793 0x18 40 0
- 1.329176 2 3 tcp 576 ------- 0 0.0 3.0 19297 67 2145 0x10 40 0
+ 1.329176 2 3 tcp 576 ------- 0 0.0 3.0 21977 72 2145 0x10 40 0
r 1.32936 2 0 ack 40 ------- 0 3.0 0.0 2145 55 11793 0x18 40 0
+ 1.329752 2 3 tcp 576 ------- 0 0.0 3.0 22513 73 2145 0x10 40 0
d 1.329752 2 3 tcp 576 ------- 0 0.0 3.0 22513 73 2145 0x10 40 0
+ 1.33008 2 0 ack 40 ------- 0 3.0 0.0 2145 56 12329 0x18 40 0
- 1.33008 2 0 ack 40 ------- 0 3.0 0.0 2145 56 12329 0x18 40 0
- 1.334936 2 3 tcp 576 ------- 0 0.0 3.0 19833 68 2145 0x10 40 0
+ 1.334936 2 3 tcp 576 ------- 0 0.0 3.0 23049 74 2145 0x10 40 0
r 1.33512 2 0 ack 40 ------- 0 3.0 0.0 2145 56 12329 0x18 40 0
+ 1.335512 2 3 tcp 576 ------- 0 0.0 3.0 23585 75 2145 0x10 40 0
d 1.335512 2 3 tcp 576 ------- 0 0.0 3.0 23585 75 2145 0x10 40 0
+ 1.33584 2 0 ack 40 ------- 0 3.0 0.0 2145 57 12865 0x18 40 0
- 1.33584 2 0 ack 40 ------- 0 3.0 0.0 2145 57 12865 0x18 40 0
- 1.340696 2 3 tcp 576 ------- 0 0.0 3.0 20369 69 2145 0x10 40 0
+ 1.340696 2 3 tcp 576 ------- 0 0.0 3.0 24121 76 2145 0x10 40 0
r 1.34088 2 0 ack 40 ------- 0 3.0 0.0 2145 57 12865 0x18 40 0
+ 1.341272 2 3 tcp 576 ------- 0 0.0 3.0 24657 77 2145 0x10 40 0
d 1.341272 2 3 tcp 576 ------- 0 0.0 3.0 24657 77 2145 0x10 40 0
+ 1.3416 2 0 ack 40 ------- 0 3.0 0.0 2145 58 13401 0x18 40 0
- 1.3416 2 0 ack 40 ------- 0 3.0 0.0 2145 58 13401 0x18 40 0
- 1.346456 2 3 tcp 576 ------- 0 0.0 3.0 20905 70 2145 0x10 40 0
+ 1.346456 2 3 tcp 576 ------- 0 0.0 3.0 25193 78 2145 0x10 40 0
r 1.34664 2 0 ack 40 ------- 0 3.0 0.0 2145 58 13401 0x18 40 0
+ 1.347032 2 3 tcp 576 ------- 0 0.0 3.0 25729 79 2145 0x10 40 0
d 1.347032 2 3 tcp 576 ------- 0 0.0 3.0 25729 79 2145 0x10 40 0
+ 1.34736 2 0 ack 40 ------- 0 3.0 0.0 2145 59 13937 0x18 40 0
- 1.34736 2 0 ack 40 ------- 0 3.0 0.0 2145 59 13937 0x18 40 0
- 1.352216 2 3 tcp 576 ------- 0 0.0 3.0 21441 71 2145 0x10 40 0
+ 1.352216 2 3 tcp 576 ------- 0 0.0 3.0 26265 80 2145 0x10 40 0
r 1.3524 2 0 ack 40 ------- 0 3.0 0.0 2145 59 13937 0x18 40 0
+ 1.352792 2 3 tcp 576 ------- 0 0.0 3.0 26801 81 2145 0x10 40 0
d 1.352792 2 3 tcp 576 ------- 0 0.0 3.0 26801 81 2145 0x10 40 0
+ 1.35312 2 0 ack 40 ------- 0 3.0 0.0 2145 60 13937 0x18 40 0
- 1.35312 2 0 ack 40 ------- 0 3.0 0.0 2145 60 13937 0x18 40 0
- 1.357976 2 3 tcp 576 ------- 0 0.0 3.0 21977 72 2145 0x10 40 0
+ 1.357976 2 3 tcp 576 ------- 0 0.0 3.0 27337 82 2145 0x10 40 0
r 1.35816 2 0 ack 40 ------- 0 3.0 0.0 2145 60 13937 0x18 40 0
+ 1.358552 2 3 tcp 576 ------- 0 0.0 3.0 27873 83 2145 0x10 40 0
d 1.358552 2 3 tcp 576 ------- 0 0.0 3.0 27873 83 2145 0x10 40 0
+ 1.35888 2 0 ack 40 ------- 0 3.0 0.0 2145 61 13937 0x18 40 0
- 1.35888 2 0 ack 40 ------- 0 3.0 0.0 2145 61 13937 0x18 40 0
- 1.363736 2 3 tcp 576 ------- 0 0.0 3.0 23049 74 2145 0x10 40 0
r 1.36392 2 0 ack 40 ------- 0 3.0 0.0 2145 61 13937 0x18 40 0
- 1.369496 2 3 tcp 576 ------- 0 0.0 3.0 24121 76 2145 0x10 40 0
- 1.375256 2 3 tcp 576 ------- 0 0.0 3.0 25193 78 2145 0x10 40 0
- 1.381016 2 3 tcp 576 ------- 0 0.0 3.0 26265 80 2145 0x10 40 0
- 1.386776 2 3 tcp 576 ------- 0 0.0 3.0 27337 82 2145 0x10 40 0
r 1.406136 2 3 tcp 576 ------- 0 0.0 3.0 16617 62 2145 0x10 40 0
r 1.411896 2 3 tcp 576 ------- 0 0.0 3.0 17153 63 2145 0x10 40 0
r 1.417656 2 3 tcp 576 ------- 0 0.0 3.0 17689 64 2145 0x10 40 0
r 1.423416 2 3 tcp 576 ------- 0 0.0 3.0 18225 65 2145 0x10 40 0
r 1.429176 2 3 tcp 576 ------- 0 0.0 3.0 18761 66 2145 0x10 40 0
r 1.434936 2 3 tcp 576 ------- 0 0.0 3.0 19297 67 2145 0x10 40 0
r 1.440696 2 3 tcp 576 ------- 0 0.0 3.0 19833 68 2145 0x10 40 0
r 1.446456 2 3 tcp 576 ------- 0 0.0 3.0 20369 69 2145 0x10 40 0
r 1.452216 2 3 tcp 576 ------- 0 0.0 3.0 20905 70 2145 0x10 40 0
r 1.457976 2 3 tcp 576 ------- 0 0.0 3.0 21441 71 2145 0x10 40 0
r 1.463736 2 3 tcp 576 ------- 0 0.0 3.0 21977 72 2145 0x10 40 0
r 1.469496 2 3 tcp 576 ------- 0 0.0 3.0 23049 74 2145 0x10 40 0
r 1.475256 2 3 tcp 576 ------- 0 0.0 3.0 24121 76 2145 0x10 40 0
r 1.481016 2 3 tcp 576 ------- 0 0.0 3.0 25193 78 2145 0x10 40 0
r 1.486776 2 3 tcp 576 ------- 0 0.0 3.0 26265 80 2145 0x10 40 0
r 1.492536 2 3 tcp 576 ------- 0 0.0 3.0 27337 82 2145 0x10 40 0
+ 1.506536 2 0 ack 40 ------- 0 3.0 0.0 2145 84 13937 0x18 40 0
- 1.506536 2 0 ack 40 ------- 0 3.0 0.0 2145 84 13937 0x18 40 0
r 1.511576 2 0 ack 40 ------- 0 3.0 0.0 2145 84 13937 0x18 40 0
+ 1.512296 2 0 ack 40 ------- 0 3.0 0.0 2145 85 13937 0x18 40 0
- 1.512296 2 0 ack 40 ------- 0 3.0 0.0 2145 85 13937 0x18 40 0
+ 1.517152 2 3 tcp 576 ------- 0 0.0 3.0 13937 100 2145 0x10 40 0
- 1.517152 2 3 tcp 576 ------- 0 0.0 3.0 13937 100 2145 0x10 40 0
r 1.517336 2 0 ack 40 ------- 0 3.0 0.0 2145 85 13937 0x18 40 0
+ 1.518056 2 0 ack 40 ------- 0 3.0 0.0 2145 86 13937 0x18 40 0
- 1.518056 2 0 ack 40 ------- 0 3.0 0.0 2145 86 13937 0x18 40 0
r 1.523096 2 0 ack 40 ------- 0 3.0 0.0 2145 86 13937 0x18 40 0
+ 1.523816 2 0 ack 40 ------- 0 3.0 0.0 2145 87 13937 0x18 40 0
- 1.523816 2 0 ack 40 ------- 0 3.0 0.0 2145 87 13937 0x18 40 0
r 1.528856 2 0 ack 40 ------- 0 3.0 0.0 2145 87 13937 0x18 40 0
+ 1.529576 2 0 ack 40 ------- 0 3.0 0.0 2145 88 13937 0x18 40 0
- 1.529576 2 0 ack 40 ------- 0 3.0 0.0 2145 88 13937 0x18 40 0
r 1.534616 2 0 ack 40 ------- 0 3.0 0.0 2145 88 13937 0x18 40 0
+ 1.535336 2 0 ack 40 ------- 0 3.0 0.0 2145 89 13937 0x18 40 0
- 1.535336 2 0 ack 40 ------- 0 3.0 0.0 2145 89 13937 0x18 40 0
r 1.540376 2 0 ack 40 ------- 0 3.0 0.0 2145 89 13937 0x18 40 0
+ 1.541096 2 0 ack 40 ------- 0 3.0 0.0 2145 90 13937 0x18 40 0
- 1.541096 2 0 ack 40 ------- 0 3.0 0.0 2145 90 13937 0x18 40 0
r 1.546136 2 0 ack 40 ------- 0 3.0 0.0 2145 90 13937 0x18 40 0
+ 1.546856 2 0 ack 40 ------- 0 3.0 0.0 2145 91 13937 0x18 40 0
- 1.546856 2 0 ack 40 ------- 0 3.0 0.0 2145 91 13937 0x18 40 0
r 1.551896 2 0 ack 40 ------- 0 3.0 0.0 2145 91 13937 0x18 40 0
+ 1.552616 2 0 ack 40 ------- 0 3.0 0.0 2145 92 13937 0x18 40 0
- 1.552616 2 0 ack 40 ------- 0 3.0 0.0 2145 92 13937 0x18 40 0
r 1.557656 2 0 ack 40 ------- 0 3.0 0.0 2145 92 13937 0x18 40 0
+ 1.558376 2 0 ack 40 ------- 0 3.0 0.0 2145 93 13937 0x18 40 0
- 1.558376 2 0 ack 40 ------- 0 3.0 0.0 2145 93 13937 0x18 40 0
r 1.563416 2 0 ack 40 ------- 0 3.0 0.0 2145 93 13937 0x18 40 0
+ 1.564136 2 0 ack 40 ------- 0 3.0 0.0 2145 94 13937 0x18 40 0
- 1.564136 2 0 ack 40 ------- 0 3.0 0.0 2145 94 13937 0x18 40 0
r 1.569176 2 0 ack 40 ------- 0 3.0 0.0 2145 94 13937 0x18 40 0
+ 1.569896 2 0 ack 40 ------- 0 3.0 0.0 2145 95 13937 0x18 40 0
- 1.569896 2 0 ack 40 ------- 0 3.0 0.0 2145 95 13937 0x18 40 0
r 1.574936 2 0 ack 40 ------- 0 3.0 0.0 2145 95 13937 0x18 40 0
+ 1.575656 2 0 ack 40 ------- 0 3.0 0.0 2145 96 13937 0x18 40 0
- 1.575656 2 0 ack 40 ------- 0 3.0 0.0 2145 96 13937 0x18 40 0
r 1.580696 2 0 ack 40 ------- 0 3.0 0.0 2145 96 13937 0x18 40 0
+ 1.581416 2 0 ack 40 ------- 0 3.0 0.0 2145 97 13937 0x18 40 0
- 1.581416 2 0 ack 40 ------- 0 3.0 0.0 2145 97 13937 0x18 40 0
+ 1.586272 2 3 tcp 576 ---A--- 0 0.0 3.0 28409 101 2145 0x90 40 0
- 1.586272 2 3 tcp 576 ---A--- 0 0.0 3.0 28409 101 2145 0x90 40 0
r 1.586456 2 0 ack 40 ------- 0 3.0 0.0 2145 97 13937 0x18 40 0
+ 1.587176 2 0 ack 40 ------- 0 3.0 0.0 2145 98 13937 0x18 40 0
- 1.587176 2 0 ack 40 ------- 0 3.0 0.0 2145 98 13937 0x18 40 0
+ 1.592032 2 3 tcp 576 ------- 0 0.0 3.0 28945 102 2145 0x10 40 0
- 1.592032 2 3 tcp 576 ------- 0 0.0 3.0 28945 102 2145 0x10 40 0
r 1.592216 2 0 ack 40 ------- 0 3.0 0.0 2145 98 13937 0x18 40 0
+ 1.592936 2 0 ack 40 ------- 0 3.0 0.0 2145 99 13937 0x18 40 0
- 1.592936 2 0 ack 40 ------- 0 3.0 0.0 2145 99 13937 0x18 40 0
+ 1.597792 2 3 tcp 576 ------- 0 0.0 3.0 29481 103 2145 0x10 40 0
- 1.597792 2 3 tcp 576 ------- 0 0.0 3.0 29481 103 2145 0x10 40 0
r 1.597976 2 0 ack 40 ------- 0 3.0 0.0 2145 99 13937 0x18 40 0
+ 1.603552 2 3 tcp 576 ------- 0 0.0 3.0 30017 104 2145 0x10 40 0
- 1.603552 2 3 tcp 576 ------- 0 0.0 3.0 30017 104 2145 0x10 40 0
r 1.622912 2 3 tcp 576 ------- 0 0.0 3.0 13937 100 2145 0x10 40 0
r 1.692032 2 3 tcp 576 ---A--- 0 0.0 3.0 28409 101 2145 0x90 40 0
r 1.697792 2 3 tcp 576 ------- 0 0.0 3.0 28945 102 2145 0x10 40 0
r 1.703552 2 3 tcp 576 ------- 0 0.0 3.0 29481 103 2145 0x10 40 0
r 1.709312 2 3 tcp 576 ------- 0 0.0 3.0 30017 104 2145 0x10 40 0
+ 1.723312 2 0 ack 40 ------- 0 3.0 0.0 2145 105 15009 0x18 40 0
- 1.723312 2 0 ack 40 ------- 0 3.0 0.0 2145 105 15009 0x18 40 0
r 1.728352 2 0 ack 40 ------- 0 3.0 0.0 2145 105 15009 0x18 40 0
+ 1.792432 2 0 ack 40 ------- 0 3.0 0.0 2145 106 15009 0x18 40 0
- 1.792432 2 0 ack 40 ------- 0 3.0 0.0 2145 106 15009 0x18 40 0
r 1.797472 2 0 ack 40 ------- 0 3.0 0.0 2145 106 15009 0x18 40 0
+ 1.798192 2 0 ack 40 ------- 0 3.0 0.0 2145 107 15009 0x18 40 0
- 1.798192 2 0 ack 40 ------- 0 3.0 0.0 2145 107 15009 0x18 40 0
r 1.803232 2 0 ack 40 ------- 0 3.0 0.0 2145 107 15009 0x18 40 0
+ 1.803952 2 0 ack 40 ------- 0 3.0 0.0 2145 108 15009 0x18 40 0
- 1.803952 2 0 ack 40 ------- 0 3.0 0.0 2145 108 15009 0x18 40 0
r 1.808992 2 0 ack 40 ------- 0 3.0 0.0 2145 108 15009 0x18 40 0
+ 1.809712 2 0 ack 40 ------- 0 3.0 0.0 2145 109 15009 0x18 40 0
- 1.809712 2 0 ack 40 ------- 0 3.0 0.0 2145 109 15009 0x18 40 0
+ 1.814568 2 3 tcp 576 ------- 0 0.0 3.0 15009 110 2145 0x10 40 0
- 1.814568 2 3 tcp 576 ------- 0 0.0 3.0 15009 110 2145 0x10 40 0
r 1.814752 2 0 ack 40 ------- 0 3.0 0.0 2145 109 15009 0x18 40 0
r 1.920328 2 3 tcp 576 ------- 0 0.0 3.0 15009 110 2145 0x10 40 0
+ 2.020728 2 0 ack 40 ------- 0 3.0 0.0 2145 111 16081 0x18 40 0
- 2.020728 2 0 ack 40 ------- 0 3.0 0.0 2145 111 16081 0x18 40 0
r 2.025768 2 0 ack 40 ------- 0 3.0 0.0 2145 111 16081 0x18 40 0
+ 2.531344 2 3 tcp 576 ------- 0 0.0 3.0 16081 112 2145 0x10 40 0
- 2.531344 2 3 tcp 576 ------- 0 0.0 3.0 16081 112 2145 0x10 40 0
r 2.637104 2 3 tcp 576 ------- 0 0.0 3.0 16081 112 2145 0x10 40 0
+ 2.737504 2 0 ack 40 ------- 0 3.0 0.0 2145 113 22513 0x18 40 0
- 2.737504 2 0 ack 40 ------- 0 3.0 0.0 2145 113 22513 0x18 40 0
r 2.742544 2 0 ack 40 ------- 0 3.0 0.0 2145 113 22513 0x18 40 0
+ 2.74812 2 3 tcp 576 ------- 0 0.0 3.0 22513 114 2145 0x10 40 0
- 2.74812 2 3 tcp 576 ------- 0 0.0 3.0 22513 114 2145 0x10 40 0
+ 2.748696 2 3 tcp 576 ------- 0 0.0 3.0 23049 115 2145 0x10 40 0
- 2.75388 2 3 tcp 576 ------- 0 0.0 3.0 23049 115 2145 0x10 40 0
r 2.85388 2 3 tcp 576 ------- 0 0.0 3.0 22513 114 2145 0x10 40 0
r 2.85964 2 3 tcp 576 ------- 0 0.0 3.0 23049 115 2145 0x10 40 0
+ 2.95428 2 0 ack 40 ------- 0 3.0 0.0 2145 116 23585 0x18 40 0
- 2.95428 2 0 ack 40 ------- 0 3.0 0.0 2145 116 23585 0x18 40 0
r 2.95932 2 0 ack 40 ------- 0 3.0 0.0 2145 116 23585 0x18 40 0
+ 2.96004 2 0 ack 40 ------- 0 3.0 0.0 2145 117 23585 0x18 40 0
- 2.96004 2 0 ack 40 ------- 0 3.0 0.0 2145 117 23585 0x18 40 0
+ 2.964896 2 3 tcp 576 ------- 0 0.0 3.0 23585 118 2145 0x10 40 0
- 2.964896 2 3 tcp 576 ------- 0 0.0 3.0 23585 118 2145 0x10 40 0
r 2.96508 2 0 ack 40 ------- 0 3.0 0.0 2145 117 23585 0x18 40 0
+ 2.965472 2 3 tcp 576 ------- 0 0.0 3.0 24121 119 2145 0x10 40 0
+ 2.966048 2 3 tcp 576 ------- 0 0.0 3.0 24657 120 2145 0x10 40 0
- 2.970656 2 3 tcp 576 ------- 0 0.0 3.0 24121 119 2145 0x10 40 0
- 2.976416 2 3 tcp 576 ------- 0 0.0 3.0 24657 120 2145 0x10 40 0
r 3.070656 2 3 tcp 576 ------- 0 0.0 3.0 23585 118 2145 0x10 40 0
r 3.076416 2 3 tcp 576 ------- 0 0.0 3.0 24121 119 2145 0x10 40 0
r 3.082176 2 3 tcp 576 ------- 0 0.0 3.0 24657 120 2145 0x10 40 0
+ 3.10576 2 0 ack 576 ------- 0 3.0 0.0 2145 121 23585 0x10 40 0
- 3.10576 2 0 ack 576 ------- 0 3.0 0.0 2145 121 23585 0x10 40 0
r 3.111336 2 0 ack 576 ------- 0 3.0 0.0 2145 121 23585 0x10 40 0
+ 3.116376 2 3 tcp 40 ------- 0 0.0 3.0 25193 125 2681 0x10 40 0
- 3.116376 2 3 tcp 40 ------- 0 0.0 3.0 25193 125 2681 0x10 40 0
+ 3.171056 2 0 ack 40 ------- 0 3.0 0.0 2681 122 24657 0x10 40 0
- 3.171056 2 0 ack 40 ------- 0 3.0 0.0 2681 122 24657 0x10 40 0
r 3.176096 2 0 ack 40 ------- 0 3.0 0.0 2681 122 24657 0x10 40 0
+ 3.176816 2 0 ack 40 ------- 0 3.0 0.0 2681 123 24657 0x10 40 0
- 3.176816 2 0 ack 40 ------- 0 3.0 0.0 2681 123 24657 0x10 40 0
+ 3.181672 2 3 tcp 576 ------- 0 0.0 3.0 25193 126 2681 0x10 40 0
- 3.181672 2 3 tcp 576 ------- 0 0.0 3.0 25193 126 2681 0x10 40 0
r 3.181856 2 0 ack 40 ------- 0 3.0 0.0 2681 123 24657 0x10 40 0
+ 3.182248 2 3 tcp 576 ------- 0 0.0 3.0 25729 127 2681 0x10 40 0
+ 3.182576 2 0 ack 40 ------- 0 3.0 0.0 2681 124 25729 0x10 40 0
- 3.182576 2 0 ack 40 ------- 0 3.0 0.0 2681 124 25729 0x10 40 0
- 3.187432 2 3 tcp 576 ------- 0 0.0 3.0 25729 127 2681 0x10 40 0
r 3.187616 2 0 ack 40 ------- 0 3.0 0.0 2681 124 25729 0x10 40 0
+ 3.193192 2 3 tcp 576 ------- 0 0.0 3.0 26265 128 2681 0x10 40 0
- 3.193192 2 3 tcp 576 ------- 0 0.0 3.0 26265 128 2681 0x10 40 0
+ 3.193768 2 3 tcp 576 ------- 0 0.0 3.0 26801 129 2681 0x10 40 0
- 3.198952 2 3 tcp 576 ------- 0 0.0 3.0 26801 129 2681 0x10 40 0
r 3.216776 2 3 tcp 40 ------- 0 0.0 3.0 25193 125 2681 0x10 40 0
r 3.287432 2 3 tcp 576 ------- 0 0.0 3.0 25193 126 2681 0x10 40 0
r 3.293192 2 3 tcp 576 ------- 0 0.0 3.0 25729 127 2681 0x10 40 0
r 3.298952 2 3 tcp 576 ------- 0 0.0 3.0 26265 128 2681 0x10 40 0
r 3.304712 2 3 tcp 576 ------- 0 0.0 3.0 26801 129 2681 0x10 40 0
+ 3.322536 2 0 ack 576 ------- 0 3.0 0.0 2681 130 25729 0x10 40 0
- 3.322536 2 0 ack 576 ------- 0 3.0 0.0 2681 130 25729 0x10 40 0
r 3.328112 2 0 ack 576 ------- 0 3.0 0.0 2681 130 25729 0x10 40 0
+ 3.328296 2 0 ack 576 ------- 0 3.0 0.0 3217 131 25729 0x10 40 0
- 3.328296 2 0 ack 576 ------- 0 3.0 0.0 3217 131 25729 0x10 40 0
+ 3.333152 2 3 tcp 40 ------- 0 0.0 3.0 27337 136 3217 0x10 40 0
- 3.333152 2 3 tcp 40 ------- 0 0.0 3.0 27337 136 3217 0x10 40 0
r 3.333872 2 0 ack 576 ------- 0 3.0 0.0 3217 131 25729 0x10 40 0
+ 3.338912 2 3 tcp 40 ------- 0 0.0 3.0 27337 137 3753 0x10 40 0
- 3.338912 2 3 tcp 40 ------- 0 0.0 3.0 27337 137 3753 0x10 40 0
+ 3.387832 2 0 ack 40 ------- 0 3.0 0.0 3753 132 25729 0x10 40 0
- 3.387832 2 0 ack 40 ------- 0 3.0 0.0 3753 132 25729 0x10 40 0
r 3.392872 2 0 ack 40 ------- 0 3.0 0.0 3753 132 25729 0x10 40 0
+ 3.393592 2 0 ack 40 ------- 0 3.0 0.0 3753 133 26801 0x10 40 0
- 3.393592 2 0 ack 40 ------- 0 3.0 0.0 3753 133 26801 0x10 40 0
r 3.398632 2 0 ack 40 ------- 0 3.0 0.0 3753 133 26801 0x10 40 0
+ 3.399352 2 0 ack 40 ------- 0 3.0 0.0 3753 134 26801 0x10 40 0
- 3.399352 2 0 ack 40 ------- 0 3.0 0.0 3753 134 26801 0x10 40 0
+ 3.404208 2 3 tcp 576 ------- 0 0.0 3.0 27337 138 3753 0x10 40 0
- 3.404208 2 3 tcp 576 ------- 0 0.0 3.0 27337 138 3753 0x10 40 0
r 3.404392 2 0 ack 40 ------- 0 3.0 0.0 3753 134 26801 0x10 40 0
+ 3.404784 2 3 tcp 576 ------- 0 0.0 3.0 27873 139 3753 0x10 40 0
+ 3.405112 2 0 ack 40 ------- 0 3.0 0.0 3753 135 27873 0x10 40 0
- 3.405112 2 0 ack 40 ------- 0 3.0 0.0 3753 135 27873 0x10 40 0
- 3.409968 2 3 tcp 576 ------- 0 0.0 3.0 27873 139 3753 0x10 40 0
r 3.410152 2 0 ack 40 ------- 0 3.0 0.0 3753 135 27873 0x10 40 0
+ 3.415728 2 3 tcp 576 ------- 0 0.0 3.0 28409 140 3753 0x10 40 0
- 3.415728 2 3 tcp 576 ------- 0 0.0 3.0 28409 140 3753 0x10 40 0
+ 3.416304 2 3 tcp 576 ------- 0 0.0 3.0 28945 141 3753 0x10 40 0
+ 3.41688 2 3 tcp 576 ------- 0 0.0 3.0 29481 142 3753 0x10 40 0
- 3.421488 2 3 tcp 576 ------- 0 0.0 3.0 28945 141 3753 0x10 40 0
- 3.427248 2 3 tcp 576 ------- 0 0.0 3.0 29481 142 3753 0x10 40 0
r 3.433552 2 3 tcp 40 ------- 0 0.0 3.0 27337 136 3217 0x10 40 0
r 3.439312 2 3 tcp 40 ------- 0 0.0 3.0 27337 137 3753 0x10 40 0
r 3.509968 2 3 tcp 576 ------- 0 0.0 3.0 27337 138 3753 0x10 40 0
r 3.515728 2 3 tcp 576 ------- 0 0.0 3.0 27873 139 3753 0x10 40 0
r 3.521488 2 3 tcp 576 ------- 0 0.0 3.0 28409 140 3753 0x10 40 0
r 3.527248 2 3 tcp 576 ------- 0 0.0 3.0 28945 141 3753 0x10 40 0
r 3.533008 2 3 tcp 576 ------- 0 0.0 3.0 29481 142 3753 0x10 40 0
+ 3.539312 2 0 ack 576 ------- 0 3.0 0.0 3753 143 27873 0x10 40 0
- 3.539312 2 0 ack 576 ------- 0 3.0 0.0 3753 143 27873 0x10 40 0
r 3.544888 2 0 ack 576 ------- 0 3.0 0.0 3753 143 27873 0x10 40 0
+ 3.545072 2 0 ack 576 ------- 0 3.0 0.0 4289 144 27873 0x10 40 0
- 3.545072 2 0 ack 576 ------- 0 3.0 0.0 4289 144 27873 0x10 40 0
+ 3.549928 2 3 tcp 40 ------- 0 0.0 3.0 30017 152 4289 0x10 40 0
- 3.549928 2 3 tcp 40 ------- 0 0.0 3.0 30017 152 4289 0x10 40 0
r 3.550648 2 0 ack 576 ------- 0 3.0 0.0 4289 144 27873 0x10 40 0
+ 3.550832 2 0 ack 576 ------- 0 3.0 0.0 4825 145 27873 0x10 40 0
- 3.550832 2 0 ack 576 ------- 0 3.0 0.0 4825 145 27873 0x10 40 0
+ 3.555688 2 3 tcp 40 ------- 0 0.0 3.0 30017 153 4825 0x10 40 0
- 3.555688 2 3 tcp 40 ------- 0 0.0 3.0 30017 153 4825 0x10 40 0
r 3.556408 2 0 ack 576 ------- 0 3.0 0.0 4825 145 27873 0x10 40 0
+ 3.556592 2 0 ack 576 ------- 0 3.0 0.0 5361 146 27873 0x10 40 0
- 3.556592 2 0 ack 576 ------- 0 3.0 0.0 5361 146 27873 0x10 40 0
+ 3.561448 2 3 tcp 40 ------- 0 0.0 3.0 30017 154 5361 0x10 40 0
- 3.561448 2 3 tcp 40 ------- 0 0.0 3.0 30017 154 5361 0x10 40 0
r 3.562168 2 0 ack 576 ------- 0 3.0 0.0 5361 146 27873 0x10 40 0
+ 3.567208 2 3 tcp 40 ------- 0 0.0 3.0 30017 155 5897 0x10 40 0
- 3.567208 2 3 tcp 40 ------- 0 0.0 3.0 30017 155 5897 0x10 40 0
+ 3.610368 2 0 ack 40 ------- 0 3.0 0.0 5897 147 27873 0x10 40 0
- 3.610368 2 0 ack 40 ------- 0 3.0 0.0 5897 147 27873 0x10 40 0
r 3.615408 2 0 ack 40 ------- 0 3.0 0.0 5897 147 27873 0x10 40 0
+ 3.616128 2 0 ack 40 ------- 0 3.0 0.0 5897 148 30553 0x10 40 0
- 3.616128 2 0 ack 40 ------- 0 3.0 0.0 5897 148 30553 0x10 40 0
r 3.621168 2 0 ack 40 ------- 0 3.0 0.0 5897 148 30553 0x10 40 0
+ 3.621888 2 0 ack 40 ------- 0 3.0 0.0 5897 149 30553 0x10 40 0
- 3.621888 2 0 ack 40 ------- 0 3.0 0.0 5897 149 30553 0x10 40 0
+ 3.626744 2 3 tcp 576 ---A--- 0 0.0 3.0 30553 156 5897 0x90 40 0
- 3.626744 2 3 tcp 576 ---A--- 0 0.0 3.0 30553 156 5897 0x90 40 0
r 3.626928 2 0 ack 40 ------- 0 3.0 0.0 5897 149 30553 0x10 40 0
+ 3.62732 2 3 tcp 576 ------- 0 0.0 3.0 31089 157 5897 0x10 40 0
+ 3.627648 2 0 ack 40 ------- 0 3.0 0.0 5897 150 30553 0x10 40 0
- 3.627648 2 0 ack 40 ------- 0 3.0 0.0 5897 150 30553 0x10 40 0
+ 3.627896 2 3 tcp 576 ------- 0 0.0 3.0 31625 158 5897 0x10 40 0
+ 3.628472 2 3 tcp 576 ------- 0 0.0 3.0 32161 159 5897 0x10 40 0
- 3.632504 2 3 tcp 576 ------- 0 0.0 3.0 31089 157 5897 0x10 40 0
r 3.632688 2 0 ack 40 ------- 0 3.0 0.0 5897 150 30553 0x10 40 0
+ 3.633408 2 0 ack 40 ------- 0 3.0 0.0 5897 151 30553 0x10 40 0
- 3.633408 2 0 ack 40 ------- 0 3.0 0.0 5897 151 30553 0x10 40 0
- 3.638264 2 3 tcp 576 ------- 0 0.0 3.0 31625 158 5897 0x10 40 0
r 3.638448 2 0 ack 40 ------- 0 3.0 0.0 5897 151 30553 0x10 40 0
- 3.644024 2 3 tcp 576 ------- 0 0.0 3.0 32161 159 5897 0x10 40 0
r 3.650328 2 3 tcp 40 ------- 0 0.0 3.0 30017 152 4289 0x10 40 0
r 3.656088 2 3 tcp 40 ------- 0 0.0 3.0 30017 153 4825 0x10 40 0
r 3.661848 2 3 tcp 40 ------- 0 0.0 3.0 30017 154 5361 0x10 40 0