v testName winlimited
+ 0.50504 2 3 tcp 40 ------- 0 0.0 3.0 0 0 -1 0xa 40 0
- 0.50504 2 3 tcp 40 ------- 0 0.0 3.0 0 0 -1 0xa 40 0
r 0.60544 2 3 tcp 40 ------- 0 0.0 3.0 0 0 -1 0xa 40 0
+ 0.70584 2 0 ack 40 ------- 0 3.0 0.0 0 1 1 0x1a 40 0
- 0.70584 2 0 ack 40 ------- 0 3.0 0.0 0 1 1 0x1a 40 0
r 0.71088 2 0 ack 40 ------- 0 3.0 0.0 0 1 1 0x1a 40 0
+ 0.71592 2 3 tcp 40 ------- 0 0.0 3.0 1 2 1 0x10 40 0
- 0.71592 2 3 tcp 40 ------- 0 0.0 3.0 1 2 1 0x10 40 0
+ 0.716496 2 3 tcp 576 ------- 0 0.0 3.0 1 3 1 0x10 40 0
- 0.716496 2 3 tcp 576 ------- 0 0.0 3.0 1 3 1 0x10 40 0
r 0.81632 2 3 tcp 40 ------- 0 0.0 3.0 1 2 1 0x10 40 0
r 0.822256 2 3 tcp 576 ------- 0 0.0 3.0 1 3 1 0x10 40 0
+ 0.922656 2 0 ack 40 ------- 0 3.0 0.0 1 4 537 0x18 40 0
- 0.922656 2 0 ack 40 ------- 0 3.0 0.0 1 4 537 0x18 40 0
r 0.927696 2 0 ack 40 ------- 0 3.0 0.0 1 4 537 0x18 40 0
+ 0.933272 2 3 tcp 576 ------- 0 0.0 3.0 537 5 1 0x10 40 0
- 0.933272 2 3 tcp 576 ------- 0 0.0 3.0 537 5 1 0x10 40 0
+ 0.933848 2 3 tcp 576 ------- 0 0.0 3.0 1073 6 1 0x10 40 0
- 0.939032 2 3 tcp 576 ------- 0 0.0 3.0 1073 6 1 0x10 40 0
r 1.039032 2 3 tcp 576 ------- 0 0.0 3.0 537 5 1 0x10 40 0
r 1.044792 2 3 tcp 576 ------- 0 0.0 3.0 1073 6 1 0x10 40 0
+ 1.139432 2 0 ack 40 ------- 0 3.0 0.0 1 7 1073 0x18 40 0
- 1.139432 2 0 ack 40 ------- 0 3.0 0.0 1 7 1073 0x18 40 0
r 1.144472 2 0 ack 40 ------- 0 3.0 0.0 1 7 1073 0x18 40 0
+ 1.145192 2 0 ack 40 ------- 0 3.0 0.0 1 8 1609 0x18 40 0
- 1.145192 2 0 ack 40 ------- 0 3.0 0.0 1 8 1609 0x18 40 0
+ 1.150048 2 3 tcp 576 ------- 0 0.0 3.0 1609 9 1 0x10 40 0
- 1.150048 2 3 tcp 576 ------- 0 0.0 3.0 1609 9 1 0x10 40 0
r 1.150232 2 0 ack 40 ------- 0 3.0 0.0 1 8 1609 0x18 40 0
+ 1.150624 2 3 tcp 576 ------- 0 0.0 3.0 2145 10 1 0x10 40 0
- 1.155808 2 3 tcp 576 ------- 0 0.0 3.0 2145 10 1 0x10 40 0
+ 1.155808 2 3 tcp 576 ------- 0 0.0 3.0 2681 11 1 0x10 40 0
+ 1.156384 2 3 tcp 576 ------- 0 0.0 3.0 3217 12 1 0x10 40 0
- 1.161568 2 3 tcp 576 ------- 0 0.0 3.0 2681 11 1 0x10 40 0
- 1.167328 2 3 tcp 576 ------- 0 0.0 3.0 3217 12 1 0x10 40 0
r 1.255808 2 3 tcp 576 ------- 0 0.0 3.0 1609 9 1 0x10 40 0
r 1.261568 2 3 tcp 576 ------- 0 0.0 3.0 2145 10 1 0x10 40 0
r 1.267328 2 3 tcp 576 ------- 0 0.0 3.0 2681 11 1 0x10 40 0
r 1.273088 2 3 tcp 576 ------- 0 0.0 3.0 3217 12 1 0x10 40 0
+ 1.356208 2 0 ack 40 ------- 0 3.0 0.0 1 13 2145 0x18 40 0
- 1.356208 2 0 ack 40 ------- 0 3.0 0.0 1 13 2145 0x18 40 0
r 1.361248 2 0 ack 40 ------- 0 3.0 0.0 1 13 2145 0x18 40 0
+ 1.361968 2 0 ack 40 ------- 0 3.0 0.0 1 14 2681 0x18 40 0
- 1.361968 2 0 ack 40 ------- 0 3.0 0.0 1 14 2681 0x18 40 0
+ 1.366824 2 3 tcp 576 ------- 0 0.0 3.0 3753 17 1 0x10 40 0
- 1.366824 2 3 tcp 576 ------- 0 0.0 3.0 3753 17 1 0x10 40 0
r 1.367008 2 0 ack 40 ------- 0 3.0 0.0 1 14 2681 0x18 40 0
+ 1.3674 2 3 tcp 576 ------- 0 0.0 3.0 4289 18 1 0x10 40 0
+ 1.367728 2 0 ack 40 ------- 0 3.0 0.0 1 15 3217 0x18 40 0
- 1.367728 2 0 ack 40 ------- 0 3.0 0.0 1 15 3217 0x18 40 0
- 1.372584 2 3 tcp 576 ------- 0 0.0 3.0 4289 18 1 0x10 40 0
+ 1.372584 2 3 tcp 576 ------- 0 0.0 3.0 4825 19 1 0x10 40 0
r 1.372768 2 0 ack 40 ------- 0 3.0 0.0 1 15 3217 0x18 40 0
+ 1.373488 2 0 ack 40 ------- 0 3.0 0.0 1 16 3753 0x18 40 0
- 1.373488 2 0 ack 40 ------- 0 3.0 0.0 1 16 3753 0x18 40 0
- 1.378344 2 3 tcp 576 ------- 0 0.0 3.0 4825 19 1 0x10 40 0
+ 1.378344 2 3 tcp 576 ------- 0 0.0 3.0 5361 20 1 0x10 40 0
r 1.378528 2 0 ack 40 ------- 0 3.0 0.0 1 16 3753 0x18 40 0
- 1.384104 2 3 tcp 576 ------- 0 0.0 3.0 5361 20 1 0x10 40 0
+ 1.384104 2 3 tcp 576 ------- 0 0.0 3.0 5897 21 1 0x10 40 0
- 1.389864 2 3 tcp 576 ------- 0 0.0 3.0 5897 21 1 0x10 40 0
r 1.472584 2 3 tcp 576 ------- 0 0.0 3.0 3753 17 1 0x10 40 0
r 1.478344 2 3 tcp 576 ------- 0 0.0 3.0 4289 18 1 0x10 40 0
r 1.484104 2 3 tcp 576 ------- 0 0.0 3.0 4825 19 1 0x10 40 0
r 1.489864 2 3 tcp 576 ------- 0 0.0 3.0 5361 20 1 0x10 40 0
r 1.495624 2 3 tcp 576 ------- 0 0.0 3.0 5897 21 1 0x10 40 0
+ 1.572984 2 0 ack 40 ------- 0 3.0 0.0 1 22 4289 0x18 40 0
- 1.572984 2 0 ack 40 ------- 0 3.0 0.0 1 22 4289 0x18 40 0
r 1.578024 2 0 ack 40 ------- 0 3.0 0.0 1 22 4289 0x18 40 0
+ 1.578744 2 0 ack 40 ------- 0 3.0 0.0 1 23 4825 0x18 40 0
- 1.578744 2 0 ack 40 ------- 0 3.0 0.0 1 23 4825 0x18 40 0
+ 1.5836 2 3 tcp 576 ------- 0 0.0 3.0 6433 27 1 0x10 40 0
- 1.5836 2 3 tcp 576 ------- 0 0.0 3.0 6433 27 1 0x10 40 0
r 1.583784 2 0 ack 40 ------- 0 3.0 0.0 1 23 4825 0x18 40 0
+ 1.584504 2 0 ack 40 ------- 0 3.0 0.0 1 24 5361 0x18 40 0
- 1.584504 2 0 ack 40 ------- 0 3.0 0.0 1 24 5361 0x18 40 0
+ 1.58936 2 3 tcp 576 ------- 0 0.0 3.0 6969 28 1 0x10 40 0
- 1.58936 2 3 tcp 576 ------- 0 0.0 3.0 6969 28 1 0x10 40 0
r 1.589544 2 0 ack 40 ------- 0 3.0 0.0 1 24 5361 0x18 40 0
+ 1.590264 2 0 ack 40 ------- 0 3.0 0.0 1 25 5897 0x18 40 0
- 1.590264 2 0 ack 40 ------- 0 3.0 0.0 1 25 5897 0x18 40 0
+ 1.59512 2 3 tcp 576 ------- 0 0.0 3.0 7505 29 1 0x10 40 0
- 1.59512 2 3 tcp 576 ------- 0 0.0 3.0 7505 29 1 0x10 40 0
r 1.595304 2 0 ack 40 ------- 0 3.0 0.0 1 25 5897 0x18 40 0
+ 1.596024 2 0 ack 40 ------- 0 3.0 0.0 1 26 6433 0x18 40 0
- 1.596024 2 0 ack 40 ------- 0 3.0 0.0 1 26 6433 0x18 40 0
+ 1.60088 2 3 tcp 576 ------- 0 0.0 3.0 8041 30 1 0x10 40 0
- 1.60088 2 3 tcp 576 ------- 0 0.0 3.0 8041 30 1 0x10 40 0
r 1.601064 2 0 ack 40 ------- 0 3.0 0.0 1 26 6433 0x18 40 0
+ 1.60664 2 3 tcp 576 ------- 0 0.0 3.0 8577 31 1 0x10 40 0
- 1.60664 2 3 tcp 576 ------- 0 0.0 3.0 8577 31 1 0x10 40 0
r 1.68936 2 3 tcp 576 ------- 0 0.0 3.0 6433 27 1 0x10 40 0
r 1.69512 2 3 tcp 576 ------- 0 0.0 3.0 6969 28 1 0x10 40 0
r 1.70088 2 3 tcp 576 ------- 0 0.0 3.0 7505 29 1 0x10 40 0
r 1.70664 2 3 tcp 576 ------- 0 0.0 3.0 8041 30 1 0x10 40 0
r 1.7124 2 3 tcp 576 ------- 0 0.0 3.0 8577 31 1 0x10 40 0
+ 1.78976 2 0 ack 40 ------- 0 3.0 0.0 1 32 6969 0x18 40 0
- 1.78976 2 0 ack 40 ------- 0 3.0 0.0 1 32 6969 0x18 40 0
r 1.7948 2 0 ack 40 ------- 0 3.0 0.0 1 32 6969 0x18 40 0
+ 1.79552 2 0 ack 40 ------- 0 3.0 0.0 1 33 7505 0x18 40 0
- 1.79552 2 0 ack 40 ------- 0 3.0 0.0 1 33 7505 0x18 40 0
+ 1.800376 2 3 tcp 576 ------- 0 0.0 3.0 9113 37 1 0x10 40 0
- 1.800376 2 3 tcp 576 ------- 0 0.0 3.0 9113 37 1 0x10 40 0
r 1.80056 2 0 ack 40 ------- 0 3.0 0.0 1 33 7505 0x18 40 0
+ 1.80128 2 0 ack 40 ------- 0 3.0 0.0 1 34 8041 0x18 40 0
- 1.80128 2 0 ack 40 ------- 0 3.0 0.0 1 34 8041 0x18 40 0
+ 1.806136 2 3 tcp 576 ------- 0 0.0 3.0 9649 38 1 0x10 40 0
- 1.806136 2 3 tcp 576 ------- 0 0.0 3.0 9649 38 1 0x10 40 0
r 1.80632 2 0 ack 40 ------- 0 3.0 0.0 1 34 8041 0x18 40 0
+ 1.80704 2 0 ack 40 ------- 0 3.0 0.0 1 35 8577 0x18 40 0
- 1.80704 2 0 ack 40 ------- 0 3.0 0.0 1 35 8577 0x18 40 0
+ 1.811896 2 3 tcp 576 ------- 0 0.0 3.0 10185 39 1 0x10 40 0
- 1.811896 2 3 tcp 576 ------- 0 0.0 3.0 10185 39 1 0x10 40 0
r 1.81208 2 0 ack 40 ------- 0 3.0 0.0 1 35 8577 0x18 40 0
+ 1.8128 2 0 ack 40 ------- 0 3.0 0.0 1 36 9113 0x18 40 0
- 1.8128 2 0 ack 40 ------- 0 3.0 0.0 1 36 9113 0x18 40 0
+ 1.817656 2 3 tcp 576 ------- 0 0.0 3.0 10721 40 1 0x10 40 0
- 1.817656 2 3 tcp 576 ------- 0 0.0 3.0 10721 40 1 0x10 40 0
r 1.81784 2 0 ack 40 ------- 0 3.0 0.0 1 36 9113 0x18 40 0
+ 1.823416 2 3 tcp 576 ------- 0 0.0 3.0 11257 41 1 0x10 40 0
- 1.823416 2 3 tcp 576 ------- 0 0.0 3.0 11257 41 1 0x10 40 0
r 1.906136 2 3 tcp 576 ------- 0 0.0 3.0 9113 37 1 0x10 40 0
r 1.911896 2 3 tcp 576 ------- 0 0.0 3.0 9649 38 1 0x10 40 0
r 1.917656 2 3 tcp 576 ------- 0 0.0 3.0 10185 39 1 0x10 40 0
r 1.923416 2 3 tcp 576 ------- 0 0.0 3.0 10721 40 1 0x10 40 0
r 1.929176 2 3 tcp 576 ------- 0 0.0 3.0 11257 41 1 0x10 40 0
+ 2.006536 2 0 ack 40 ------- 0 3.0 0.0 1 42 9649 0x18 40 0
- 2.006536 2 0 ack 40 ------- 0 3.0 0.0 1 42 9649 0x18 40 0
r 2.011576 2 0 ack 40 ------- 0 3.0 0.0 1 42 9649 0x18 40 0
+ 2.012296 2 0 ack 40 ------- 0 3.0 0.0 1 43 10185 0x18 40 0
- 2.012296 2 0 ack 40 ------- 0 3.0 0.0 1 43 10185 0x18 40 0
+ 2.017152 2 3 tcp 576 ------- 0 0.0 3.0 11793 47 1 0x10 40 0
- 2.017152 2 3 tcp 576 ------- 0 0.0 3.0 11793 47 1 0x10 40 0
r 2.017336 2 0 ack 40 ------- 0 3.0 0.0 1 43 10185 0x18 40 0
+ 2.018056 2 0 ack 40 ------- 0 3.0 0.0 1 44 10721 0x18 40 0
- 2.018056 2 0 ack 40 ------- 0 3.0 0.0 1 44 10721 0x18 40 0
+ 2.022912 2 3 tcp 576 ------- 0 0.0 3.0 12329 48 1 0x10 40 0
- 2.022912 2 3 tcp 576 ------- 0 0.0 3.0 12329 48 1 0x10 40 0
r 2.023096 2 0 ack 40 ------- 0 3.0 0.0 1 44 10721 0x18 40 0
+ 2.023816 2 0 ack 40 ------- 0 3.0 0.0 1 45 11257 0x18 40 0
- 2.023816 2 0 ack 40 ------- 0 3.0 0.0 1 45 11257 0x18 40 0
+ 2.028672 2 3 tcp 576 ------- 0 0.0 3.0 12865 49 1 0x10 40 0
- 2.028672 2 3 tcp 576 ------- 0 0.0 3.0 12865 49 1 0x10 40 0
r 2.028856 2 0 ack 40 ------- 0 3.0 0.0 1 45 11257 0x18 40 0
+ 2.029576 2 0 ack 40 ------- 0 3.0 0.0 1 46 11793 0x18 40 0
- 2.029576 2 0 ack 40 ------- 0 3.0 0.0 1 46 11793 0x18 40 0
+ 2.034432 2 3 tcp 576 ------- 0 0.0 3.0 13401 50 1 0x10 40 0
- 2.034432 2 3 tcp 576 ------- 0 0.0 3.0 13401 50 1 0x10 40 0
r 2.034616 2 0 ack 40 ------- 0 3.0 0.0 1 46 11793 0x18 40 0
+ 2.040192 2 3 tcp 576 ------- 0 0.0 3.0 13937 51 1 0x10 40 0
- 2.040192 2 3 tcp 576 ------- 0 0.0 3.0 13937 51 1 0x10 40 0
r 2.122912 2 3 tcp 576 ------- 0 0.0 3.0 11793 47 1 0x10 40 0
r 2.128672 2 3 tcp 576 ------- 0 0.0 3.0 12329 48 1 0x10 40 0
r 2.134432 2 3 tcp 576 ------- 0 0.0 3.0 12865 49 1 0x10 40 0
r 2.140192 2 3 tcp 576 ------- 0 0.0 3.0 13401 50 1 0x10 40 0
r 2.145952 2 3 tcp 576 ------- 0 0.0 3.0 13937 51 1 0x10 40 0
+ 2.223312 2 0 ack 40 ------- 0 3.0 0.0 1 52 12329 0x18 40 0
- 2.223312 2 0 ack 40 ------- 0 3.0 0.0 1 52 12329 0x18 40 0
r 2.228352 2 0 ack 40 ------- 0 3.0 0.0 1 52 12329 0x18 40 0
+ 2.229072 2 0 ack 40 ------- 0 3.0 0.0 1 53 12865 0x18 40 0
- 2.229072 2 0 ack 40 ------- 0 3.0 0.0 1 53 12865 0x18 40 0
+ 2.233928 2 3 tcp 576 ------- 0 0.0 3.0 14473 57 1 0x10 40 0
- 2.233928 2 3 tcp 576 ------- 0 0.0 3.0 14473 57 1 0x10 40 0
r 2.234112 2 0 ack 40 ------- 0 3.0 0.0 1 53 12865 0x18 40 0
+ 2.234832 2 0 ack 40 ------- 0 3.0 0.0 1 54 13401 0x18 40 0
- 2.234832 2 0 ack 40 ------- 0 3.0 0.0 1 54 13401 0x18 40 0
+ 2.239688 2 3 tcp 576 ------- 0 0.0 3.0 15009 58 1 0x10 40 0
- 2.239688 2 3 tcp 576 ------- 0 0.0 3.0 15009 58 1 0x10 40 0
r 2.239872 2 0 ack 40 ------- 0 3.0 0.0 1 54 13401 0x18 40 0
+ 2.240592 2 0 ack 40 ------- 0 3.0 0.0 1 55 13937 0x18 40 0
- 2.240592 2 0 ack 40 ------- 0 3.0 0.0 1 55 13937 0x18 40 0
+ 2.245448 2 3 tcp 576 ------- 0 0.0 3.0 15545 59 1 0x10 40 0
- 2.245448 2 3 tcp 576 ------- 0 0.0 3.0 15545 59 1 0x10 40 0
r 2.245632 2 0 ack 40 ------- 0 3.0 0.0 1 55 13937 0x18 40 0
+ 2.246352 2 0 ack 40 ------- 0 3.0 0.0 1 56 14473 0x18 40 0
- 2.246352 2 0 ack 40 ------- 0 3.0 0.0 1 56 14473 0x18 40 0
+ 2.251208 2 3 tcp 576 ------- 0 0.0 3.0 16081 60 1 0x10 40 0
- 2.251208 2 3 tcp 576 ------- 0 0.0 3.0 16081 60 1 0x10 40 0
r 2.251392 2 0 ack 40 ------- 0 3.0 0.0 1 56 14473 0x18 40 0
+ 2.256968 2 3 tcp 576 ------- 0 0.0 3.0 16617 61 1 0x10 40 0
- 2.256968 2 3 tcp 576 ------- 0 0.0 3.0 16617 61 1 0x10 40 0
r 2.339688 2 3 tcp 576 ------- 0 0.0 3.0 14473 57 1 0x10 40 0
r 2.345448 2 3 tcp 576 ------- 0 0.0 3.0 15009 58 1 0x10 40 0
r 2.351208 2 3 tcp 576 ------- 0 0.0 3.0 15545 59 1 0x10 40 0
r 2.356968 2 3 tcp 576 ------- 0 0.0 3.0 16081 60 1 0x10 40 0
r 2.362728 2 3 tcp 576 ------- 0 0.0 3.0 16617 61 1 0x10 40 0
+ 2.440088 2 0 ack 40 ------- 0 3.0 0.0 1 62 15009 0x18 40 0
- 2.440088 2 0 ack 40 ------- 0 3.0 0.0 1 62 15009 0x18 40 0
r 2.445128 2 0 ack 40 ------- 0 3.0 0.0 1 62 15009 0x18 40 0
+ 2.445848 2 0 ack 40 ------- 0 3.0 0.0 1 63 15545 0x18 40 0
- 2.445848 2 0 ack 40 ------- 0 3.0 0.0 1 63 15545 0x18 40 0
+ 2.450704 2 3 tcp 576 ------- 0 0.0 3.0 17153 67 1 0x10 40 0
- 2.450704 2 3 tcp 576 ------- 0 0.0 3.0 17153 67 1 0x10 40 0
r 2.450888 2 0 ack 40 ------- 0 3.0 0.0 1 63 15545 0x18 40 0
+ 2.451608 2 0 ack 40 ------- 0 3.0 0.0 1 64 16081 0x18 40 0
- 2.451608 2 0 ack 40 ------- 0 3.0 0.0 1 64 16081 0x18 40 0
+ 2.456464 2 3 tcp 576 ------- 0 0.0 3.0 17689 68 1 0x10 40 0
- 2.456464 2 3 tcp 576 ------- 0 0.0 3.0 17689 68 1 0x10 40 0
r 2.456648 2 0 ack 40 ------- 0 3.0 0.0 1 64 16081 0x18 40 0
+ 2.457368 2 0 ack 40 ------- 0 3.0 0.0 1 65 16617 0x18 40 0
- 2.457368 2 0 ack 40 ------- 0 3.0 0.0 1 65 16617 0x18 40 0
+ 2.462224 2 3 tcp 576 ------- 0 0.0 3.0 18225 69 1 0x10 40 0
- 2.462224 2 3 tcp 576 ------- 0 0.0 3.0 18225 69 1 0x10 40 0
r 2.462408 2 0 ack 40 ------- 0 3.0 0.0 1 65 16617 0x18 40 0
+ 2.463128 2 0 ack 40 ------- 0 3.0 0.0 1 66 17153 0x18 40 0
- 2.463128 2 0 ack 40 ------- 0 3.0 0.0 1 66 17153 0x18 40 0
+ 2.467984 2 3 tcp 576 ------- 0 0.0 3.0 18761 70 1 0x10 40 0
- 2.467984 2 3 tcp 576 ------- 0 0.0 3.0 18761 70 1 0x10 40 0
r 2.468168 2 0 ack 40 ------- 0 3.0 0.0 1 66 17153 0x18 40 0
+ 2.473744 2 3 tcp 576 ------- 0 0.0 3.0 19297 71 1 0x10 40 0
- 2.473744 2 3 tcp 576 ------- 0 0.0 3.0 19297 71 1 0x10 40 0
r 2.556464 2 3 tcp 576 ------- 0 0.0 3.0 17153 67 1 0x10 40 0
r 2.562224 2 3 tcp 576 ------- 0 0.0 3.0 17689 68 1 0x10 40 0
r 2.567984 2 3 tcp 576 ------- 0 0.0 3.0 18225 69 1 0x10 40 0
r 2.573744 2 3 tcp 576 ------- 0 0.0 3.0 18761 70 1 0x10 40 0
r 2.579504 2 3 tcp 576 ------- 0 0.0 3.0 19297 71 1 0x10 40 0
+ 2.656864 2 0 ack 40 ------- 0 3.0 0.0 1 72 17689 0x18 40 0
- 2.656864 2 0 ack 40 ------- 0 3.0 0.0 1 72 17689 0x18 40 0
r 2.661904 2 0 ack 40 ------- 0 3.0 0.0 1 72 17689 0x18 40 0
+ 2.662624 2 0 ack 40 ------- 0 3.0 0.0 1 73 18225 0x18 40 0
- 2.662624 2 0 ack 40 ------- 0 3.0 0.0 1 73 18225 0x18 40 0
+ 2.66748 2 3 tcp 576 ------- 0 0.0 3.0 19833 77 1 0x10 40 0
- 2.66748 2 3 tcp 576 ------- 0 0.0 3.0 19833 77 1 0x10 40 0
r 2.667664 2 0 ack 40 ------- 0 3.0 0.0 1 73 18225 0x18 40 0
+ 2.668384 2 0 ack 40 ------- 0 3.0 0.0 1 74 18761 0x18 40 0
- 2.668384 2 0 ack 40 ------- 0 3.0 0.0 1 74 18761 0x18 40 0
+ 2.67324 2 3 tcp 576 ------- 0 0.0 3.0 20369 78 1 0x10 40 0
- 2.67324 2 3 tcp 576 ------- 0 0.0 3.0 20369 78 1 0x10 40 0
r 2.673424 2 0 ack 40 ------- 0 3.0 0.0 1 74 18761 0x18 40 0
+ 2.674144 2 0 ack 40 ------- 0 3.0 0.0 1 75 19297 0x18 40 0
- 2.674144 2 0 ack 40 ------- 0 3.0 0.0 1 75 19297 0x18 40 0
+ 2.679 2 3 tcp 576 ------- 0 0.0 3.0 20905 79 1 0x10 40 0
- 2.679 2 3 tcp 576 ------- 0 0.0 3.0 20905 79 1 0x10 40 0
r 2.679184 2 0 ack 40 ------- 0 3.0 0.0 1 75 19297 0x18 40 0
+ 2.679904 2 0 ack 40 ------- 0 3.0 0.0 1 76 19833 0x18 40 0
- 2.679904 2 0 ack 40 ------- 0 3.0 0.0 1 76 19833 0x18 40 0
+ 2.68476 2 3 tcp 576 ------- 0 0.0 3.0 21441 80 1 0x10 40 0
- 2.68476 2 3 tcp 576 ------- 0 0.0 3.0 21441 80 1 0x10 40 0
r 2.684944 2 0 ack 40 ------- 0 3.0 0.0 1 76 19833 0x18 40 0
+ 2.69052 2 3 tcp 576 ------- 0 0.0 3.0 21977 81 1 0x10 40 0
- 2.69052 2 3 tcp 576 ------- 0 0.0 3.0 21977 81 1 0x10 40 0
r 2.77324 2 3 tcp 576 ------- 0 0.0 3.0 19833 77 1 0x10 40 0
r 2.779 2 3 tcp 576 ------- 0 0.0 3.0 20369 78 1 0x10 40 0
r 2.78476 2 3 tcp 576 ------- 0 0.0 3.0 20905 79 1 0x10 40 0
r 2.79052 2 3 tcp 576 ------- 0 0.0 3.0 21441 80 1 0x10 40 0
r 2.79628 2 3 tcp 576 ------- 0 0.0 3.0 21977 81 1 0x10 40 0
+ 2.87364 2 0 ack 40 ------- 0 3.0 0.0 1 82 20369 0x18 40 0
- 2.87364 2 0 ack 40 ------- 0 3.0 0.0 1 82 20369 0x18 40 0
r 2.87868 2 0 ack 40 ------- 0 3.0 0.0 1 82 20369 0x18 40 0
+ 2.8794 2 0 ack 40 ------- 0 3.0 0.0 1 83 20905 0x18 40 0
- 2.8794 2 0 ack 40 ------- 0 3.0 0.0 1 83 20905 0x18 40 0
+ 2.884256 2 3 tcp 576 ------- 0 0.0 3.0 22513 87 1 0x10 40 0
- 2.884256 2 3 tcp 576 ------- 0 0.0 3.0 22513 87 1 0x10 40 0
r 2.88444 2 0 ack 40 ------- 0 3.0 0.0 1 83 20905 0x18 40 0
+ 2.88516 2 0 ack 40 ------- 0 3.0 0.0 1 84 21441 0x18 40 0
- 2.88516 2 0 ack 40 ------- 0 3.0 0.0 1 84 21441 0x18 40 0
+ 2.890016 2 3 tcp 576 ------- 0 0.0 3.0 23049 88 1 0x10 40 0
- 2.890016 2 3 tcp 576 ------- 0 0.0 3.0 23049 88 1 0x10 40 0
r 2.8902 2 0 ack 40 ------- 0 3.0 0.0 1 84 21441 0x18 40 0
+ 2.89092 2 0 ack 40 ------- 0 3.0 0.0 1 85 21977 0x18 40 0
- 2.89092 2 0 ack 40 ------- 0 3.0 0.0 1 85 21977 0x18 40 0
+ 2.895776 2 3 tcp 576 ------- 0 0.0 3.0 23585 89 1 0x10 40 0
- 2.895776 2 3 tcp 576 ------- 0 0.0 3.0 23585 89 1 0x10 40 0
r 2.89596 2 0 ack 40 ------- 0 3.0 0.0 1 85 21977 0x18 40 0
+ 2.89668 2 0 ack 40 ------- 0 3.0 0.0 1 86 22513 0x18 40 0
- 2.89668 2 0 ack 40 ------- 0 3.0 0.0 1 86 22513 0x18 40 0
+ 2.901536 2 3 tcp 576 ------- 0 0.0 3.0 24121 90 1 0x10 40 0
- 2.901536 2 3 tcp 576 ------- 0 0.0 3.0 24121 90 1 0x10 40 0
r 2.90172 2 0 ack 40 ------- 0 3.0 0.0 1 86 22513 0x18 40 0
+ 2.907296 2 3 tcp 576 ------- 0 0.0 3.0 24657 91 1 0x10 40 0
- 2.907296 2 3 tcp 576 ------- 0 0.0 3.0 24657 91 1 0x10 40 0
r 2.990016 2 3 tcp 576 ------- 0 0.0 3.0 22513 87 1 0x10 40 0
r 2.995776 2 3 tcp 576 ------- 0 0.0 3.0 23049 88 1 0x10 40 0
r 3.001536 2 3 tcp 576 ------- 0 0.0 3.0 23585 89 1 0x10 40 0
r 3.007296 2 3 tcp 576 ------- 0 0.0 3.0 24121 90 1 0x10 40 0
r 3.013056 2 3 tcp 576 ------- 0 0.0 3.0 24657 91 1 0x10 40 0
+ 3.090416 2 0 ack 40 ------- 0 3.0 0.0 1 92 23049 0x18 40 0
- 3.090416 2 0 ack 40 ------- 0 3.0 0.0 1 92 23049 0x18 40 0
r 3.095456 2 0 ack 40 ------- 0 3.0 0.0 1 92 23049 0x18 40 0
+ 3.096176 2 0 ack 40 ------- 0 3.0 0.0 1 93 23585 0x18 40 0
- 3.096176 2 0 ack 40 ------- 0 3.0 0.0 1 93 23585 0x18 40 0
+ 3.101032 2 3 tcp 576 ------- 0 0.0 3.0 25193 97 1 0x10 40 0
- 3.101032 2 3 tcp 576 ------- 0 0.0 3.0 25193 97 1 0x10 40 0
r 3.101216 2 0 ack 40 ------- 0 3.0 0.0 1 93 23585 0x18 40 0
+ 3.101936 2 0 ack 40 ------- 0 3.0 0.0 1 94 24121 0x18 40 0
- 3.101936 2 0 ack 40 ------- 0 3.0 0.0 1 94 24121 0x18 40 0
+ 3.106792 2 3 tcp 576 ------- 0 0.0 3.0 25729 98 1 0x10 40 0
- 3.106792 2 3 tcp 576 ------- 0 0.0 3.0 25729 98 1 0x10 40 0
r 3.106976 2 0 ack 40 ------- 0 3.0 0.0 1 94 24121 0x18 40 0
+ 3.107696 2 0 ack 40 ------- 0 3.0 0.0 1 95 24657 0x18 40 0
- 3.107696 2 0 ack 40 ------- 0 3.0 0.0 1 95 24657 0x18 40 0
+ 3.112552 2 3 tcp 576 ------- 0 0.0 3.0 26265 99 1 0x10 40 0
- 3.112552 2 3 tcp 576 ------- 0 0.0 3.0 26265 99 1 0x10 40 0
r 3.112736 2 0 ack 40 ------- 0 3.0 0.0 1 95 24657 0x18 40 0
+ 3.113456 2 0 ack 40 ------- 0 3.0 0.0 1 96 25193 0x18 40 0
- 3.113456 2 0 ack 40 ------- 0 3.0 0.0 1 96 25193 0x18 40 0
+ 3.118312 2 3 tcp 576 ------- 0 0.0 3.0 26801 100 1 0x10 40 0
- 3.118312 2 3 tcp 576 ------- 0 0.0 3.0 26801 100 1 0x10 40 0
r 3.118496 2 0 ack 40 ------- 0 3.0 0.0 1 96 25193 0x18 40 0
+ 3.124072 2 3 tcp 576 ------- 0 0.0 3.0 27337 101 1 0x10 40 0
- 3.124072 2 3 tcp 576 ------- 0 0.0 3.0 27337 101 1 0x10 40 0
r 3.206792 2 3 tcp 576 ------- 0 0.0 3.0 25193 97 1 0x10 40 0
r 3.212552 2 3 tcp 576 ------- 0 0.0 3.0 25729 98 1 0x10 40 0
r 3.218312 2 3 tcp 576 ------- 0 0.0 3.0 26265 99 1 0x10 40 0
r 3.224072 2 3 tcp 576 ------- 0 0.0 3.0 26801 100 1 0x10 40 0
r 3.229832 2 3 tcp 576 ------- 0 0.0 3.0 27337 101 1 0x10 40 0
+ 3.307192 2 0 ack 40 ------- 0 3.0 0.0 1 102 25729 0x18 40 0
- 3.307192 2 0 ack 40 ------- 0 3.0 0.0 1 102 25729 0x18 40 0
r 3.312232 2 0 ack 40 ------- 0 3.0 0.0 1 102 25729 0x18 40 0
+ 3.312952 2 0 ack 40 ------- 0 3.0 0.0 1 103 26265 0x18 40 0
- 3.312952 2 0 ack 40 ------- 0 3.0 0.0 1 103 26265 0x18 40 0
+ 3.317808 2 3 tcp 576 ------- 0 0.0 3.0 27873 107 1 0x10 40 0
- 3.317808 2 3 tcp 576 ------- 0 0.0 3.0 27873 107 1 0x10 40 0
r 3.317992 2 0 ack 40 ------- 0 3.0 0.0 1 103 26265 0x18 40 0
+ 3.318712 2 0 ack 40 ------- 0 3.0 0.0 1 104 26801 0x18 40 0
- 3.318712 2 0 ack 40 ------- 0 3.0 0.0 1 104 26801 0x18 40 0
+ 3.323568 2 3 tcp 576 ------- 0 0.0 3.0 28409 108 1 0x10 40 0
- 3.323568 2 3 tcp 576 ------- 0 0.0 3.0 28409 108 1 0x10 40 0
r 3.323752 2 0 ack 40 ------- 0 3.0 0.0 1 104 26801 0x18 40 0
+ 3.324472 2 0 ack 40 ------- 0 3.0 0.0 1 105 27337 0x18 40 0
- 3.324472 2 0 ack 40 ------- 0 3.0 0.0 1 105 27337 0x18 40 0
+ 3.329328 2 3 tcp 576 ------- 0 0.0 3.0 28945 109 1 0x10 40 0
- 3.329328 2 3 tcp 576 ------- 0 0.0 3.0 28945 109 1 0x10 40 0
r 3.329512 2 0 ack 40 ------- 0 3.0 0.0 1 105 27337 0x18 40 0
+ 3.330232 2 0 ack 40 ------- 0 3.0 0.0 1 106 27873 0x18 40 0
- 3.330232 2 0 ack 40 ------- 0 3.0 0.0 1 106 27873 0x18 40 0
+ 3.335088 2 3 tcp 576 ------- 0 0.0 3.0 29481 110 1 0x10 40 0
- 3.335088 2 3 tcp 576 ------- 0 0.0 3.0 29481 110 1 0x10 40 0
r 3.335272 2 0 ack 40 ------- 0 3.0 0.0 1 106 27873 0x18 40 0
+ 3.340848 2 3 tcp 576 ------- 0 0.0 3.0 30017 111 1 0x10 40 0
- 3.340848 2 3 tcp 576 ------- 0 0.0 3.0 30017 111 1 0x10 40 0
r 3.423568 2 3 tcp 576 ------- 0 0.0 3.0 27873 107 1 0x10 40 0
r 3.429328 2 3 tcp 576 ------- 0 0.0 3.0 28409 108 1 0x10 40 0
r 3.435088 2 3 tcp 576 ------- 0 0.0 3.0 28945 109 1 0x10 40 0
r 3.440848 2 3 tcp 576 ------- 0 0.0 3.0 29481 110 1 0x10 40 0
r 3.446608 2 3 tcp 576 ------- 0 0.0 3.0 30017 111 1 0x10 40 0
+ 3.523968 2 0 ack 40 ------- 0 3.0 0.0 1 112 28409 0x18 40 0
- 3.523968 2 0 ack 40 ------- 0 3.0 0.0 1 112 28409 0x18 40 0
r 3.529008 2 0 ack 40 ------- 0 3.0 0.0 1 112 28409 0x18 40 0
+ 3.529728 2 0 ack 40 ------- 0 3.0 0.0 1 113 28945 0x18 40 0
- 3.529728 2 0 ack 40 ------- 0 3.0 0.0 1 113 28945 0x18 40 0
+ 3.534584 2 3 tcp 576 ------- 0 0.0 3.0 30553 117 1 0x10 40 0
- 3.534584 2 3 tcp 576 ------- 0 0.0 3.0 30553 117 1 0x10 40 0
r 3.534768 2 0 ack 40 ------- 0 3.0 0.0 1 113 28945 0x18 40 0
+ 3.535488 2 0 ack 40 ------- 0 3.0 0.0 1 114 29481 0x18 40 0
- 3.535488 2 0 ack 40 ------- 0 3.0 0.0 1 114 29481 0x18 40 0
+ 3.540344 2 3 tcp 576 ------- 0 0.0 3.0 31089 118 1 0x10 40 0
- 3.540344 2 3 tcp 576 ------- 0 0.0 3.0 31089 118 1 0x10 40 0
r 3.540528 2 0 ack 40 ------- 0 3.0 0.0 1 114 29481 0x18 40 0
+ 3.541248 2 0 ack 40 ------- 0 3.0 0.0 1 115 30017 0x18 40 0
- 3.541248 2 0 ack 40 ------- 0 3.0 0.0 1 115 30017 0x18 40 0
+ 3.546104 2 3 tcp 576 ------- 0 0.0 3.0 31625 119 1 0x10 40 0
- 3.546104 2 3 tcp 576 ------- 0 0.0 3.0 31625 119 1 0x10 40 0
r 3.546288 2 0 ack 40 ------- 0 3.0 0.0 1 115 30017 0x18 40 0
+ 3.547008 2 0 ack 40 ------- 0 3.0 0.0 1 116 30553 0x18 40 0
- 3.547008 2 0 ack 40 ------- 0 3.0 0.0 1 116 30553 0x18 40 0
+ 3.551864 2 3 tcp 576 ------- 0 0.0 3.0 32161 120 1 0x10 40 0
- 3.551864 2 3 tcp 576 ------- 0 0.0 3.0 32161 120 1 0x10 40 0
r 3.552048 2 0 ack 40 ------- 0 3.0 0.0 1 116 30553 0x18 40 0
+ 3.557624 2 3 tcp 576 ------- 0 0.0 3.0 32697 121 1 0x10 40 0
- 3.557624 2 3 tcp 576 ------- 0 0.0 3.0 32697 121 1 0x10 40 0
r 3.640344 2 3 tcp 576 ------- 0 0.0 3.0 30553 117 1 0x10 40 0
r 3.646104 2 3 tcp 576 ------- 0 0.0 3.0 31089 118 1 0x10 40 0
r 3.651864 2 3 tcp 576 ------- 0 0.0 3.0 31625 119 1 0x10 40 0
r 3.657624 2 3 tcp 576 ------- 0 0.0 3.0 32161 120 1 0x10 40 0
r 3.663384 2 3 tcp 576 ------- 0 0.0 3.0 32697 121 1 0x10 40 0
+ 3.740744 2 0 ack 40 ------- 0 3.0 0.0 1 122 31089 0x18 40 0
- 3.740744 2 0 ack 40 ------- 0 3.0 0.0 1 122 31089 0x18 40 0
r 3.745784 2 0 ack 40 ------- 0 3.0 0.0 1 122 31089 0x18 40 0
+ 3.746504 2 0 ack 40 ------- 0 3.0 0.0 1 123 31625 0x18 40 0
- 3.746504 2 0 ack 40 ------- 0 3.0 0.0 1 123 31625 0x18 40 0
+ 3.75136 2 3 tcp 576 ------- 0 0.0 3.0 33233 127 1 0x10 40 0
- 3.75136 2 3 tcp 576 ------- 0 0.0 3.0 33233 127 1 0x10 40 0
r 3.751544 2 0 ack 40 ------- 0 3.0 0.0 1 123 31625 0x18 40 0
+ 3.752264 2 0 ack 40 ------- 0 3.0 0.0 1 124 32161 0x18 40 0
- 3.752264 2 0 ack 40 ------- 0 3.0 0.0 1 124 32161 0x18 40 0
+ 3.75712 2 3 tcp 576 ------- 0 0.0 3.0 33769 128 1 0x10 40 0
- 3.75712 2 3 tcp 576 ------- 0 0.0 3.0 33769 128 1 0x10 40 0
r 3.757304 2 0 ack 40 ------- 0 3.0 0.0 1 124 32161 0x18 40 0
+ 3.758024 2 0 ack 40 ------- 0 3.0 0.0 1 125 32697 0x18 40 0
- 3.758024 2 0 ack 40 ------- 0 3.0 0.0 1 125 32697 0x18 40 0
+ 3.76288 2 3 tcp 576 ------- 0 0.0 3.0 34305 129 1 0x10 40 0
- 3.76288 2 3 tcp 576 ------- 0 0.0 3.0 34305 129 1 0x10 40 0
r 3.763064 2 0 ack 40 ------- 0 3.0 0.0 1 125 32697 0x18 40 0
+ 3.763784 2 0 ack 40 ------- 0 3.0 0.0 1 126 33233 0x18 40 0
- 3.763784 2 0 ack 40 ------- 0 3.0 0.0 1 126 33233 0x18 40 0
+ 3.76864 2 3 tcp 576 ------- 0 0.0 3.0 34841 130 1 0x10 40 0
- 3.76864 2 3 tcp 576 ------- 0 0.0 3.0 34841 130 1 0x10 40 0
r 3.768824 2 0 ack 40 ------- 0 3.0 0.0 1 126 33233 0x18 40 0
+ 3.7744 2 3 tcp 576 ------- 0 0.0 3.0 35377 131 1 0x10 40 0
- 3.7744 2 3 tcp 576 ------- 0 0.0 3.0 35377 131 1 0x10 40 0
r 3.85712 2 3 tcp 576 ------- 0 0.0 3.0 33233 127 1 0x10 40 0
r 3.86288 2 3 tcp 576 ------- 0 0.0 3.0 33769 128 1 0x10 40 0
r 3.86864 2 3 tcp 576 ------- 0 0.0 3.0 34305 129 1 0x10 40 0
r 3.8744 2 3 tcp 576 ------- 0 0.0 3.0 34841 130 1 0x10 40 0
r 3.88016 2 3 tcp 576 ------- 0 0.0 3.0 35377 131 1 0x10 40 0
+ 3.95752 2 0 ack 40 ------- 0 3.0 0.0 1 132 33769 0x18 40 0
- 3.95752 2 0 ack 40 ------- 0 3.0 0.0 1 132 33769 0x18 40 0
r 3.96256 2 0 ack 40 ------- 0 3.0 0.0 1 132 33769 0x18 40 0
+ 3.96328 2 0 ack 40 ------- 0 3.0 0.0 1 133 34305 0x18 40 0
- 3.96328 2 0 ack 40 ------- 0 3.0 0.0 1 133 34305 0x18 40 0
+ 3.968136 2 3 tcp 576 ------- 0 0.0 3.0 35913 137 1 0x10 40 0
- 3.968136 2 3 tcp 576 ------- 0 0.0 3.0 35913 137 1 0x10 40 0
r 3.96832 2 0 ack 40 ------- 0 3.0 0.0 1 133 34305 0x18 40 0
+ 3.96904 2 0 ack 40 ------- 0 3.0 0.0 1 134 34841 0x18 40 0
- 3.96904 2 0 ack 40 ------- 0 3.0 0.0 1 134 34841 0x18 40 0
+ 3.973896 2 3 tcp 576 ------- 0 0.0 3.0 36449 138 1 0x10 40 0
- 3.973896 2 3 tcp 576 ------- 0 0.0 3.0 36449 138 1 0x10 40 0
r 3.97408 2 0 ack 40 ------- 0 3.0 0.0 1 134 34841 0x18 40 0
+ 3.9748 2 0 ack 40 ------- 0 3.0 0.0 1 135 35377 0x18 40 0
- 3.9748 2 0 ack 40 ------- 0 3.0 0.0 1 135 35377 0x18 40 0
+ 3.979656 2 3 tcp 576 ------- 0 0.0 3.0 36985 139 1 0x10 40 0
- 3.979656 2 3 tcp 576 ------- 0 0.0 3.0 36985 139 1 0x10 40 0
r 3.97984 2 0 ack 40 ------- 0 3.0 0.0 1 135 35377 0x18 40 0
+ 3.98056 2 0 ack 40 ------- 0 3.0 0.0 1 136 35913 0x18 40 0
- 3.98056 2 0 ack 40 ------- 0 3.0 0.0 1 136 35913 0x18 40 0
+ 3.985416 2 3 tcp 576 ------- 0 0.0 3.0 37521 140 1 0x10 40 0
- 3.985416 2 3 tcp 576 ------- 0 0.0 3.0 37521 140 1 0x10 40 0
r 3.9856 2 0 ack 40 ------- 0 3.0 0.0 1 136 35913 0x18 40 0
+ 3.991176 2 3 tcp 576 ------- 0 0.0 3.0 38057 141 1 0x10 40 0
- 3.991176 2 3 tcp 576 ------- 0 0.0 3.0 38057 141 1 0x10 40 0
r 4.073896 2 3 tcp 576 ------- 0 0.0 3.0 35913 137 1 0x10 40 0
r 4.079656 2 3 tcp 576 ------- 0 0.0 3.0 36449 138 1 0x10 40 0
r 4.085416 2 3 tcp 576 ------- 0 0.0 3.0 36985 139 1 0x10 40 0
r 4.091176 2 3 tcp 576 ------- 0 0.0 3.0 37521 140 1 0x10 40 0
r 4.096936 2 3 tcp 576 ------- 0 0.0 3.0 38057 141 1 0x10 40 0
+ 4.174296 2 0 ack 40 ------- 0 3.0 0.0 1 142 36449 0x18 40 0
- 4.174296 2 0 ack 40 ------- 0 3.0 0.0 1 142 36449 0x18 40 0
r 4.179336 2 0 ack 40 ------- 0 3.0 0.0 1 142 36449 0x18 40 0
+ 4.180056 2 0 ack 40 ------- 0 3.0 0.0 1 143 36985 0x18 40 0
- 4.180056 2 0 ack 40 ------- 0 3.0 0.0 1 143 36985 0x18 40 0
+ 4.184912 2 3 tcp 576 ------- 0 0.0 3.0 38593 147 1 0x10 40 0
- 4.184912 2 3 tcp 576 ------- 0 0.0 3.0 38593 147 1 0x10 40 0
r 4.185096 2 0 ack 40 ------- 0 3.0 0.0 1 143 36985 0x18 40 0
+ 4.185816 2 0 ack 40 ------- 0 3.0 0.0 1 144 37521 0x18 40 0
- 4.185816 2 0 ack 40 ------- 0 3.0 0.0 1 144 37521 0x18 40 0
+ 4.190672 2 3 tcp 576 ------- 0 0.0 3.0 39129 148 1 0x10 40 0
- 4.190672 2 3 tcp 576 ------- 0 0.0 3.0 39129 148 1 0x10 40 0
r 4.190856 2 0 ack 40 ------- 0 3.0 0.0 1 144 37521 0x18 40 0
+ 4.191576 2 0 ack 40 ------- 0 3.0 0.0 1 145 38057 0x18 40 0
- 4.191576 2 0 ack 40 ------- 0 3.0 0.0 1 145 38057 0x18 40 0
+ 4.196432 2 3 tcp 576 ------- 0 0.0 3.0 39665 149 1 0x10 40 0
- 4.196432 2 3 tcp 576 ------- 0 0.0 3.0 39665 149 1 0x10 40 0
r 4.196616 2 0 ack 40 ------- 0 3.0 0.0 1 145 38057 0x18 40 0
+ 4.197336 2 0 ack 40 ------- 0 3.0 0.0 1 146 38593 0x18 40 0
- 4.197336 2 0 ack 40 ------- 0 3.0 0.0 1 146 38593 0x18 40 0
+ 4.202192 2 3 tcp 576 ------- 0 0.0 3.0 40201 150 1 0x10 40 0
- 4.202192 2 3 tcp 576 ------- 0 0.0 3.0 40201 150 1 0x10 40 0
r 4.202376 2 0 ack 40 ------- 0 3.0 0.0 1 146 38593 0x18 40 0
+ 4.207952 2 3 tcp 576 ------- 0 0.0 3.0 40737 151 1 0x10 40 0
- 4.207952 2 3 tcp 576 ------- 0 0.0 3.0 40737 151 1 0x10 40 0
r 4.290672 2 3 tcp 576 ------- 0 0.0 3.0 38593 147 1 0x10 40 0
r 4.296432 2 3 tcp 576 ------- 0 0.0 3.0 39129 148 1 0x10 40 0
r 4.302192 2 3 tcp 576 ------- 0 0.0 3.0 39665 149 1 0x10 40 0
r 4.307952 2 3 tcp 576 ------- 0 0.0 3.0 40201 150 1 0x10 40 0
r 4.313712 2 3 tcp 576 ------- 0 0.0 3.0 40737 151 1 0x10 40 0
+ 4.391072 2 0 ack 40 ------- 0 3.0 0.0 1 152 39129 0x18 40 0
- 4.391072 2 0 ack 40 ------- 0 3.0 0.0 1 152 39129 0x18 40 0
r 4.396112 2 0 ack 40 ------- 0 3.0 0.0 1 152 39129 0x18 40 0
+ 4.396832 2 0 ack 40 ------- 0 3.0 0.0 1 153 39665 0x18 40 0
- 4.396832 2 0 ack 40 ------- 0 3.0 0.0 1 153 39665 0x18 40 0
+ 4.401688 2 3 tcp 576 ------- 0 0.0 3.0 41273 157 1 0x10 40 0
- 4.401688 2 3 tcp 576 ------- 0 0.0 3.0 41273 157 1 0x10 40 0
r 4.401872 2 0 ack 40 ------- 0 3.0 0.0 1 153 39665 0x18 40 0
+ 4.402592 2 0 ack 40 ------- 0 3.0 0.0 1 154 40201 0x18 40 0
- 4.402592 2 0 ack 40 ------- 0 3.0 0.0 1 154 40201 0x18 40 0
+ 4.407448 2 3 tcp 576 ------- 0 0.0 3.0 41809 158 1 0x10 40 0
- 4.407448 2 3 tcp 576 ------- 0 0.0 3.0 41809 158 1 0x10 40 0
r 4.407632 2 0 ack 40 ------- 0 3.0 0.0 1 154 40201 0x18 40 0
+ 4.408352 2 0 ack 40 ------- 0 3.0 0.0 1 155 40737 0x18 40 0
- 4.408352 2 0 ack 40 ------- 0 3.0 0.0 1 155 40737 0x18 40 0
+ 4.413208 2 3 tcp 576 ------- 0 0.0 3.0 42345 159 1 0x10 40 0
- 4.413208 2 3 tcp 576 ------- 0 0.0 3.0 42345 159 1 0x10 40 0
r 4.413392 2 0 ack 40 ------- 0 3.0 0.0 1 155 40737 0x18 40 0
+ 4.414112 2 0 ack 40 ------- 0 3.0 0.0 1 156 41273 0x18 40 0
- 4.414112 2 0 ack 40 ------- 0 3.0 0.0 1 156 41273 0x18 40 0
+ 4.418968 2 3 tcp 576 ------- 0 0.0 3.0 42881 160 1 0x10 40 0
- 4.418968 2 3 tcp 576 ------- 0 0.0 3.0 42881 160 1 0x10 40 0
r 4.419152 2 0 ack 40 ------- 0 3.0 0.0 1 156 41273 0x18 40 0
+ 4.424728 2 3 tcp 576 ------- 0 0.0 3.0 43417 161 1 0x10 40 0
- 4.424728 2 3 tcp 576 ------- 0 0.0 3.0 43417 161 1 0x10 40 0
r 4.507448 2 3 tcp 576 ------- 0 0.0 3.0 41273 157 1 0x10 40 0
r 4.513208 2 3 tcp 576 ------- 0 0.0 3.0 41809 158 1 0x10 40 0
r 4.518968 2 3 tcp 576 ------- 0 0.0 3.0 42345 159 1 0x10 40 0
r 4.524728 2 3 tcp 576 ------- 0 0.0 3.0 42881 160 1 0x10 40 0
r 4.530488 2 3 tcp 576 ------- 0 0.0 3.0 43417 161 1 0x10 40 0
+ 4.607848 2 0 ack 40 ------- 0 3.0 0.0 1 162 41809 0x18 40 0
- 4.607848 2 0 ack 40 ------- 0 3.0 0.0 1 162 41809 0x18 40 0
r 4.612888 2 0 ack 40 ------- 0 3.0 0.0 1 162 41809 0x18 40 0