+ 0.7 0 2 tcp 40 ------- 0 0.0 4.0 0 0 -1 0xa 40 0
- 0.7 0 2 tcp 40 ------- 0 0.0 4.0 0 0 -1 0xa 40 0
r 0.701003 0 2 tcp 40 ------- 0 0.0 4.0 0 0 -1 0xa 40 0
+ 0.749677 2 3 tcp 40 ------- 0 0.0 4.0 0 0 -1 0xa 40 0
- 0.749677 2 3 tcp 40 ------- 0 0.0 4.0 0 0 -1 0xa 40 0
r 0.75068 2 3 tcp 40 ------- 0 0.0 4.0 0 0 -1 0xa 40 0
+ 0.759303 3 4 tcp 40 ------- 0 0.0 4.0 0 0 -1 0xa 40 0
- 0.759303 3 4 tcp 40 ------- 0 0.0 4.0 0 0 -1 0xa 40 0
r 0.760307 3 4 tcp 40 ------- 0 0.0 4.0 0 0 -1 0xa 40 0
+ 0.760307 4 3 ack 40 ------- 0 4.0 0.0 0 1 1 0x1a 40 0
- 0.760307 4 3 ack 40 ------- 0 4.0 0.0 0 1 1 0x1a 40 0
r 0.76131 4 3 ack 40 ------- 0 4.0 0.0 0 1 1 0x1a 40 0
+ 0.769933 3 2 ack 40 ------- 0 4.0 0.0 0 1 1 0x1a 40 0
- 0.769933 3 2 ack 40 ------- 0 4.0 0.0 0 1 1 0x1a 40 0
r 0.770936 3 2 ack 40 ------- 0 4.0 0.0 0 1 1 0x1a 40 0
+ 0.8 1 2 tcp 40 ------- 1 1.0 5.0 0 2 -1 0xa 40 0
- 0.8 1 2 tcp 40 ------- 1 1.0 5.0 0 2 -1 0xa 40 0
r 0.801003 1 2 tcp 40 ------- 1 1.0 5.0 0 2 -1 0xa 40 0
+ 0.81961 2 0 ack 40 ------- 0 4.0 0.0 0 1 1 0x1a 40 0
- 0.81961 2 0 ack 40 ------- 0 4.0 0.0 0 1 1 0x1a 40 0
r 0.820613 2 0 ack 40 ------- 0 4.0 0.0 0 1 1 0x1a 40 0
+ 0.820613 0 2 tcp 40 ------- 0 0.0 4.0 1 3 1 0x10 40 0
- 0.820613 0 2 tcp 40 ------- 0 0.0 4.0 1 3 1 0x10 40 0
+ 0.820613 0 2 tcp 576 ------- 0 0.0 4.0 1 4 1 0x10 40 0
+ 0.820613 0 2 tcp 576 ------- 0 0.0 4.0 537 5 1 0x10 40 0
- 0.820616 0 2 tcp 576 ------- 0 0.0 4.0 1 4 1 0x10 40 0
- 0.820663 0 2 tcp 576 ------- 0 0.0 4.0 537 5 1 0x10 40 0
r 0.821616 0 2 tcp 40 ------- 0 0.0 4.0 1 3 1 0x10 40 0
r 0.821663 0 2 tcp 576 ------- 0 0.0 4.0 1 4 1 0x10 40 0
r 0.821709 0 2 tcp 576 ------- 0 0.0 4.0 537 5 1 0x10 40 0
+ 0.830993 2 3 tcp 40 ------- 1 1.0 5.0 0 2 -1 0xa 40 0
- 0.830993 2 3 tcp 40 ------- 1 1.0 5.0 0 2 -1 0xa 40 0
r 0.831997 2 3 tcp 40 ------- 1 1.0 5.0 0 2 -1 0xa 40 0
+ 0.84564 3 5 tcp 40 ------- 1 1.0 5.0 0 2 -1 0xa 40 0
- 0.84564 3 5 tcp 40 ------- 1 1.0 5.0 0 2 -1 0xa 40 0
r 0.846643 3 5 tcp 40 ------- 1 1.0 5.0 0 2 -1 0xa 40 0
+ 0.846643 5 3 ack 40 ------- 1 5.0 1.0 0 6 1 0x1a 40 0
- 0.846643 5 3 ack 40 ------- 1 5.0 1.0 0 6 1 0x1a 40 0
r 0.847647 5 3 ack 40 ------- 1 5.0 1.0 0 6 1 0x1a 40 0
+ 0.86129 3 2 ack 40 ------- 1 5.0 1.0 0 6 1 0x1a 40 0
- 0.86129 3 2 ack 40 ------- 1 5.0 1.0 0 6 1 0x1a 40 0
r 0.862293 3 2 ack 40 ------- 1 5.0 1.0 0 6 1 0x1a 40 0
+ 0.870291 2 3 tcp 40 ------- 0 0.0 4.0 1 3 1 0x10 40 0
- 0.870291 2 3 tcp 40 ------- 0 0.0 4.0 1 3 1 0x10 40 0
+ 0.870337 2 3 tcp 576 ------- 0 0.0 4.0 1 4 1 0x10 40 0
- 0.870337 2 3 tcp 576 ------- 0 0.0 4.0 1 4 1 0x10 40 0
+ 0.870604 2 3 tcp 576 ------- 0 0.0 4.0 537 5 1 0x10 40 0
- 0.870604 2 3 tcp 576 ------- 0 0.0 4.0 537 5 1 0x10 40 0
r 0.871294 2 3 tcp 40 ------- 0 0.0 4.0 1 3 1 0x10 40 0
r 0.871383 2 3 tcp 576 ------- 0 0.0 4.0 1 4 1 0x10 40 0
r 0.87165 2 3 tcp 576 ------- 0 0.0 4.0 537 5 1 0x10 40 0
+ 0.879917 3 4 tcp 40 ------- 0 0.0 4.0 1 3 1 0x10 40 0
- 0.879917 3 4 tcp 40 ------- 0 0.0 4.0 1 3 1 0x10 40 0
+ 0.880006 3 4 tcp 576 ------- 0 0.0 4.0 1 4 1 0x10 40 0
- 0.880006 3 4 tcp 576 ------- 0 0.0 4.0 1 4 1 0x10 40 0
+ 0.880273 3 4 tcp 576 ------- 0 0.0 4.0 537 5 1 0x10 40 0
- 0.880273 3 4 tcp 576 ------- 0 0.0 4.0 537 5 1 0x10 40 0
r 0.88092 3 4 tcp 40 ------- 0 0.0 4.0 1 3 1 0x10 40 0
r 0.881052 3 4 tcp 576 ------- 0 0.0 4.0 1 4 1 0x10 40 0
+ 0.881052 4 3 ack 40 ------- 0 4.0 0.0 1 7 537 0x18 40 0
- 0.881052 4 3 ack 40 ------- 0 4.0 0.0 1 7 537 0x18 40 0
r 0.881319 3 4 tcp 576 ------- 0 0.0 4.0 537 5 1 0x10 40 0
+ 0.881319 4 3 ack 40 ------- 0 4.0 0.0 1 8 1073 0x18 40 0
- 0.881319 4 3 ack 40 ------- 0 4.0 0.0 1 8 1073 0x18 40 0
r 0.882055 4 3 ack 40 ------- 0 4.0 0.0 1 7 537 0x18 40 0
r 0.882322 4 3 ack 40 ------- 0 4.0 0.0 1 8 1073 0x18 40 0
+ 0.890678 3 2 ack 40 ------- 0 4.0 0.0 1 7 537 0x18 40 0
- 0.890678 3 2 ack 40 ------- 0 4.0 0.0 1 7 537 0x18 40 0
+ 0.890945 3 2 ack 40 ------- 0 4.0 0.0 1 8 1073 0x18 40 0
- 0.890945 3 2 ack 40 ------- 0 4.0 0.0 1 8 1073 0x18 40 0
r 0.891681 3 2 ack 40 ------- 0 4.0 0.0 1 7 537 0x18 40 0
r 0.891948 3 2 ack 40 ------- 0 4.0 0.0 1 8 1073 0x18 40 0
+ 0.892283 2 1 ack 40 ------- 1 5.0 1.0 0 6 1 0x1a 40 0
- 0.892283 2 1 ack 40 ------- 1 5.0 1.0 0 6 1 0x1a 40 0
r 0.893287 2 1 ack 40 ------- 1 5.0 1.0 0 6 1 0x1a 40 0
+ 0.893287 1 2 tcp 40 ------- 1 1.0 5.0 1 9 1 0x10 40 0
- 0.893287 1 2 tcp 40 ------- 1 1.0 5.0 1 9 1 0x10 40 0
+ 0.893287 1 2 tcp 576 ------- 1 1.0 5.0 1 10 1 0x10 40 0
+ 0.893287 1 2 tcp 576 ------- 1 1.0 5.0 537 11 1 0x10 40 0
- 0.89329 1 2 tcp 576 ------- 1 1.0 5.0 1 10 1 0x10 40 0
- 0.893336 1 2 tcp 576 ------- 1 1.0 5.0 537 11 1 0x10 40 0
r 0.89429 1 2 tcp 40 ------- 1 1.0 5.0 1 9 1 0x10 40 0
r 0.894336 1 2 tcp 576 ------- 1 1.0 5.0 1 10 1 0x10 40 0
r 0.894382 1 2 tcp 576 ------- 1 1.0 5.0 537 11 1 0x10 40 0
+ 0.92428 2 3 tcp 40 ------- 1 1.0 5.0 1 9 1 0x10 40 0
- 0.92428 2 3 tcp 40 ------- 1 1.0 5.0 1 9 1 0x10 40 0
+ 0.924329 2 3 tcp 576 ------- 1 1.0 5.0 1 10 1 0x10 40 0
- 0.924329 2 3 tcp 576 ------- 1 1.0 5.0 1 10 1 0x10 40 0
+ 0.925028 2 3 tcp 576 ------- 1 1.0 5.0 537 11 1 0x10 40 0
- 0.925028 2 3 tcp 576 ------- 1 1.0 5.0 537 11 1 0x10 40 0
r 0.925283 2 3 tcp 40 ------- 1 1.0 5.0 1 9 1 0x10 40 0
r 0.925375 2 3 tcp 576 ------- 1 1.0 5.0 1 10 1 0x10 40 0
r 0.926075 2 3 tcp 576 ------- 1 1.0 5.0 537 11 1 0x10 40 0
+ 0.938927 3 5 tcp 40 ------- 1 1.0 5.0 1 9 1 0x10 40 0
- 0.938927 3 5 tcp 40 ------- 1 1.0 5.0 1 9 1 0x10 40 0
+ 0.939018 3 5 tcp 576 ------- 1 1.0 5.0 1 10 1 0x10 40 0
- 0.939018 3 5 tcp 576 ------- 1 1.0 5.0 1 10 1 0x10 40 0
+ 0.939718 3 5 tcp 576 ------- 1 1.0 5.0 537 11 1 0x10 40 0
- 0.939718 3 5 tcp 576 ------- 1 1.0 5.0 537 11 1 0x10 40 0
r 0.93993 3 5 tcp 40 ------- 1 1.0 5.0 1 9 1 0x10 40 0
r 0.940064 3 5 tcp 576 ------- 1 1.0 5.0 1 10 1 0x10 40 0
+ 0.940064 5 3 ack 40 ------- 1 5.0 1.0 1 12 537 0x18 40 0
- 0.940064 5 3 ack 40 ------- 1 5.0 1.0 1 12 537 0x18 40 0
+ 0.940355 2 0 ack 40 ------- 0 4.0 0.0 1 7 537 0x18 40 0
- 0.940355 2 0 ack 40 ------- 0 4.0 0.0 1 7 537 0x18 40 0
+ 0.940622 2 0 ack 40 ------- 0 4.0 0.0 1 8 1073 0x18 40 0
- 0.940622 2 0 ack 40 ------- 0 4.0 0.0 1 8 1073 0x18 40 0
r 0.940764 3 5 tcp 576 ------- 1 1.0 5.0 537 11 1 0x10 40 0
+ 0.940764 5 3 ack 40 ------- 1 5.0 1.0 1 13 1073 0x18 40 0
- 0.940764 5 3 ack 40 ------- 1 5.0 1.0 1 13 1073 0x18 40 0
r 0.941068 5 3 ack 40 ------- 1 5.0 1.0 1 12 537 0x18 40 0
r 0.941358 2 0 ack 40 ------- 0 4.0 0.0 1 7 537 0x18 40 0
+ 0.941358 0 2 tcp 576 ------- 0 0.0 4.0 1073 14 1 0x10 40 0
- 0.941358 0 2 tcp 576 ------- 0 0.0 4.0 1073 14 1 0x10 40 0
+ 0.941358 0 2 tcp 576 ------- 0 0.0 4.0 1609 15 1 0x10 40 0
- 0.941404 0 2 tcp 576 ------- 0 0.0 4.0 1609 15 1 0x10 40 0
r 0.941625 2 0 ack 40 ------- 0 4.0 0.0 1 8 1073 0x18 40 0
+ 0.941625 0 2 tcp 576 ------- 0 0.0 4.0 2145 16 1 0x10 40 0
- 0.941625 0 2 tcp 576 ------- 0 0.0 4.0 2145 16 1 0x10 40 0
+ 0.941625 0 2 tcp 576 ------- 0 0.0 4.0 2681 17 1 0x10 40 0
- 0.941671 0 2 tcp 576 ------- 0 0.0 4.0 2681 17 1 0x10 40 0
r 0.941767 5 3 ack 40 ------- 1 5.0 1.0 1 13 1073 0x18 40 0
r 0.942404 0 2 tcp 576 ------- 0 0.0 4.0 1073 14 1 0x10 40 0
r 0.94245 0 2 tcp 576 ------- 0 0.0 4.0 1609 15 1 0x10 40 0
r 0.942671 0 2 tcp 576 ------- 0 0.0 4.0 2145 16 1 0x10 40 0
r 0.942718 0 2 tcp 576 ------- 0 0.0 4.0 2681 17 1 0x10 40 0
+ 0.954711 3 2 ack 40 ------- 1 5.0 1.0 1 12 537 0x18 40 0
- 0.954711 3 2 ack 40 ------- 1 5.0 1.0 1 12 537 0x18 40 0
+ 0.955411 3 2 ack 40 ------- 1 5.0 1.0 1 13 1073 0x18 40 0
- 0.955411 3 2 ack 40 ------- 1 5.0 1.0 1 13 1073 0x18 40 0
r 0.955714 3 2 ack 40 ------- 1 5.0 1.0 1 12 537 0x18 40 0
r 0.956414 3 2 ack 40 ------- 1 5.0 1.0 1 13 1073 0x18 40 0
+ 0.985704 2 1 ack 40 ------- 1 5.0 1.0 1 12 537 0x18 40 0
- 0.985704 2 1 ack 40 ------- 1 5.0 1.0 1 12 537 0x18 40 0
+ 0.986404 2 1 ack 40 ------- 1 5.0 1.0 1 13 1073 0x18 40 0
- 0.986404 2 1 ack 40 ------- 1 5.0 1.0 1 13 1073 0x18 40 0
r 0.986708 2 1 ack 40 ------- 1 5.0 1.0 1 12 537 0x18 40 0
+ 0.986708 1 2 tcp 576 ------- 1 1.0 5.0 1073 18 1 0x10 40 0
- 0.986708 1 2 tcp 576 ------- 1 1.0 5.0 1073 18 1 0x10 40 0
+ 0.986708 1 2 tcp 576 ------- 1 1.0 5.0 1609 19 1 0x10 40 0
- 0.986754 1 2 tcp 576 ------- 1 1.0 5.0 1609 19 1 0x10 40 0
r 0.987408 2 1 ack 40 ------- 1 5.0 1.0 1 13 1073 0x18 40 0
+ 0.987408 1 2 tcp 576 ------- 1 1.0 5.0 2145 20 1 0x10 40 0
- 0.987408 1 2 tcp 576 ------- 1 1.0 5.0 2145 20 1 0x10 40 0
+ 0.987408 1 2 tcp 576 ------- 1 1.0 5.0 2681 21 1 0x10 40 0
- 0.987454 1 2 tcp 576 ------- 1 1.0 5.0 2681 21 1 0x10 40 0
r 0.987754 1 2 tcp 576 ------- 1 1.0 5.0 1073 18 1 0x10 40 0
r 0.9878 1 2 tcp 576 ------- 1 1.0 5.0 1609 19 1 0x10 40 0
r 0.988454 1 2 tcp 576 ------- 1 1.0 5.0 2145 20 1 0x10 40 0
r 0.9885 1 2 tcp 576 ------- 1 1.0 5.0 2681 21 1 0x10 40 0
+ 0.991078 2 3 tcp 576 ------- 0 0.0 4.0 1073 14 1 0x10 40 0
- 0.991078 2 3 tcp 576 ------- 0 0.0 4.0 1073 14 1 0x10 40 0
+ 0.991346 2 3 tcp 576 ------- 0 0.0 4.0 1609 15 1 0x10 40 0
- 0.991346 2 3 tcp 576 ------- 0 0.0 4.0 1609 15 1 0x10 40 0
+ 0.991613 2 3 tcp 576 ------- 0 0.0 4.0 2145 16 1 0x10 40 0
- 0.991613 2 3 tcp 576 ------- 0 0.0 4.0 2145 16 1 0x10 40 0
+ 0.99188 2 3 tcp 576 ------- 0 0.0 4.0 2681 17 1 0x10 40 0
- 0.99188 2 3 tcp 576 ------- 0 0.0 4.0 2681 17 1 0x10 40 0
r 0.992125 2 3 tcp 576 ------- 0 0.0 4.0 1073 14 1 0x10 40 0
r 0.992392 2 3 tcp 576 ------- 0 0.0 4.0 1609 15 1 0x10 40 0
r 0.992659 2 3 tcp 576 ------- 0 0.0 4.0 2145 16 1 0x10 40 0
r 0.992926 2 3 tcp 576 ------- 0 0.0 4.0 2681 17 1 0x10 40 0
+ 1.000748 3 4 tcp 576 ------- 0 0.0 4.0 1073 14 1 0x10 40 0
- 1.000748 3 4 tcp 576 ------- 0 0.0 4.0 1073 14 1 0x10 40 0
+ 1.001015 3 4 tcp 576 ------- 0 0.0 4.0 1609 15 1 0x10 40 0
- 1.001015 3 4 tcp 576 ------- 0 0.0 4.0 1609 15 1 0x10 40 0
+ 1.001282 3 4 tcp 576 ------- 0 0.0 4.0 2145 16 1 0x10 40 0
- 1.001282 3 4 tcp 576 ------- 0 0.0 4.0 2145 16 1 0x10 40 0
+ 1.001549 3 4 tcp 576 ------- 0 0.0 4.0 2681 17 1 0x10 40 0
- 1.001549 3 4 tcp 576 ------- 0 0.0 4.0 2681 17 1 0x10 40 0
r 1.001794 3 4 tcp 576 ------- 0 0.0 4.0 1073 14 1 0x10 40 0
+ 1.001794 4 3 ack 40 ------- 0 4.0 0.0 1 22 1609 0x18 40 0
- 1.001794 4 3 ack 40 ------- 0 4.0 0.0 1 22 1609 0x18 40 0
r 1.002061 3 4 tcp 576 ------- 0 0.0 4.0 1609 15 1 0x10 40 0
+ 1.002061 4 3 ack 40 ------- 0 4.0 0.0 1 23 2145 0x18 40 0
- 1.002061 4 3 ack 40 ------- 0 4.0 0.0 1 23 2145 0x18 40 0
r 1.002328 3 4 tcp 576 ------- 0 0.0 4.0 2145 16 1 0x10 40 0
+ 1.002328 4 3 ack 40 ------- 0 4.0 0.0 1 24 2681 0x18 40 0
- 1.002328 4 3 ack 40 ------- 0 4.0 0.0 1 24 2681 0x18 40 0
r 1.002595 3 4 tcp 576 ------- 0 0.0 4.0 2681 17 1 0x10 40 0
+ 1.002595 4 3 ack 40 ------- 0 4.0 0.0 1 25 3217 0x18 40 0
- 1.002595 4 3 ack 40 ------- 0 4.0 0.0 1 25 3217 0x18 40 0
r 1.002797 4 3 ack 40 ------- 0 4.0 0.0 1 22 1609 0x18 40 0
r 1.003064 4 3 ack 40 ------- 0 4.0 0.0 1 23 2145 0x18 40 0
r 1.003331 4 3 ack 40 ------- 0 4.0 0.0 1 24 2681 0x18 40 0
r 1.003598 4 3 ack 40 ------- 0 4.0 0.0 1 25 3217 0x18 40 0
+ 1.01142 3 2 ack 40 ------- 0 4.0 0.0 1 22 1609 0x18 40 0
- 1.01142 3 2 ack 40 ------- 0 4.0 0.0 1 22 1609 0x18 40 0
+ 1.011687 3 2 ack 40 ------- 0 4.0 0.0 1 23 2145 0x18 40 0
- 1.011687 3 2 ack 40 ------- 0 4.0 0.0 1 23 2145 0x18 40 0
+ 1.011954 3 2 ack 40 ------- 0 4.0 0.0 1 24 2681 0x18 40 0
- 1.011954 3 2 ack 40 ------- 0 4.0 0.0 1 24 2681 0x18 40 0
+ 1.012221 3 2 ack 40 ------- 0 4.0 0.0 1 25 3217 0x18 40 0
- 1.012221 3 2 ack 40 ------- 0 4.0 0.0 1 25 3217 0x18 40 0
r 1.012423 3 2 ack 40 ------- 0 4.0 0.0 1 22 1609 0x18 40 0
r 1.01269 3 2 ack 40 ------- 0 4.0 0.0 1 23 2145 0x18 40 0
r 1.012957 3 2 ack 40 ------- 0 4.0 0.0 1 24 2681 0x18 40 0
r 1.013224 3 2 ack 40 ------- 0 4.0 0.0 1 25 3217 0x18 40 0
+ 1.017744 2 3 tcp 576 ------- 1 1.0 5.0 1073 18 1 0x10 40 0
- 1.017744 2 3 tcp 576 ------- 1 1.0 5.0 1073 18 1 0x10 40 0
+ 1.018444 2 3 tcp 576 ------- 1 1.0 5.0 1609 19 1 0x10 40 0
- 1.018444 2 3 tcp 576 ------- 1 1.0 5.0 1609 19 1 0x10 40 0
r 1.01879 2 3 tcp 576 ------- 1 1.0 5.0 1073 18 1 0x10 40 0
+ 1.019144 2 3 tcp 576 ------- 1 1.0 5.0 2145 20 1 0x10 40 0
- 1.019144 2 3 tcp 576 ------- 1 1.0 5.0 2145 20 1 0x10 40 0
r 1.01949 2 3 tcp 576 ------- 1 1.0 5.0 1609 19 1 0x10 40 0
+ 1.019844 2 3 tcp 576 ------- 1 1.0 5.0 2681 21 1 0x10 40 0
- 1.019844 2 3 tcp 576 ------- 1 1.0 5.0 2681 21 1 0x10 40 0
r 1.02019 2 3 tcp 576 ------- 1 1.0 5.0 2145 20 1 0x10 40 0
r 1.02089 2 3 tcp 576 ------- 1 1.0 5.0 2681 21 1 0x10 40 0
+ 1.032433 3 5 tcp 576 ------- 1 1.0 5.0 1073 18 1 0x10 40 0
- 1.032433 3 5 tcp 576 ------- 1 1.0 5.0 1073 18 1 0x10 40 0
+ 1.033133 3 5 tcp 576 ------- 1 1.0 5.0 1609 19 1 0x10 40 0
- 1.033133 3 5 tcp 576 ------- 1 1.0 5.0 1609 19 1 0x10 40 0
r 1.03348 3 5 tcp 576 ------- 1 1.0 5.0 1073 18 1 0x10 40 0
+ 1.03348 5 3 ack 40 ------- 1 5.0 1.0 1 26 1609 0x18 40 0
- 1.03348 5 3 ack 40 ------- 1 5.0 1.0 1 26 1609 0x18 40 0
+ 1.033833 3 5 tcp 576 ------- 1 1.0 5.0 2145 20 1 0x10 40 0
- 1.033833 3 5 tcp 576 ------- 1 1.0 5.0 2145 20 1 0x10 40 0
r 1.03418 3 5 tcp 576 ------- 1 1.0 5.0 1609 19 1 0x10 40 0
+ 1.03418 5 3 ack 40 ------- 1 5.0 1.0 1 27 2145 0x18 40 0
- 1.03418 5 3 ack 40 ------- 1 5.0 1.0 1 27 2145 0x18 40 0
r 1.034483 5 3 ack 40 ------- 1 5.0 1.0 1 26 1609 0x18 40 0
+ 1.034533 3 5 tcp 576 ------- 1 1.0 5.0 2681 21 1 0x10 40 0
- 1.034533 3 5 tcp 576 ------- 1 1.0 5.0 2681 21 1 0x10 40 0
r 1.034879 3 5 tcp 576 ------- 1 1.0 5.0 2145 20 1 0x10 40 0
+ 1.034879 5 3 ack 40 ------- 1 5.0 1.0 1 28 2681 0x18 40 0
- 1.034879 5 3 ack 40 ------- 1 5.0 1.0 1 28 2681 0x18 40 0
r 1.035183 5 3 ack 40 ------- 1 5.0 1.0 1 27 2145 0x18 40 0
r 1.035579 3 5 tcp 576 ------- 1 1.0 5.0 2681 21 1 0x10 40 0
+ 1.035579 5 3 ack 40 ------- 1 5.0 1.0 1 29 3217 0x18 40 0
- 1.035579 5 3 ack 40 ------- 1 5.0 1.0 1 29 3217 0x18 40 0
r 1.035883 5 3 ack 40 ------- 1 5.0 1.0 1 28 2681 0x18 40 0
r 1.036583 5 3 ack 40 ------- 1 5.0 1.0 1 29 3217 0x18 40 0
+ 1.048126 3 2 ack 40 ------- 1 5.0 1.0 1 26 1609 0x18 40 0
- 1.048126 3 2 ack 40 ------- 1 5.0 1.0 1 26 1609 0x18 40 0
+ 1.048826 3 2 ack 40 ------- 1 5.0 1.0 1 27 2145 0x18 40 0
- 1.048826 3 2 ack 40 ------- 1 5.0 1.0 1 27 2145 0x18 40 0
r 1.04913 3 2 ack 40 ------- 1 5.0 1.0 1 26 1609 0x18 40 0
+ 1.049526 3 2 ack 40 ------- 1 5.0 1.0 1 28 2681 0x18 40 0
- 1.049526 3 2 ack 40 ------- 1 5.0 1.0 1 28 2681 0x18 40 0
r 1.04983 3 2 ack 40 ------- 1 5.0 1.0 1 27 2145 0x18 40 0
+ 1.050226 3 2 ack 40 ------- 1 5.0 1.0 1 29 3217 0x18 40 0
- 1.050226 3 2 ack 40 ------- 1 5.0 1.0 1 29 3217 0x18 40 0
r 1.050529 3 2 ack 40 ------- 1 5.0 1.0 1 28 2681 0x18 40 0
r 1.051229 3 2 ack 40 ------- 1 5.0 1.0 1 29 3217 0x18 40 0
+ 1.061097 2 0 ack 40 ------- 0 4.0 0.0 1 22 1609 0x18 40 0
- 1.061097 2 0 ack 40 ------- 0 4.0 0.0 1 22 1609 0x18 40 0
+ 1.061364 2 0 ack 40 ------- 0 4.0 0.0 1 23 2145 0x18 40 0
- 1.061364 2 0 ack 40 ------- 0 4.0 0.0 1 23 2145 0x18 40 0
+ 1.061631 2 0 ack 40 ------- 0 4.0 0.0 1 24 2681 0x18 40 0
- 1.061631 2 0 ack 40 ------- 0 4.0 0.0 1 24 2681 0x18 40 0
+ 1.061898 2 0 ack 40 ------- 0 4.0 0.0 1 25 3217 0x18 40 0
- 1.061898 2 0 ack 40 ------- 0 4.0 0.0 1 25 3217 0x18 40 0
r 1.0621 2 0 ack 40 ------- 0 4.0 0.0 1 22 1609 0x18 40 0
+ 1.0621 0 2 tcp 576 ------- 0 0.0 4.0 3217 30 1 0x10 40 0
- 1.0621 0 2 tcp 576 ------- 0 0.0 4.0 3217 30 1 0x10 40 0
+ 1.0621 0 2 tcp 576 ------- 0 0.0 4.0 3753 31 1 0x10 40 0
- 1.062146 0 2 tcp 576 ------- 0 0.0 4.0 3753 31 1 0x10 40 0
r 1.062367 2 0 ack 40 ------- 0 4.0 0.0 1 23 2145 0x18 40 0
+ 1.062367 0 2 tcp 576 ------- 0 0.0 4.0 4289 32 1 0x10 40 0
- 1.062367 0 2 tcp 576 ------- 0 0.0 4.0 4289 32 1 0x10 40 0
+ 1.062367 0 2 tcp 576 ------- 0 0.0 4.0 4825 33 1 0x10 40 0
- 1.062413 0 2 tcp 576 ------- 0 0.0 4.0 4825 33 1 0x10 40 0
r 1.062634 2 0 ack 40 ------- 0 4.0 0.0 1 24 2681 0x18 40 0
+ 1.062634 0 2 tcp 576 ------- 0 0.0 4.0 5361 34 1 0x10 40 0
- 1.062634 0 2 tcp 576 ------- 0 0.0 4.0 5361 34 1 0x10 40 0
+ 1.062634 0 2 tcp 576 ------- 0 0.0 4.0 5897 35 1 0x10 40 0
- 1.06268 0 2 tcp 576 ------- 0 0.0 4.0 5897 35 1 0x10 40 0
r 1.062901 2 0 ack 40 ------- 0 4.0 0.0 1 25 3217 0x18 40 0
+ 1.062901 0 2 tcp 576 ------- 0 0.0 4.0 6433 36 1 0x10 40 0
- 1.062901 0 2 tcp 576 ------- 0 0.0 4.0 6433 36 1 0x10 40 0
+ 1.062901 0 2 tcp 576 ------- 0 0.0 4.0 6969 37 1 0x10 40 0
- 1.062948 0 2 tcp 576 ------- 0 0.0 4.0 6969 37 1 0x10 40 0
r 1.063146 0 2 tcp 576 ------- 0 0.0 4.0 3217 30 1 0x10 40 0
r 1.063192 0 2 tcp 576 ------- 0 0.0 4.0 3753 31 1 0x10 40 0
r 1.063413 0 2 tcp 576 ------- 0 0.0 4.0 4289 32 1 0x10 40 0
r 1.063459 0 2 tcp 576 ------- 0 0.0 4.0 4825 33 1 0x10 40 0
r 1.06368 0 2 tcp 576 ------- 0 0.0 4.0 5361 34 1 0x10 40 0
r 1.063727 0 2 tcp 576 ------- 0 0.0 4.0 5897 35 1 0x10 40 0
r 1.063948 0 2 tcp 576 ------- 0 0.0 4.0 6433 36 1 0x10 40 0
r 1.063994 0 2 tcp 576 ------- 0 0.0 4.0 6969 37 1 0x10 40 0
+ 1.07912 2 1 ack 40 ------- 1 5.0 1.0 1 26 1609 0x18 40 0
- 1.07912 2 1 ack 40 ------- 1 5.0 1.0 1 26 1609 0x18 40 0
+ 1.07982 2 1 ack 40 ------- 1 5.0 1.0 1 27 2145 0x18 40 0
- 1.07982 2 1 ack 40 ------- 1 5.0 1.0 1 27 2145 0x18 40 0
r 1.080123 2 1 ack 40 ------- 1 5.0 1.0 1 26 1609 0x18 40 0
+ 1.080123 1 2 tcp 576 ------- 1 1.0 5.0 3217 38 1 0x10 40 0
- 1.080123 1 2 tcp 576 ------- 1 1.0 5.0 3217 38 1 0x10 40 0
+ 1.080123 1 2 tcp 576 ------- 1 1.0 5.0 3753 39 1 0x10 40 0
- 1.080169 1 2 tcp 576 ------- 1 1.0 5.0 3753 39 1 0x10 40 0
+ 1.08052 2 1 ack 40 ------- 1 5.0 1.0 1 28 2681 0x18 40 0
- 1.08052 2 1 ack 40 ------- 1 5.0 1.0 1 28 2681 0x18 40 0
r 1.080823 2 1 ack 40 ------- 1 5.0 1.0 1 27 2145 0x18 40 0
+ 1.080823 1 2 tcp 576 ------- 1 1.0 5.0 4289 40 1 0x10 40 0
- 1.080823 1 2 tcp 576 ------- 1 1.0 5.0 4289 40 1 0x10 40 0
+ 1.080823 1 2 tcp 576 ------- 1 1.0 5.0 4825 41 1 0x10 40 0
- 1.080869 1 2 tcp 576 ------- 1 1.0 5.0 4825 41 1 0x10 40 0
r 1.081169 1 2 tcp 576 ------- 1 1.0 5.0 3217 38 1 0x10 40 0
r 1.081215 1 2 tcp 576 ------- 1 1.0 5.0 3753 39 1 0x10 40 0
+ 1.081219 2 1 ack 40 ------- 1 5.0 1.0 1 29 3217 0x18 40 0
- 1.081219 2 1 ack 40 ------- 1 5.0 1.0 1 29 3217 0x18 40 0
r 1.081523 2 1 ack 40 ------- 1 5.0 1.0 1 28 2681 0x18 40 0
+ 1.081523 1 2 tcp 576 ------- 1 1.0 5.0 5361 42 1 0x10 40 0
- 1.081523 1 2 tcp 576 ------- 1 1.0 5.0 5361 42 1 0x10 40 0
+ 1.081523 1 2 tcp 576 ------- 1 1.0 5.0 5897 43 1 0x10 40 0
- 1.081569 1 2 tcp 576 ------- 1 1.0 5.0 5897 43 1 0x10 40 0
r 1.081869 1 2 tcp 576 ------- 1 1.0 5.0 4289 40 1 0x10 40 0
r 1.081915 1 2 tcp 576 ------- 1 1.0 5.0 4825 41 1 0x10 40 0
r 1.082223 2 1 ack 40 ------- 1 5.0 1.0 1 29 3217 0x18 40 0
+ 1.082223 1 2 tcp 576 ------- 1 1.0 5.0 6433 44 1 0x10 40 0
- 1.082223 1 2 tcp 576 ------- 1 1.0 5.0 6433 44 1 0x10 40 0
+ 1.082223 1 2 tcp 576 ------- 1 1.0 5.0 6969 45 1 0x10 40 0
- 1.082269 1 2 tcp 576 ------- 1 1.0 5.0 6969 45 1 0x10 40 0
r 1.082569 1 2 tcp 576 ------- 1 1.0 5.0 5361 42 1 0x10 40 0
r 1.082615 1 2 tcp 576 ------- 1 1.0 5.0 5897 43 1 0x10 40 0
r 1.083269 1 2 tcp 576 ------- 1 1.0 5.0 6433 44 1 0x10 40 0
r 1.083315 1 2 tcp 576 ------- 1 1.0 5.0 6969 45 1 0x10 40 0
+ 1.111159 2 3 tcp 576 ------- 1 1.0 5.0 3217 38 1 0x10 40 0
- 1.111159 2 3 tcp 576 ------- 1 1.0 5.0 3217 38 1 0x10 40 0
+ 1.11182 2 3 tcp 576 ------- 0 0.0 4.0 3217 30 1 0x10 40 0
- 1.11182 2 3 tcp 576 ------- 0 0.0 4.0 3217 30 1 0x10 40 0
+ 1.111859 2 3 tcp 576 ------- 1 1.0 5.0 3753 39 1 0x10 40 0
- 1.111866 2 3 tcp 576 ------- 1 1.0 5.0 3753 39 1 0x10 40 0
+ 1.112087 2 3 tcp 576 ------- 0 0.0 4.0 3753 31 1 0x10 40 0
- 1.112087 2 3 tcp 576 ------- 0 0.0 4.0 3753 31 1 0x10 40 0
r 1.112205 2 3 tcp 576 ------- 1 1.0 5.0 3217 38 1 0x10 40 0
+ 1.112355 2 3 tcp 576 ------- 0 0.0 4.0 4289 32 1 0x10 40 0
- 1.112355 2 3 tcp 576 ------- 0 0.0 4.0 4289 32 1 0x10 40 0
+ 1.112559 2 3 tcp 576 ------- 1 1.0 5.0 4289 40 1 0x10 40 0
- 1.112559 2 3 tcp 576 ------- 1 1.0 5.0 4289 40 1 0x10 40 0
+ 1.112622 2 3 tcp 576 ------- 0 0.0 4.0 4825 33 1 0x10 40 0
- 1.112622 2 3 tcp 576 ------- 0 0.0 4.0 4825 33 1 0x10 40 0
r 1.112866 2 3 tcp 576 ------- 0 0.0 4.0 3217 30 1 0x10 40 0
+ 1.112889 2 3 tcp 576 ------- 0 0.0 4.0 5361 34 1 0x10 40 0
- 1.112889 2 3 tcp 576 ------- 0 0.0 4.0 5361 34 1 0x10 40 0
r 1.112913 2 3 tcp 576 ------- 1 1.0 5.0 3753 39 1 0x10 40 0
r 1.113134 2 3 tcp 576 ------- 0 0.0 4.0 3753 31 1 0x10 40 0
+ 1.113156 2 3 tcp 576 ------- 0 0.0 4.0 5897 35 1 0x10 40 0
- 1.113156 2 3 tcp 576 ------- 0 0.0 4.0 5897 35 1 0x10 40 0
+ 1.113259 2 3 tcp 576 ------- 1 1.0 5.0 4825 41 1 0x10 40 0
- 1.113259 2 3 tcp 576 ------- 1 1.0 5.0 4825 41 1 0x10 40 0
r 1.113401 2 3 tcp 576 ------- 0 0.0 4.0 4289 32 1 0x10 40 0
+ 1.113423 2 3 tcp 576 ------- 0 0.0 4.0 6433 36 1 0x10 40 0
- 1.113423 2 3 tcp 576 ------- 0 0.0 4.0 6433 36 1 0x10 40 0
r 1.113605 2 3 tcp 576 ------- 1 1.0 5.0 4289 40 1 0x10 40 0
r 1.113668 2 3 tcp 576 ------- 0 0.0 4.0 4825 33 1 0x10 40 0
+ 1.11369 2 3 tcp 576 ------- 0 0.0 4.0 6969 37 1 0x10 40 0
- 1.11369 2 3 tcp 576 ------- 0 0.0 4.0 6969 37 1 0x10 40 0
r 1.113935 2 3 tcp 576 ------- 0 0.0 4.0 5361 34 1 0x10 40 0
+ 1.113959 2 3 tcp 576 ------- 1 1.0 5.0 5361 42 1 0x10 40 0
- 1.113959 2 3 tcp 576 ------- 1 1.0 5.0 5361 42 1 0x10 40 0
r 1.114202 2 3 tcp 576 ------- 0 0.0 4.0 5897 35 1 0x10 40 0
r 1.114305 2 3 tcp 576 ------- 1 1.0 5.0 4825 41 1 0x10 40 0
r 1.114469 2 3 tcp 576 ------- 0 0.0 4.0 6433 36 1 0x10 40 0
+ 1.114659 2 3 tcp 576 ------- 1 1.0 5.0 5897 43 1 0x10 40 0
- 1.114659 2 3 tcp 576 ------- 1 1.0 5.0 5897 43 1 0x10 40 0
r 1.114736 2 3 tcp 576 ------- 0 0.0 4.0 6969 37 1 0x10 40 0
r 1.115005 2 3 tcp 576 ------- 1 1.0 5.0 5361 42 1 0x10 40 0
+ 1.115359 2 3 tcp 576 ------- 1 1.0 5.0 6433 44 1 0x10 40 0
- 1.115359 2 3 tcp 576 ------- 1 1.0 5.0 6433 44 1 0x10 40 0
r 1.115705 2 3 tcp 576 ------- 1 1.0 5.0 5897 43 1 0x10 40 0
+ 1.116059 2 3 tcp 576 ------- 1 1.0 5.0 6969 45 1 0x10 40 0
- 1.116059 2 3 tcp 576 ------- 1 1.0 5.0 6969 45 1 0x10 40 0
r 1.116405 2 3 tcp 576 ------- 1 1.0 5.0 6433 44 1 0x10 40 0
r 1.117105 2 3 tcp 576 ------- 1 1.0 5.0 6969 45 1 0x10 40 0
+ 1.121489 3 4 tcp 576 ------- 0 0.0 4.0 3217 30 1 0x10 40 0
- 1.121489 3 4 tcp 576 ------- 0 0.0 4.0 3217 30 1 0x10 40 0
+ 1.121756 3 4 tcp 576 ------- 0 0.0 4.0 3753 31 1 0x10 40 0
- 1.121756 3 4 tcp 576 ------- 0 0.0 4.0 3753 31 1 0x10 40 0
+ 1.122024 3 4 tcp 576 ------- 0 0.0 4.0 4289 32 1 0x10 40 0
- 1.122024 3 4 tcp 576 ------- 0 0.0 4.0 4289 32 1 0x10 40 0
+ 1.122291 3 4 tcp 576 ------- 0 0.0 4.0 4825 33 1 0x10 40 0
- 1.122291 3 4 tcp 576 ------- 0 0.0 4.0 4825 33 1 0x10 40 0
r 1.122535 3 4 tcp 576 ------- 0 0.0 4.0 3217 30 1 0x10 40 0
+ 1.122535 4 3 ack 40 ------- 0 4.0 0.0 1 46 3753 0x18 40 0
- 1.122535 4 3 ack 40 ------- 0 4.0 0.0 1 46 3753 0x18 40 0
+ 1.122558 3 4 tcp 576 ------- 0 0.0 4.0 5361 34 1 0x10 40 0
- 1.122558 3 4 tcp 576 ------- 0 0.0 4.0 5361 34 1 0x10 40 0
r 1.122803 3 4 tcp 576 ------- 0 0.0 4.0 3753 31 1 0x10 40 0
+ 1.122803 4 3 ack 40 ------- 0 4.0 0.0 1 47 4289 0x18 40 0
- 1.122803 4 3 ack 40 ------- 0 4.0 0.0 1 47 4289 0x18 40 0
+ 1.122825 3 4 tcp 576 ------- 0 0.0 4.0 5897 35 1 0x10 40 0
- 1.122825 3 4 tcp 576 ------- 0 0.0 4.0 5897 35 1 0x10 40 0
r 1.12307 3 4 tcp 576 ------- 0 0.0 4.0 4289 32 1 0x10 40 0
+ 1.12307 4 3 ack 40 ------- 0 4.0 0.0 1 48 4825 0x18 40 0
- 1.12307 4 3 ack 40 ------- 0 4.0 0.0 1 48 4825 0x18 40 0
+ 1.123092 3 4 tcp 576 ------- 0 0.0 4.0 6433 36 1 0x10 40 0
- 1.123092 3 4 tcp 576 ------- 0 0.0 4.0 6433 36 1 0x10 40 0
r 1.123337 3 4 tcp 576 ------- 0 0.0 4.0 4825 33 1 0x10 40 0
+ 1.123337 4 3 ack 40 ------- 0 4.0 0.0 1 49 5361 0x18 40 0
- 1.123337 4 3 ack 40 ------- 0 4.0 0.0 1 49 5361 0x18 40 0
+ 1.123359 3 4 tcp 576 ------- 0 0.0 4.0 6969 37 1 0x10 40 0
- 1.123359 3 4 tcp 576 ------- 0 0.0 4.0 6969 37 1 0x10 40 0
r 1.123539 4 3 ack 40 ------- 0 4.0 0.0 1 46 3753 0x18 40 0
r 1.123604 3 4 tcp 576 ------- 0 0.0 4.0 5361 34 1 0x10 40 0
+ 1.123604 4 3 ack 40 ------- 0 4.0 0.0 1 50 5897 0x18 40 0
- 1.123604 4 3 ack 40 ------- 0 4.0 0.0 1 50 5897 0x18 40 0
r 1.123806 4 3 ack 40 ------- 0 4.0 0.0 1 47 4289 0x18 40 0
r 1.123871 3 4 tcp 576 ------- 0 0.0 4.0 5897 35 1 0x10 40 0
+ 1.123871 4 3 ack 40 ------- 0 4.0 0.0 1 51 6433 0x18 40 0
- 1.123871 4 3 ack 40 ------- 0 4.0 0.0 1 51 6433 0x18 40 0
r 1.124073 4 3 ack 40 ------- 0 4.0 0.0 1 48 4825 0x18 40 0
r 1.124138 3 4 tcp 576 ------- 0 0.0 4.0 6433 36 1 0x10 40 0
+ 1.124138 4 3 ack 40 ------- 0 4.0 0.0 1 52 6969 0x18 40 0
- 1.124138 4 3 ack 40 ------- 0 4.0 0.0 1 52 6969 0x18 40 0
r 1.12434 4 3 ack 40 ------- 0 4.0 0.0 1 49 5361 0x18 40 0
r 1.124405 3 4 tcp 576 ------- 0 0.0 4.0 6969 37 1 0x10 40 0
+ 1.124405 4 3 ack 40 ------- 0 4.0 0.0 1 53 7505 0x18 40 0
- 1.124405 4 3 ack 40 ------- 0 4.0 0.0 1 53 7505 0x18 40 0
r 1.124607 4 3 ack 40 ------- 0 4.0 0.0 1 50 5897 0x18 40 0
r 1.124874 4 3 ack 40 ------- 0 4.0 0.0 1 51 6433 0x18 40 0
r 1.125141 4 3 ack 40 ------- 0 4.0 0.0 1 52 6969 0x18 40 0
r 1.125408 4 3 ack 40 ------- 0 4.0 0.0 1 53 7505 0x18 40 0
+ 1.125849 3 5 tcp 576 ------- 1 1.0 5.0 3217 38 1 0x10 40 0
- 1.125849 3 5 tcp 576 ------- 1 1.0 5.0 3217 38 1 0x10 40 0
+ 1.126556 3 5 tcp 576 ------- 1 1.0 5.0 3753 39 1 0x10 40 0
- 1.126556 3 5 tcp 576 ------- 1 1.0 5.0 3753 39 1 0x10 40 0
r 1.126895 3 5 tcp 576 ------- 1 1.0 5.0 3217 38 1 0x10 40 0
+ 1.126895 5 3 ack 40 ------- 1 5.0 1.0 1 54 3753 0x18 40 0
- 1.126895 5 3 ack 40 ------- 1 5.0 1.0 1 54 3753 0x18 40 0
+ 1.127249 3 5 tcp 576 ------- 1 1.0 5.0 4289 40 1 0x10 40 0
- 1.127249 3 5 tcp 576 ------- 1 1.0 5.0 4289 40 1 0x10 40 0
r 1.127602 3 5 tcp 576 ------- 1 1.0 5.0 3753 39 1 0x10 40 0
+ 1.127602 5 3 ack 40 ------- 1 5.0 1.0 1 55 4289 0x18 40 0
- 1.127602 5 3 ack 40 ------- 1 5.0 1.0 1 55 4289 0x18 40 0
r 1.127898 5 3 ack 40 ------- 1 5.0 1.0 1 54 3753 0x18 40 0
+ 1.127949 3 5 tcp 576 ------- 1 1.0 5.0 4825 41 1 0x10 40 0
- 1.127949 3 5 tcp 576 ------- 1 1.0 5.0 4825 41 1 0x10 40 0
r 1.128295 3 5 tcp 576 ------- 1 1.0 5.0 4289 40 1 0x10 40 0
+ 1.128295 5 3 ack 40 ------- 1 5.0 1.0 1 56 4825 0x18 40 0
- 1.128295 5 3 ack 40 ------- 1 5.0 1.0 1 56 4825 0x18 40 0
r 1.128605 5 3 ack 40 ------- 1 5.0 1.0 1 55 4289 0x18 40 0
+ 1.128648 3 5 tcp 576 ------- 1 1.0 5.0 5361 42 1 0x10 40 0
- 1.128648 3 5 tcp 576 ------- 1 1.0 5.0 5361 42 1 0x10 40 0
r 1.128995 3 5 tcp 576 ------- 1 1.0 5.0 4825 41 1 0x10 40 0
+ 1.128995 5 3 ack 40 ------- 1 5.0 1.0 1 57 5361 0x18 40 0
- 1.128995 5 3 ack 40 ------- 1 5.0 1.0 1 57 5361 0x18 40 0
r 1.129298 5 3 ack 40 ------- 1 5.0 1.0 1 56 4825 0x18 40 0
+ 1.129348 3 5 tcp 576 ------- 1 1.0 5.0 5897 43 1 0x10 40 0
- 1.129348 3 5 tcp 576 ------- 1 1.0 5.0 5897 43 1 0x10 40 0
r 1.129695 3 5 tcp 576 ------- 1 1.0 5.0 5361 42 1 0x10 40 0
+ 1.129695 5 3 ack 40 ------- 1 5.0 1.0 1 58 5897 0x18 40 0
- 1.129695 5 3 ack 40 ------- 1 5.0 1.0 1 58 5897 0x18 40 0
r 1.129998 5 3 ack 40 ------- 1 5.0 1.0 1 57 5361 0x18 40 0
+ 1.130048 3 5 tcp 576 ------- 1 1.0 5.0 6433 44 1 0x10 40 0
- 1.130048 3 5 tcp 576 ------- 1 1.0 5.0 6433 44 1 0x10 40 0
r 1.130394 3 5 tcp 576 ------- 1 1.0 5.0 5897 43 1 0x10 40 0
+ 1.130394 5 3 ack 40 ------- 1 5.0 1.0 1 59 6433 0x18 40 0
- 1.130394 5 3 ack 40 ------- 1 5.0 1.0 1 59 6433 0x18 40 0
r 1.130698 5 3 ack 40 ------- 1 5.0 1.0 1 58 5897 0x18 40 0
+ 1.130748 3 5 tcp 576 ------- 1 1.0 5.0 6969 45 1 0x10 40 0
- 1.130748 3 5 tcp 576 ------- 1 1.0 5.0 6969 45 1 0x10 40 0
r 1.131094 3 5 tcp 576 ------- 1 1.0 5.0 6433 44 1 0x10 40 0
+ 1.131094 5 3 ack 40 ------- 1 5.0 1.0 1 60 6969 0x18 40 0
- 1.131094 5 3 ack 40 ------- 1 5.0 1.0 1 60 6969 0x18 40 0
r 1.131398 5 3 ack 40 ------- 1 5.0 1.0 1 59 6433 0x18 40 0
r 1.131794 3 5 tcp 576 ------- 1 1.0 5.0 6969 45 1 0x10 40 0
+ 1.131794 5 3 ack 40 ------- 1 5.0 1.0 1 61 7505 0x18 40 0
- 1.131794 5 3 ack 40 ------- 1 5.0 1.0 1 61 7505 0x18 40 0
r 1.132098 5 3 ack 40 ------- 1 5.0 1.0 1 60 6969 0x18 40 0
+ 1.132162 3 2 ack 40 ------- 0 4.0 0.0 1 46 3753 0x18 40 0
- 1.132162 3 2 ack 40 ------- 0 4.0 0.0 1 46 3753 0x18 40 0
+ 1.132429 3 2 ack 40 ------- 0 4.0 0.0 1 47 4289 0x18 40 0
- 1.132429 3 2 ack 40 ------- 0 4.0 0.0 1 47 4289 0x18 40 0
+ 1.132696 3 2 ack 40 ------- 0 4.0 0.0 1 48 4825 0x18 40 0
- 1.132696 3 2 ack 40 ------- 0 4.0 0.0 1 48 4825 0x18 40 0
r 1.132798 5 3 ack 40 ------- 1 5.0 1.0 1 61 7505 0x18 40 0
+ 1.132963 3 2 ack 40 ------- 0 4.0 0.0 1 49 5361 0x18 40 0
- 1.132963 3 2 ack 40 ------- 0 4.0 0.0 1 49 5361 0x18 40 0
r 1.133165 3 2 ack 40 ------- 0 4.0 0.0 1 46 3753 0x18 40 0
+ 1.13323 3 2 ack 40 ------- 0 4.0 0.0 1 50 5897 0x18 40 0
- 1.13323 3 2 ack 40 ------- 0 4.0 0.0 1 50 5897 0x18 40 0
r 1.133432 3 2 ack 40 ------- 0 4.0 0.0 1 47 4289 0x18 40 0
+ 1.133497 3 2 ack 40 ------- 0 4.0 0.0 1 51 6433 0x18 40 0
- 1.133497 3 2 ack 40 ------- 0 4.0 0.0 1 51 6433 0x18 40 0
r 1.133699 3 2 ack 40 ------- 0 4.0 0.0 1 48 4825 0x18 40 0
+ 1.133764 3 2 ack 40 ------- 0 4.0 0.0 1 52 6969 0x18 40 0
- 1.133764 3 2 ack 40 ------- 0 4.0 0.0 1 52 6969 0x18 40 0
r 1.133966 3 2 ack 40 ------- 0 4.0 0.0 1 49 5361 0x18 40 0
+ 1.134031 3 2 ack 40 ------- 0 4.0 0.0 1 53 7505 0x18 40 0
- 1.134031 3 2 ack 40 ------- 0 4.0 0.0 1 53 7505 0x18 40 0
r 1.134233 3 2 ack 40 ------- 0 4.0 0.0 1 50 5897 0x18 40 0
r 1.1345 3 2 ack 40 ------- 0 4.0 0.0 1 51 6433 0x18 40 0
r 1.134767 3 2 ack 40 ------- 0 4.0 0.0 1 52 6969 0x18 40 0
r 1.135034 3 2 ack 40 ------- 0 4.0 0.0 1 53 7505 0x18 40 0
+ 1.141542 3 2 ack 40 ------- 1 5.0 1.0 1 54 3753 0x18 40 0
- 1.141542 3 2 ack 40 ------- 1 5.0 1.0 1 54 3753 0x18 40 0
+ 1.142249 3 2 ack 40 ------- 1 5.0 1.0 1 55 4289 0x18 40 0
- 1.142249 3 2 ack 40 ------- 1 5.0 1.0 1 55 4289 0x18 40 0
r 1.142545 3 2 ack 40 ------- 1 5.0 1.0 1 54 3753 0x18 40 0
+ 1.142942 3 2 ack 40 ------- 1 5.0 1.0 1 56 4825 0x18 40 0
- 1.142942 3 2 ack 40 ------- 1 5.0 1.0 1 56 4825 0x18 40 0
r 1.143252 3 2 ack 40 ------- 1 5.0 1.0 1 55 4289 0x18 40 0
+ 1.143641 3 2 ack 40 ------- 1 5.0 1.0 1 57 5361 0x18 40 0
- 1.143641 3 2 ack 40 ------- 1 5.0 1.0 1 57 5361 0x18 40 0
r 1.143945 3 2 ack 40 ------- 1 5.0 1.0 1 56 4825 0x18 40 0
+ 1.144341 3 2 ack 40 ------- 1 5.0 1.0 1 58 5897 0x18 40 0
- 1.144341 3 2 ack 40 ------- 1 5.0 1.0 1 58 5897 0x18 40 0
r 1.144645 3 2 ack 40 ------- 1 5.0 1.0 1 57 5361 0x18 40 0
+ 1.145041 3 2 ack 40 ------- 1 5.0 1.0 1 59 6433 0x18 40 0
- 1.145041 3 2 ack 40 ------- 1 5.0 1.0 1 59 6433 0x18 40 0