+ 0.7 0 2 tcp 40 ------- 0 0.0 4.0 0 0 -1 0xa 40 0
- 0.7 0 2 tcp 40 ------- 0 0.0 4.0 0 0 -1 0xa 40 0
r 0.701003 0 2 tcp 40 ------- 0 0.0 4.0 0 0 -1 0xa 40 0
+ 0.749677 2 3 tcp 40 ------- 0 0.0 4.0 0 0 -1 0xa 40 0
- 0.749677 2 3 tcp 40 ------- 0 0.0 4.0 0 0 -1 0xa 40 0
r 0.75068 2 3 tcp 40 ------- 0 0.0 4.0 0 0 -1 0xa 40 0
+ 0.759303 3 4 tcp 40 ------- 0 0.0 4.0 0 0 -1 0xa 40 0
- 0.759303 3 4 tcp 40 ------- 0 0.0 4.0 0 0 -1 0xa 40 0
r 0.760307 3 4 tcp 40 ------- 0 0.0 4.0 0 0 -1 0xa 40 0
+ 0.760307 4 3 ack 40 ------- 0 4.0 0.0 0 1 1 0x1a 40 0
- 0.760307 4 3 ack 40 ------- 0 4.0 0.0 0 1 1 0x1a 40 0
r 0.76131 4 3 ack 40 ------- 0 4.0 0.0 0 1 1 0x1a 40 0
+ 0.76131 3 2 ack 40 ------- 0 4.0 0.0 0 1 1 0x1a 40 0
- 0.76131 3 2 ack 40 ------- 0 4.0 0.0 0 1 1 0x1a 40 0
r 0.762313 3 2 ack 40 ------- 0 4.0 0.0 0 1 1 0x1a 40 0
+ 0.762313 2 0 ack 40 ------- 0 4.0 0.0 0 1 1 0x1a 40 0
- 0.762313 2 0 ack 40 ------- 0 4.0 0.0 0 1 1 0x1a 40 0
r 0.763316 2 0 ack 40 ------- 0 4.0 0.0 0 1 1 0x1a 40 0
+ 0.763316 0 2 tcp 40 ------- 0 0.0 4.0 1 2 1 0x10 40 0
- 0.763316 0 2 tcp 40 ------- 0 0.0 4.0 1 2 1 0x10 40 0
+ 0.763316 0 2 tcp 576 ------- 0 0.0 4.0 1 3 1 0x10 40 0
+ 0.763316 0 2 tcp 576 ------- 0 0.0 4.0 537 4 1 0x10 40 0
- 0.763319 0 2 tcp 576 ------- 0 0.0 4.0 1 3 1 0x10 40 0
- 0.763366 0 2 tcp 576 ------- 0 0.0 4.0 537 4 1 0x10 40 0
r 0.764319 0 2 tcp 40 ------- 0 0.0 4.0 1 2 1 0x10 40 0
r 0.764366 0 2 tcp 576 ------- 0 0.0 4.0 1 3 1 0x10 40 0
r 0.764412 0 2 tcp 576 ------- 0 0.0 4.0 537 4 1 0x10 40 0
+ 0.8 1 2 tcp 40 ------- 1 1.0 5.0 0 5 -1 0xa 40 0
- 0.8 1 2 tcp 40 ------- 1 1.0 5.0 0 5 -1 0xa 40 0
r 0.801003 1 2 tcp 40 ------- 1 1.0 5.0 0 5 -1 0xa 40 0
+ 0.812993 2 3 tcp 40 ------- 0 0.0 4.0 1 2 1 0x10 40 0
- 0.812993 2 3 tcp 40 ------- 0 0.0 4.0 1 2 1 0x10 40 0
+ 0.81304 2 3 tcp 576 ------- 0 0.0 4.0 1 3 1 0x10 40 0
- 0.81304 2 3 tcp 576 ------- 0 0.0 4.0 1 3 1 0x10 40 0
+ 0.813307 2 3 tcp 576 ------- 0 0.0 4.0 537 4 1 0x10 40 0
- 0.813307 2 3 tcp 576 ------- 0 0.0 4.0 537 4 1 0x10 40 0
r 0.813997 2 3 tcp 40 ------- 0 0.0 4.0 1 2 1 0x10 40 0
r 0.814086 2 3 tcp 576 ------- 0 0.0 4.0 1 3 1 0x10 40 0
r 0.814353 2 3 tcp 576 ------- 0 0.0 4.0 537 4 1 0x10 40 0
+ 0.82262 3 4 tcp 40 ------- 0 0.0 4.0 1 2 1 0x10 40 0
- 0.82262 3 4 tcp 40 ------- 0 0.0 4.0 1 2 1 0x10 40 0
+ 0.822709 3 4 tcp 576 ------- 0 0.0 4.0 1 3 1 0x10 40 0
- 0.822709 3 4 tcp 576 ------- 0 0.0 4.0 1 3 1 0x10 40 0
+ 0.822976 3 4 tcp 576 ------- 0 0.0 4.0 537 4 1 0x10 40 0
- 0.822976 3 4 tcp 576 ------- 0 0.0 4.0 537 4 1 0x10 40 0
r 0.823623 3 4 tcp 40 ------- 0 0.0 4.0 1 2 1 0x10 40 0
r 0.823755 3 4 tcp 576 ------- 0 0.0 4.0 1 3 1 0x10 40 0
+ 0.823755 4 3 ack 40 ------- 0 4.0 0.0 1 6 537 0x18 40 0
- 0.823755 4 3 ack 40 ------- 0 4.0 0.0 1 6 537 0x18 40 0
r 0.824022 3 4 tcp 576 ------- 0 0.0 4.0 537 4 1 0x10 40 0
+ 0.824022 4 3 ack 40 ------- 0 4.0 0.0 1 7 1073 0x18 40 0
- 0.824022 4 3 ack 40 ------- 0 4.0 0.0 1 7 1073 0x18 40 0
r 0.824758 4 3 ack 40 ------- 0 4.0 0.0 1 6 537 0x18 40 0
+ 0.824758 3 2 ack 40 ------- 0 4.0 0.0 1 6 537 0x18 40 0
- 0.824758 3 2 ack 40 ------- 0 4.0 0.0 1 6 537 0x18 40 0
r 0.825025 4 3 ack 40 ------- 0 4.0 0.0 1 7 1073 0x18 40 0
+ 0.825025 3 2 ack 40 ------- 0 4.0 0.0 1 7 1073 0x18 40 0
- 0.825025 3 2 ack 40 ------- 0 4.0 0.0 1 7 1073 0x18 40 0
r 0.825761 3 2 ack 40 ------- 0 4.0 0.0 1 6 537 0x18 40 0
+ 0.825761 2 0 ack 40 ------- 0 4.0 0.0 1 6 537 0x18 40 0
- 0.825761 2 0 ack 40 ------- 0 4.0 0.0 1 6 537 0x18 40 0
r 0.826028 3 2 ack 40 ------- 0 4.0 0.0 1 7 1073 0x18 40 0
+ 0.826028 2 0 ack 40 ------- 0 4.0 0.0 1 7 1073 0x18 40 0
- 0.826028 2 0 ack 40 ------- 0 4.0 0.0 1 7 1073 0x18 40 0
r 0.826764 2 0 ack 40 ------- 0 4.0 0.0 1 6 537 0x18 40 0
+ 0.826764 0 2 tcp 576 ------- 0 0.0 4.0 1073 8 1 0x10 40 0
- 0.826764 0 2 tcp 576 ------- 0 0.0 4.0 1073 8 1 0x10 40 0
+ 0.826764 0 2 tcp 576 ------- 0 0.0 4.0 1609 9 1 0x10 40 0
- 0.82681 0 2 tcp 576 ------- 0 0.0 4.0 1609 9 1 0x10 40 0
r 0.827031 2 0 ack 40 ------- 0 4.0 0.0 1 7 1073 0x18 40 0
+ 0.827031 0 2 tcp 576 ------- 0 0.0 4.0 2145 10 1 0x10 40 0
- 0.827031 0 2 tcp 576 ------- 0 0.0 4.0 2145 10 1 0x10 40 0
+ 0.827031 0 2 tcp 576 ------- 0 0.0 4.0 2681 11 1 0x10 40 0
- 0.827077 0 2 tcp 576 ------- 0 0.0 4.0 2681 11 1 0x10 40 0
r 0.82781 0 2 tcp 576 ------- 0 0.0 4.0 1073 8 1 0x10 40 0
r 0.827856 0 2 tcp 576 ------- 0 0.0 4.0 1609 9 1 0x10 40 0
r 0.828077 0 2 tcp 576 ------- 0 0.0 4.0 2145 10 1 0x10 40 0
r 0.828124 0 2 tcp 576 ------- 0 0.0 4.0 2681 11 1 0x10 40 0
+ 0.830993 2 3 tcp 40 ------- 1 1.0 5.0 0 5 -1 0xa 40 0
- 0.830993 2 3 tcp 40 ------- 1 1.0 5.0 0 5 -1 0xa 40 0
r 0.831997 2 3 tcp 40 ------- 1 1.0 5.0 0 5 -1 0xa 40 0
+ 0.84564 3 5 tcp 40 ------- 1 1.0 5.0 0 5 -1 0xa 40 0
- 0.84564 3 5 tcp 40 ------- 1 1.0 5.0 0 5 -1 0xa 40 0
r 0.846643 3 5 tcp 40 ------- 1 1.0 5.0 0 5 -1 0xa 40 0
+ 0.846643 5 3 ack 40 ------- 1 5.0 1.0 0 12 1 0x1a 40 0
- 0.846643 5 3 ack 40 ------- 1 5.0 1.0 0 12 1 0x1a 40 0
r 0.847647 5 3 ack 40 ------- 1 5.0 1.0 0 12 1 0x1a 40 0
+ 0.847647 3 2 ack 40 ------- 1 5.0 1.0 0 12 1 0x1a 40 0
- 0.847647 3 2 ack 40 ------- 1 5.0 1.0 0 12 1 0x1a 40 0
r 0.84865 3 2 ack 40 ------- 1 5.0 1.0 0 12 1 0x1a 40 0
+ 0.84865 2 1 ack 40 ------- 1 5.0 1.0 0 12 1 0x1a 40 0
- 0.84865 2 1 ack 40 ------- 1 5.0 1.0 0 12 1 0x1a 40 0
r 0.849653 2 1 ack 40 ------- 1 5.0 1.0 0 12 1 0x1a 40 0
+ 0.849653 1 2 tcp 40 ------- 1 1.0 5.0 1 13 1 0x10 40 0
- 0.849653 1 2 tcp 40 ------- 1 1.0 5.0 1 13 1 0x10 40 0
+ 0.849653 1 2 tcp 576 ------- 1 1.0 5.0 1 14 1 0x10 40 0
+ 0.849653 1 2 tcp 576 ------- 1 1.0 5.0 537 15 1 0x10 40 0
- 0.849656 1 2 tcp 576 ------- 1 1.0 5.0 1 14 1 0x10 40 0
- 0.849702 1 2 tcp 576 ------- 1 1.0 5.0 537 15 1 0x10 40 0
r 0.850656 1 2 tcp 40 ------- 1 1.0 5.0 1 13 1 0x10 40 0
r 0.850702 1 2 tcp 576 ------- 1 1.0 5.0 1 14 1 0x10 40 0
r 0.850748 1 2 tcp 576 ------- 1 1.0 5.0 537 15 1 0x10 40 0
+ 0.876484 2 3 tcp 576 ------- 0 0.0 4.0 1073 8 1 0x10 40 0
- 0.876484 2 3 tcp 576 ------- 0 0.0 4.0 1073 8 1 0x10 40 0
+ 0.876752 2 3 tcp 576 ------- 0 0.0 4.0 1609 9 1 0x10 40 0
- 0.876752 2 3 tcp 576 ------- 0 0.0 4.0 1609 9 1 0x10 40 0
+ 0.877019 2 3 tcp 576 ------- 0 0.0 4.0 2145 10 1 0x10 40 0
- 0.877019 2 3 tcp 576 ------- 0 0.0 4.0 2145 10 1 0x10 40 0
+ 0.877286 2 3 tcp 576 ------- 0 0.0 4.0 2681 11 1 0x10 40 0
- 0.877286 2 3 tcp 576 ------- 0 0.0 4.0 2681 11 1 0x10 40 0
r 0.877531 2 3 tcp 576 ------- 0 0.0 4.0 1073 8 1 0x10 40 0
r 0.877798 2 3 tcp 576 ------- 0 0.0 4.0 1609 9 1 0x10 40 0
r 0.878065 2 3 tcp 576 ------- 0 0.0 4.0 2145 10 1 0x10 40 0
r 0.878332 2 3 tcp 576 ------- 0 0.0 4.0 2681 11 1 0x10 40 0
+ 0.880646 2 3 tcp 40 ------- 1 1.0 5.0 1 13 1 0x10 40 0
- 0.880646 2 3 tcp 40 ------- 1 1.0 5.0 1 13 1 0x10 40 0
+ 0.880692 2 3 tcp 576 ------- 1 1.0 5.0 1 14 1 0x10 40 0
- 0.880692 2 3 tcp 576 ------- 1 1.0 5.0 1 14 1 0x10 40 0
+ 0.881159 2 3 tcp 576 ------- 1 1.0 5.0 537 15 1 0x10 40 0
- 0.881159 2 3 tcp 576 ------- 1 1.0 5.0 537 15 1 0x10 40 0
r 0.881649 2 3 tcp 40 ------- 1 1.0 5.0 1 13 1 0x10 40 0
r 0.881738 2 3 tcp 576 ------- 1 1.0 5.0 1 14 1 0x10 40 0
r 0.882205 2 3 tcp 576 ------- 1 1.0 5.0 537 15 1 0x10 40 0
+ 0.886153 3 4 tcp 576 ------- 0 0.0 4.0 1073 8 1 0x10 40 0
- 0.886153 3 4 tcp 576 ------- 0 0.0 4.0 1073 8 1 0x10 40 0
+ 0.886421 3 4 tcp 576 ------- 0 0.0 4.0 1609 9 1 0x10 40 0
- 0.886421 3 4 tcp 576 ------- 0 0.0 4.0 1609 9 1 0x10 40 0
+ 0.886688 3 4 tcp 576 ------- 0 0.0 4.0 2145 10 1 0x10 40 0
- 0.886688 3 4 tcp 576 ------- 0 0.0 4.0 2145 10 1 0x10 40 0
+ 0.886955 3 4 tcp 576 ------- 0 0.0 4.0 2681 11 1 0x10 40 0
- 0.886955 3 4 tcp 576 ------- 0 0.0 4.0 2681 11 1 0x10 40 0
r 0.8872 3 4 tcp 576 ------- 0 0.0 4.0 1073 8 1 0x10 40 0
+ 0.8872 4 3 ack 40 ------- 0 4.0 0.0 1 16 1609 0x18 40 0
- 0.8872 4 3 ack 40 ------- 0 4.0 0.0 1 16 1609 0x18 40 0
r 0.887467 3 4 tcp 576 ------- 0 0.0 4.0 1609 9 1 0x10 40 0
+ 0.887467 4 3 ack 40 ------- 0 4.0 0.0 1 17 2145 0x18 40 0
- 0.887467 4 3 ack 40 ------- 0 4.0 0.0 1 17 2145 0x18 40 0
r 0.887734 3 4 tcp 576 ------- 0 0.0 4.0 2145 10 1 0x10 40 0
+ 0.887734 4 3 ack 40 ------- 0 4.0 0.0 1 18 2681 0x18 40 0
- 0.887734 4 3 ack 40 ------- 0 4.0 0.0 1 18 2681 0x18 40 0
r 0.888001 3 4 tcp 576 ------- 0 0.0 4.0 2681 11 1 0x10 40 0
+ 0.888001 4 3 ack 40 ------- 0 4.0 0.0 1 19 3217 0x18 40 0
- 0.888001 4 3 ack 40 ------- 0 4.0 0.0 1 19 3217 0x18 40 0
r 0.888203 4 3 ack 40 ------- 0 4.0 0.0 1 16 1609 0x18 40 0
+ 0.888203 3 2 ack 40 ------- 0 4.0 0.0 1 16 1609 0x18 40 0
- 0.888203 3 2 ack 40 ------- 0 4.0 0.0 1 16 1609 0x18 40 0
r 0.88847 4 3 ack 40 ------- 0 4.0 0.0 1 17 2145 0x18 40 0
+ 0.88847 3 2 ack 40 ------- 0 4.0 0.0 1 17 2145 0x18 40 0
- 0.88847 3 2 ack 40 ------- 0 4.0 0.0 1 17 2145 0x18 40 0
r 0.888737 4 3 ack 40 ------- 0 4.0 0.0 1 18 2681 0x18 40 0
+ 0.888737 3 2 ack 40 ------- 0 4.0 0.0 1 18 2681 0x18 40 0
- 0.888737 3 2 ack 40 ------- 0 4.0 0.0 1 18 2681 0x18 40 0
r 0.889004 4 3 ack 40 ------- 0 4.0 0.0 1 19 3217 0x18 40 0
+ 0.889004 3 2 ack 40 ------- 0 4.0 0.0 1 19 3217 0x18 40 0
- 0.889004 3 2 ack 40 ------- 0 4.0 0.0 1 19 3217 0x18 40 0
r 0.889206 3 2 ack 40 ------- 0 4.0 0.0 1 16 1609 0x18 40 0
+ 0.889206 2 0 ack 40 ------- 0 4.0 0.0 1 16 1609 0x18 40 0
- 0.889206 2 0 ack 40 ------- 0 4.0 0.0 1 16 1609 0x18 40 0
r 0.889473 3 2 ack 40 ------- 0 4.0 0.0 1 17 2145 0x18 40 0
+ 0.889473 2 0 ack 40 ------- 0 4.0 0.0 1 17 2145 0x18 40 0
- 0.889473 2 0 ack 40 ------- 0 4.0 0.0 1 17 2145 0x18 40 0
r 0.88974 3 2 ack 40 ------- 0 4.0 0.0 1 18 2681 0x18 40 0
+ 0.88974 2 0 ack 40 ------- 0 4.0 0.0 1 18 2681 0x18 40 0
- 0.88974 2 0 ack 40 ------- 0 4.0 0.0 1 18 2681 0x18 40 0
r 0.890007 3 2 ack 40 ------- 0 4.0 0.0 1 19 3217 0x18 40 0
+ 0.890007 2 0 ack 40 ------- 0 4.0 0.0 1 19 3217 0x18 40 0
- 0.890007 2 0 ack 40 ------- 0 4.0 0.0 1 19 3217 0x18 40 0
r 0.890209 2 0 ack 40 ------- 0 4.0 0.0 1 16 1609 0x18 40 0
+ 0.890209 0 2 tcp 576 ------- 0 0.0 4.0 3217 20 1 0x10 40 0
- 0.890209 0 2 tcp 576 ------- 0 0.0 4.0 3217 20 1 0x10 40 0
+ 0.890209 0 2 tcp 576 ------- 0 0.0 4.0 3753 21 1 0x10 40 0
- 0.890255 0 2 tcp 576 ------- 0 0.0 4.0 3753 21 1 0x10 40 0
r 0.890476 2 0 ack 40 ------- 0 4.0 0.0 1 17 2145 0x18 40 0
+ 0.890476 0 2 tcp 576 ------- 0 0.0 4.0 4289 22 1 0x10 40 0
- 0.890476 0 2 tcp 576 ------- 0 0.0 4.0 4289 22 1 0x10 40 0
+ 0.890476 0 2 tcp 576 ------- 0 0.0 4.0 4825 23 1 0x10 40 0
- 0.890522 0 2 tcp 576 ------- 0 0.0 4.0 4825 23 1 0x10 40 0
r 0.890743 2 0 ack 40 ------- 0 4.0 0.0 1 18 2681 0x18 40 0
+ 0.890743 0 2 tcp 576 ------- 0 0.0 4.0 5361 24 1 0x10 40 0
- 0.890743 0 2 tcp 576 ------- 0 0.0 4.0 5361 24 1 0x10 40 0
+ 0.890743 0 2 tcp 576 ------- 0 0.0 4.0 5897 25 1 0x10 40 0
- 0.890789 0 2 tcp 576 ------- 0 0.0 4.0 5897 25 1 0x10 40 0
r 0.89101 2 0 ack 40 ------- 0 4.0 0.0 1 19 3217 0x18 40 0
+ 0.89101 0 2 tcp 576 ------- 0 0.0 4.0 6433 26 1 0x10 40 0
- 0.89101 0 2 tcp 576 ------- 0 0.0 4.0 6433 26 1 0x10 40 0
+ 0.89101 0 2 tcp 576 ------- 0 0.0 4.0 6969 27 1 0x10 40 0
- 0.891056 0 2 tcp 576 ------- 0 0.0 4.0 6969 27 1 0x10 40 0
r 0.891255 0 2 tcp 576 ------- 0 0.0 4.0 3217 20 1 0x10 40 0
r 0.891301 0 2 tcp 576 ------- 0 0.0 4.0 3753 21 1 0x10 40 0
r 0.891522 0 2 tcp 576 ------- 0 0.0 4.0 4289 22 1 0x10 40 0
r 0.891568 0 2 tcp 576 ------- 0 0.0 4.0 4825 23 1 0x10 40 0
r 0.891789 0 2 tcp 576 ------- 0 0.0 4.0 5361 24 1 0x10 40 0
r 0.891835 0 2 tcp 576 ------- 0 0.0 4.0 5897 25 1 0x10 40 0
r 0.892056 0 2 tcp 576 ------- 0 0.0 4.0 6433 26 1 0x10 40 0
r 0.892103 0 2 tcp 576 ------- 0 0.0 4.0 6969 27 1 0x10 40 0
+ 0.895293 3 5 tcp 40 ------- 1 1.0 5.0 1 13 1 0x10 40 0
- 0.895293 3 5 tcp 40 ------- 1 1.0 5.0 1 13 1 0x10 40 0
+ 0.895382 3 5 tcp 576 ------- 1 1.0 5.0 1 14 1 0x10 40 0
- 0.895382 3 5 tcp 576 ------- 1 1.0 5.0 1 14 1 0x10 40 0
+ 0.895849 3 5 tcp 576 ------- 1 1.0 5.0 537 15 1 0x10 40 0
- 0.895849 3 5 tcp 576 ------- 1 1.0 5.0 537 15 1 0x10 40 0
r 0.896296 3 5 tcp 40 ------- 1 1.0 5.0 1 13 1 0x10 40 0
r 0.896428 3 5 tcp 576 ------- 1 1.0 5.0 1 14 1 0x10 40 0
+ 0.896428 5 3 ack 40 ------- 1 5.0 1.0 1 28 537 0x18 40 0
- 0.896428 5 3 ack 40 ------- 1 5.0 1.0 1 28 537 0x18 40 0
r 0.896895 3 5 tcp 576 ------- 1 1.0 5.0 537 15 1 0x10 40 0
+ 0.896895 5 3 ack 40 ------- 1 5.0 1.0 1 29 1073 0x18 40 0
- 0.896895 5 3 ack 40 ------- 1 5.0 1.0 1 29 1073 0x18 40 0
r 0.897431 5 3 ack 40 ------- 1 5.0 1.0 1 28 537 0x18 40 0
+ 0.897431 3 2 ack 40 ------- 1 5.0 1.0 1 28 537 0x18 40 0
- 0.897431 3 2 ack 40 ------- 1 5.0 1.0 1 28 537 0x18 40 0
r 0.897898 5 3 ack 40 ------- 1 5.0 1.0 1 29 1073 0x18 40 0
+ 0.897898 3 2 ack 40 ------- 1 5.0 1.0 1 29 1073 0x18 40 0
- 0.897898 3 2 ack 40 ------- 1 5.0 1.0 1 29 1073 0x18 40 0
r 0.898434 3 2 ack 40 ------- 1 5.0 1.0 1 28 537 0x18 40 0
+ 0.898434 2 1 ack 40 ------- 1 5.0 1.0 1 28 537 0x18 40 0
- 0.898434 2 1 ack 40 ------- 1 5.0 1.0 1 28 537 0x18 40 0
r 0.898901 3 2 ack 40 ------- 1 5.0 1.0 1 29 1073 0x18 40 0
+ 0.898901 2 1 ack 40 ------- 1 5.0 1.0 1 29 1073 0x18 40 0
- 0.898901 2 1 ack 40 ------- 1 5.0 1.0 1 29 1073 0x18 40 0
r 0.899438 2 1 ack 40 ------- 1 5.0 1.0 1 28 537 0x18 40 0
+ 0.899438 1 2 tcp 576 ------- 1 1.0 5.0 1073 30 1 0x10 40 0
- 0.899438 1 2 tcp 576 ------- 1 1.0 5.0 1073 30 1 0x10 40 0
+ 0.899438 1 2 tcp 576 ------- 1 1.0 5.0 1609 31 1 0x10 40 0
- 0.899484 1 2 tcp 576 ------- 1 1.0 5.0 1609 31 1 0x10 40 0
r 0.899904 2 1 ack 40 ------- 1 5.0 1.0 1 29 1073 0x18 40 0
+ 0.899904 1 2 tcp 576 ------- 1 1.0 5.0 2145 32 1 0x10 40 0
- 0.899904 1 2 tcp 576 ------- 1 1.0 5.0 2145 32 1 0x10 40 0
+ 0.899904 1 2 tcp 576 ------- 1 1.0 5.0 2681 33 1 0x10 40 0
- 0.89995 1 2 tcp 576 ------- 1 1.0 5.0 2681 33 1 0x10 40 0
r 0.900484 1 2 tcp 576 ------- 1 1.0 5.0 1073 30 1 0x10 40 0
r 0.90053 1 2 tcp 576 ------- 1 1.0 5.0 1609 31 1 0x10 40 0
r 0.90095 1 2 tcp 576 ------- 1 1.0 5.0 2145 32 1 0x10 40 0
r 0.900996 1 2 tcp 576 ------- 1 1.0 5.0 2681 33 1 0x10 40 0
+ 0.930474 2 3 tcp 576 ------- 1 1.0 5.0 1073 30 1 0x10 40 0
- 0.930474 2 3 tcp 576 ------- 1 1.0 5.0 1073 30 1 0x10 40 0
+ 0.93094 2 3 tcp 576 ------- 1 1.0 5.0 1609 31 1 0x10 40 0
- 0.93094 2 3 tcp 576 ------- 1 1.0 5.0 1609 31 1 0x10 40 0
+ 0.931407 2 3 tcp 576 ------- 1 1.0 5.0 2145 32 1 0x10 40 0
- 0.931407 2 3 tcp 576 ------- 1 1.0 5.0 2145 32 1 0x10 40 0
r 0.93152 2 3 tcp 576 ------- 1 1.0 5.0 1073 30 1 0x10 40 0
+ 0.931873 2 3 tcp 576 ------- 1 1.0 5.0 2681 33 1 0x10 40 0
- 0.931873 2 3 tcp 576 ------- 1 1.0 5.0 2681 33 1 0x10 40 0
r 0.931986 2 3 tcp 576 ------- 1 1.0 5.0 1609 31 1 0x10 40 0
r 0.932453 2 3 tcp 576 ------- 1 1.0 5.0 2145 32 1 0x10 40 0
r 0.93292 2 3 tcp 576 ------- 1 1.0 5.0 2681 33 1 0x10 40 0
+ 0.939929 2 3 tcp 576 ------- 0 0.0 4.0 3217 20 1 0x10 40 0
- 0.939929 2 3 tcp 576 ------- 0 0.0 4.0 3217 20 1 0x10 40 0
+ 0.940196 2 3 tcp 576 ------- 0 0.0 4.0 3753 21 1 0x10 40 0
- 0.940196 2 3 tcp 576 ------- 0 0.0 4.0 3753 21 1 0x10 40 0
+ 0.940463 2 3 tcp 576 ------- 0 0.0 4.0 4289 22 1 0x10 40 0
- 0.940463 2 3 tcp 576 ------- 0 0.0 4.0 4289 22 1 0x10 40 0
+ 0.940731 2 3 tcp 576 ------- 0 0.0 4.0 4825 23 1 0x10 40 0
- 0.940731 2 3 tcp 576 ------- 0 0.0 4.0 4825 23 1 0x10 40 0
r 0.940975 2 3 tcp 576 ------- 0 0.0 4.0 3217 20 1 0x10 40 0
+ 0.940998 2 3 tcp 576 ------- 0 0.0 4.0 5361 24 1 0x10 40 0
- 0.940998 2 3 tcp 576 ------- 0 0.0 4.0 5361 24 1 0x10 40 0
r 0.941242 2 3 tcp 576 ------- 0 0.0 4.0 3753 21 1 0x10 40 0
+ 0.941265 2 3 tcp 576 ------- 0 0.0 4.0 5897 25 1 0x10 40 0
- 0.941265 2 3 tcp 576 ------- 0 0.0 4.0 5897 25 1 0x10 40 0
r 0.94151 2 3 tcp 576 ------- 0 0.0 4.0 4289 22 1 0x10 40 0
+ 0.941532 2 3 tcp 576 ------- 0 0.0 4.0 6433 26 1 0x10 40 0
- 0.941532 2 3 tcp 576 ------- 0 0.0 4.0 6433 26 1 0x10 40 0
r 0.941777 2 3 tcp 576 ------- 0 0.0 4.0 4825 23 1 0x10 40 0
+ 0.941799 2 3 tcp 576 ------- 0 0.0 4.0 6969 27 1 0x10 40 0
- 0.941799 2 3 tcp 576 ------- 0 0.0 4.0 6969 27 1 0x10 40 0
r 0.942044 2 3 tcp 576 ------- 0 0.0 4.0 5361 24 1 0x10 40 0
r 0.942311 2 3 tcp 576 ------- 0 0.0 4.0 5897 25 1 0x10 40 0
r 0.942578 2 3 tcp 576 ------- 0 0.0 4.0 6433 26 1 0x10 40 0
r 0.942845 2 3 tcp 576 ------- 0 0.0 4.0 6969 27 1 0x10 40 0
+ 0.945164 3 5 tcp 576 ------- 1 1.0 5.0 1073 30 1 0x10 40 0
- 0.945164 3 5 tcp 576 ------- 1 1.0 5.0 1073 30 1 0x10 40 0
+ 0.94563 3 5 tcp 576 ------- 1 1.0 5.0 1609 31 1 0x10 40 0
- 0.94563 3 5 tcp 576 ------- 1 1.0 5.0 1609 31 1 0x10 40 0
+ 0.946097 3 5 tcp 576 ------- 1 1.0 5.0 2145 32 1 0x10 40 0
- 0.946097 3 5 tcp 576 ------- 1 1.0 5.0 2145 32 1 0x10 40 0
r 0.94621 3 5 tcp 576 ------- 1 1.0 5.0 1073 30 1 0x10 40 0
+ 0.94621 5 3 ack 40 ------- 1 5.0 1.0 1 34 1609 0x18 40 0
- 0.94621 5 3 ack 40 ------- 1 5.0 1.0 1 34 1609 0x18 40 0
+ 0.946563 3 5 tcp 576 ------- 1 1.0 5.0 2681 33 1 0x10 40 0
- 0.946563 3 5 tcp 576 ------- 1 1.0 5.0 2681 33 1 0x10 40 0
r 0.946676 3 5 tcp 576 ------- 1 1.0 5.0 1609 31 1 0x10 40 0
+ 0.946676 5 3 ack 40 ------- 1 5.0 1.0 1 35 2145 0x18 40 0
- 0.946676 5 3 ack 40 ------- 1 5.0 1.0 1 35 2145 0x18 40 0
r 0.947143 3 5 tcp 576 ------- 1 1.0 5.0 2145 32 1 0x10 40 0
+ 0.947143 5 3 ack 40 ------- 1 5.0 1.0 1 36 2681 0x18 40 0
- 0.947143 5 3 ack 40 ------- 1 5.0 1.0 1 36 2681 0x18 40 0
r 0.947213 5 3 ack 40 ------- 1 5.0 1.0 1 34 1609 0x18 40 0
+ 0.947213 3 2 ack 40 ------- 1 5.0 1.0 1 34 1609 0x18 40 0
- 0.947213 3 2 ack 40 ------- 1 5.0 1.0 1 34 1609 0x18 40 0
r 0.947609 3 5 tcp 576 ------- 1 1.0 5.0 2681 33 1 0x10 40 0
+ 0.947609 5 3 ack 40 ------- 1 5.0 1.0 1 37 3217 0x18 40 0
- 0.947609 5 3 ack 40 ------- 1 5.0 1.0 1 37 3217 0x18 40 0
r 0.947679 5 3 ack 40 ------- 1 5.0 1.0 1 35 2145 0x18 40 0
+ 0.947679 3 2 ack 40 ------- 1 5.0 1.0 1 35 2145 0x18 40 0
- 0.947679 3 2 ack 40 ------- 1 5.0 1.0 1 35 2145 0x18 40 0
r 0.948146 5 3 ack 40 ------- 1 5.0 1.0 1 36 2681 0x18 40 0
+ 0.948146 3 2 ack 40 ------- 1 5.0 1.0 1 36 2681 0x18 40 0
- 0.948146 3 2 ack 40 ------- 1 5.0 1.0 1 36 2681 0x18 40 0
r 0.948216 3 2 ack 40 ------- 1 5.0 1.0 1 34 1609 0x18 40 0
+ 0.948216 2 1 ack 40 ------- 1 5.0 1.0 1 34 1609 0x18 40 0
- 0.948216 2 1 ack 40 ------- 1 5.0 1.0 1 34 1609 0x18 40 0
r 0.948612 5 3 ack 40 ------- 1 5.0 1.0 1 37 3217 0x18 40 0
+ 0.948612 3 2 ack 40 ------- 1 5.0 1.0 1 37 3217 0x18 40 0
- 0.948612 3 2 ack 40 ------- 1 5.0 1.0 1 37 3217 0x18 40 0
r 0.948683 3 2 ack 40 ------- 1 5.0 1.0 1 35 2145 0x18 40 0
+ 0.948683 2 1 ack 40 ------- 1 5.0 1.0 1 35 2145 0x18 40 0
- 0.948683 2 1 ack 40 ------- 1 5.0 1.0 1 35 2145 0x18 40 0
r 0.949149 3 2 ack 40 ------- 1 5.0 1.0 1 36 2681 0x18 40 0
+ 0.949149 2 1 ack 40 ------- 1 5.0 1.0 1 36 2681 0x18 40 0
- 0.949149 2 1 ack 40 ------- 1 5.0 1.0 1 36 2681 0x18 40 0
r 0.949219 2 1 ack 40 ------- 1 5.0 1.0 1 34 1609 0x18 40 0
+ 0.949219 1 2 tcp 576 ------- 1 1.0 5.0 3217 38 1 0x10 40 0
- 0.949219 1 2 tcp 576 ------- 1 1.0 5.0 3217 38 1 0x10 40 0
+ 0.949219 1 2 tcp 576 ------- 1 1.0 5.0 3753 39 1 0x10 40 0
- 0.949265 1 2 tcp 576 ------- 1 1.0 5.0 3753 39 1 0x10 40 0
+ 0.949598 3 4 tcp 576 ------- 0 0.0 4.0 3217 20 1 0x10 40 0
- 0.949598 3 4 tcp 576 ------- 0 0.0 4.0 3217 20 1 0x10 40 0
r 0.949616 3 2 ack 40 ------- 1 5.0 1.0 1 37 3217 0x18 40 0
+ 0.949616 2 1 ack 40 ------- 1 5.0 1.0 1 37 3217 0x18 40 0
- 0.949616 2 1 ack 40 ------- 1 5.0 1.0 1 37 3217 0x18 40 0
r 0.949686 2 1 ack 40 ------- 1 5.0 1.0 1 35 2145 0x18 40 0
+ 0.949686 1 2 tcp 576 ------- 1 1.0 5.0 4289 40 1 0x10 40 0
- 0.949686 1 2 tcp 576 ------- 1 1.0 5.0 4289 40 1 0x10 40 0
+ 0.949686 1 2 tcp 576 ------- 1 1.0 5.0 4825 41 1 0x10 40 0
- 0.949732 1 2 tcp 576 ------- 1 1.0 5.0 4825 41 1 0x10 40 0
+ 0.949865 3 4 tcp 576 ------- 0 0.0 4.0 3753 21 1 0x10 40 0
- 0.949865 3 4 tcp 576 ------- 0 0.0 4.0 3753 21 1 0x10 40 0
+ 0.950132 3 4 tcp 576 ------- 0 0.0 4.0 4289 22 1 0x10 40 0
- 0.950132 3 4 tcp 576 ------- 0 0.0 4.0 4289 22 1 0x10 40 0
r 0.950152 2 1 ack 40 ------- 1 5.0 1.0 1 36 2681 0x18 40 0
+ 0.950152 1 2 tcp 576 ------- 1 1.0 5.0 5361 42 1 0x10 40 0
- 0.950152 1 2 tcp 576 ------- 1 1.0 5.0 5361 42 1 0x10 40 0
+ 0.950152 1 2 tcp 576 ------- 1 1.0 5.0 5897 43 1 0x10 40 0
- 0.950198 1 2 tcp 576 ------- 1 1.0 5.0 5897 43 1 0x10 40 0
r 0.950265 1 2 tcp 576 ------- 1 1.0 5.0 3217 38 1 0x10 40 0
r 0.950311 1 2 tcp 576 ------- 1 1.0 5.0 3753 39 1 0x10 40 0
+ 0.9504 3 4 tcp 576 ------- 0 0.0 4.0 4825 23 1 0x10 40 0
- 0.9504 3 4 tcp 576 ------- 0 0.0 4.0 4825 23 1 0x10 40 0
r 0.950619 2 1 ack 40 ------- 1 5.0 1.0 1 37 3217 0x18 40 0
+ 0.950619 1 2 tcp 576 ------- 1 1.0 5.0 6433 44 1 0x10 40 0
- 0.950619 1 2 tcp 576 ------- 1 1.0 5.0 6433 44 1 0x10 40 0
+ 0.950619 1 2 tcp 576 ------- 1 1.0 5.0 6969 45 1 0x10 40 0
r 0.950644 3 4 tcp 576 ------- 0 0.0 4.0 3217 20 1 0x10 40 0
+ 0.950644 4 3 ack 40 ------- 0 4.0 0.0 1 46 3753 0x18 40 0
- 0.950644 4 3 ack 40 ------- 0 4.0 0.0 1 46 3753 0x18 40 0
- 0.950665 1 2 tcp 576 ------- 1 1.0 5.0 6969 45 1 0x10 40 0
+ 0.950667 3 4 tcp 576 ------- 0 0.0 4.0 5361 24 1 0x10 40 0
- 0.950667 3 4 tcp 576 ------- 0 0.0 4.0 5361 24 1 0x10 40 0
r 0.950732 1 2 tcp 576 ------- 1 1.0 5.0 4289 40 1 0x10 40 0
r 0.950778 1 2 tcp 576 ------- 1 1.0 5.0 4825 41 1 0x10 40 0
r 0.950911 3 4 tcp 576 ------- 0 0.0 4.0 3753 21 1 0x10 40 0
+ 0.950911 4 3 ack 40 ------- 0 4.0 0.0 1 47 4289 0x18 40 0
- 0.950911 4 3 ack 40 ------- 0 4.0 0.0 1 47 4289 0x18 40 0
+ 0.950934 3 4 tcp 576 ------- 0 0.0 4.0 5897 25 1 0x10 40 0
- 0.950934 3 4 tcp 576 ------- 0 0.0 4.0 5897 25 1 0x10 40 0
r 0.951179 3 4 tcp 576 ------- 0 0.0 4.0 4289 22 1 0x10 40 0
+ 0.951179 4 3 ack 40 ------- 0 4.0 0.0 1 48 4825 0x18 40 0
- 0.951179 4 3 ack 40 ------- 0 4.0 0.0 1 48 4825 0x18 40 0
r 0.951198 1 2 tcp 576 ------- 1 1.0 5.0 5361 42 1 0x10 40 0
+ 0.951201 3 4 tcp 576 ------- 0 0.0 4.0 6433 26 1 0x10 40 0
- 0.951201 3 4 tcp 576 ------- 0 0.0 4.0 6433 26 1 0x10 40 0
r 0.951244 1 2 tcp 576 ------- 1 1.0 5.0 5897 43 1 0x10 40 0
r 0.951446 3 4 tcp 576 ------- 0 0.0 4.0 4825 23 1 0x10 40 0
+ 0.951446 4 3 ack 40 ------- 0 4.0 0.0 1 49 5361 0x18 40 0
- 0.951446 4 3 ack 40 ------- 0 4.0 0.0 1 49 5361 0x18 40 0
+ 0.951468 3 4 tcp 576 ------- 0 0.0 4.0 6969 27 1 0x10 40 0
- 0.951468 3 4 tcp 576 ------- 0 0.0 4.0 6969 27 1 0x10 40 0
r 0.951648 4 3 ack 40 ------- 0 4.0 0.0 1 46 3753 0x18 40 0
+ 0.951648 3 2 ack 40 ------- 0 4.0 0.0 1 46 3753 0x18 40 0
- 0.951648 3 2 ack 40 ------- 0 4.0 0.0 1 46 3753 0x18 40 0
r 0.951665 1 2 tcp 576 ------- 1 1.0 5.0 6433 44 1 0x10 40 0
r 0.951711 1 2 tcp 576 ------- 1 1.0 5.0 6969 45 1 0x10 40 0
r 0.951713 3 4 tcp 576 ------- 0 0.0 4.0 5361 24 1 0x10 40 0
+ 0.951713 4 3 ack 40 ------- 0 4.0 0.0 1 50 5897 0x18 40 0
- 0.951713 4 3 ack 40 ------- 0 4.0 0.0 1 50 5897 0x18 40 0
r 0.951915 4 3 ack 40 ------- 0 4.0 0.0 1 47 4289 0x18 40 0
+ 0.951915 3 2 ack 40 ------- 0 4.0 0.0 1 47 4289 0x18 40 0
- 0.951915 3 2 ack 40 ------- 0 4.0 0.0 1 47 4289 0x18 40 0
r 0.95198 3 4 tcp 576 ------- 0 0.0 4.0 5897 25 1 0x10 40 0
+ 0.95198 4 3 ack 40 ------- 0 4.0 0.0 1 51 6433 0x18 40 0
- 0.95198 4 3 ack 40 ------- 0 4.0 0.0 1 51 6433 0x18 40 0
r 0.952182 4 3 ack 40 ------- 0 4.0 0.0 1 48 4825 0x18 40 0
+ 0.952182 3 2 ack 40 ------- 0 4.0 0.0 1 48 4825 0x18 40 0
- 0.952182 3 2 ack 40 ------- 0 4.0 0.0 1 48 4825 0x18 40 0
r 0.952247 3 4 tcp 576 ------- 0 0.0 4.0 6433 26 1 0x10 40 0
+ 0.952247 4 3 ack 40 ------- 0 4.0 0.0 1 52 6969 0x18 40 0
- 0.952247 4 3 ack 40 ------- 0 4.0 0.0 1 52 6969 0x18 40 0
r 0.952449 4 3 ack 40 ------- 0 4.0 0.0 1 49 5361 0x18 40 0
+ 0.952449 3 2 ack 40 ------- 0 4.0 0.0 1 49 5361 0x18 40 0
- 0.952449 3 2 ack 40 ------- 0 4.0 0.0 1 49 5361 0x18 40 0
r 0.952514 3 4 tcp 576 ------- 0 0.0 4.0 6969 27 1 0x10 40 0
+ 0.952514 4 3 ack 40 ------- 0 4.0 0.0 1 53 7505 0x18 40 0
- 0.952514 4 3 ack 40 ------- 0 4.0 0.0 1 53 7505 0x18 40 0
r 0.952651 3 2 ack 40 ------- 0 4.0 0.0 1 46 3753 0x18 40 0
+ 0.952651 2 0 ack 40 ------- 0 4.0 0.0 1 46 3753 0x18 40 0
- 0.952651 2 0 ack 40 ------- 0 4.0 0.0 1 46 3753 0x18 40 0
r 0.952716 4 3 ack 40 ------- 0 4.0 0.0 1 50 5897 0x18 40 0
+ 0.952716 3 2 ack 40 ------- 0 4.0 0.0 1 50 5897 0x18 40 0
- 0.952716 3 2 ack 40 ------- 0 4.0 0.0 1 50 5897 0x18 40 0
r 0.952918 3 2 ack 40 ------- 0 4.0 0.0 1 47 4289 0x18 40 0
+ 0.952918 2 0 ack 40 ------- 0 4.0 0.0 1 47 4289 0x18 40 0
- 0.952918 2 0 ack 40 ------- 0 4.0 0.0 1 47 4289 0x18 40 0
r 0.952983 4 3 ack 40 ------- 0 4.0 0.0 1 51 6433 0x18 40 0
+ 0.952983 3 2 ack 40 ------- 0 4.0 0.0 1 51 6433 0x18 40 0
- 0.952983 3 2 ack 40 ------- 0 4.0 0.0 1 51 6433 0x18 40 0
r 0.953185 3 2 ack 40 ------- 0 4.0 0.0 1 48 4825 0x18 40 0
+ 0.953185 2 0 ack 40 ------- 0 4.0 0.0 1 48 4825 0x18 40 0
- 0.953185 2 0 ack 40 ------- 0 4.0 0.0 1 48 4825 0x18 40 0
r 0.95325 4 3 ack 40 ------- 0 4.0 0.0 1 52 6969 0x18 40 0
+ 0.95325 3 2 ack 40 ------- 0 4.0 0.0 1 52 6969 0x18 40 0
- 0.95325 3 2 ack 40 ------- 0 4.0 0.0 1 52 6969 0x18 40 0
r 0.953452 3 2 ack 40 ------- 0 4.0 0.0 1 49 5361 0x18 40 0
+ 0.953452 2 0 ack 40 ------- 0 4.0 0.0 1 49 5361 0x18 40 0
- 0.953452 2 0 ack 40 ------- 0 4.0 0.0 1 49 5361 0x18 40 0
r 0.953517 4 3 ack 40 ------- 0 4.0 0.0 1 53 7505 0x18 40 0
+ 0.953517 3 2 ack 40 ------- 0 4.0 0.0 1 53 7505 0x18 40 0
- 0.953517 3 2 ack 40 ------- 0 4.0 0.0 1 53 7505 0x18 40 0
r 0.953654 2 0 ack 40 ------- 0 4.0 0.0 1 46 3753 0x18 40 0
+ 0.953654 0 2 tcp 576 ------- 0 0.0 4.0 7505 54 1 0x10 40 0
- 0.953654 0 2 tcp 576 ------- 0 0.0 4.0 7505 54 1 0x10 40 0
+ 0.953654 0 2 tcp 576 ------- 0 0.0 4.0 8041 55 1 0x10 40 0
- 0.9537 0 2 tcp 576 ------- 0 0.0 4.0 8041 55 1 0x10 40 0
r 0.953719 3 2 ack 40 ------- 0 4.0 0.0 1 50 5897 0x18 40 0
+ 0.953719 2 0 ack 40 ------- 0 4.0 0.0 1 50 5897 0x18 40 0
- 0.953719 2 0 ack 40 ------- 0 4.0 0.0 1 50 5897 0x18 40 0
r 0.953921 2 0 ack 40 ------- 0 4.0 0.0 1 47 4289 0x18 40 0
+ 0.953921 0 2 tcp 576 ------- 0 0.0 4.0 8577 56 1 0x10 40 0
- 0.953921 0 2 tcp 576 ------- 0 0.0 4.0 8577 56 1 0x10 40 0
+ 0.953921 0 2 tcp 576 ------- 0 0.0 4.0 9113 57 1 0x10 40 0
- 0.953967 0 2 tcp 576 ------- 0 0.0 4.0 9113 57 1 0x10 40 0
r 0.953986 3 2 ack 40 ------- 0 4.0 0.0 1 51 6433 0x18 40 0
+ 0.953986 2 0 ack 40 ------- 0 4.0 0.0 1 51 6433 0x18 40 0
- 0.953986 2 0 ack 40 ------- 0 4.0 0.0 1 51 6433 0x18 40 0
r 0.954188 2 0 ack 40 ------- 0 4.0 0.0 1 48 4825 0x18 40 0
+ 0.954188 0 2 tcp 576 ------- 0 0.0 4.0 9649 58 1 0x10 40 0
- 0.954188 0 2 tcp 576 ------- 0 0.0 4.0 9649 58 1 0x10 40 0
+ 0.954188 0 2 tcp 576 ------- 0 0.0 4.0 10185 59 1 0x10 40 0
- 0.954234 0 2 tcp 576 ------- 0 0.0 4.0 10185 59 1 0x10 40 0
r 0.954253 3 2 ack 40 ------- 0 4.0 0.0 1 52 6969 0x18 40 0
+ 0.954253 2 0 ack 40 ------- 0 4.0 0.0 1 52 6969 0x18 40 0
- 0.954253 2 0 ack 40 ------- 0 4.0 0.0 1 52 6969 0x18 40 0
r 0.954455 2 0 ack 40 ------- 0 4.0 0.0 1 49 5361 0x18 40 0
+ 0.954455 0 2 tcp 576 ------- 0 0.0 4.0 10721 60 1 0x10 40 0
- 0.954455 0 2 tcp 576 ------- 0 0.0 4.0 10721 60 1 0x10 40 0
+ 0.954455 0 2 tcp 576 ------- 0 0.0 4.0 11257 61 1 0x10 40 0
- 0.954501 0 2 tcp 576 ------- 0 0.0 4.0 11257 61 1 0x10 40 0
r 0.95452 3 2 ack 40 ------- 0 4.0 0.0 1 53 7505 0x18 40 0
+ 0.95452 2 0 ack 40 ------- 0 4.0 0.0 1 53 7505 0x18 40 0
- 0.95452 2 0 ack 40 ------- 0 4.0 0.0 1 53 7505 0x18 40 0
r 0.9547 0 2 tcp 576 ------- 0 0.0 4.0 7505 54 1 0x10 40 0
r 0.954722 2 0 ack 40 ------- 0 4.0 0.0 1 50 5897 0x18 40 0
+ 0.954722 0 2 tcp 576 ------- 0 0.0 4.0 11793 62 1 0x10 40 0
- 0.954722 0 2 tcp 576 ------- 0 0.0 4.0 11793 62 1 0x10 40 0
+ 0.954722 0 2 tcp 576 ------- 0 0.0 4.0 12329 63 1 0x10 40 0
r 0.954746 0 2 tcp 576 ------- 0 0.0 4.0 8041 55 1 0x10 40 0
- 0.954768 0 2 tcp 576 ------- 0 0.0 4.0 12329 63 1 0x10 40 0
r 0.954967 0 2 tcp 576 ------- 0 0.0 4.0 8577 56 1 0x10 40 0
r 0.954989 2 0 ack 40 ------- 0 4.0 0.0 1 51 6433 0x18 40 0
+ 0.954989 0 2 tcp 576 ------- 0 0.0 4.0 12865 64 1 0x10 40 0
- 0.954989 0 2 tcp 576 ------- 0 0.0 4.0 12865 64 1 0x10 40 0
+ 0.954989 0 2 tcp 576 ------- 0 0.0 4.0 13401 65 1 0x10 40 0
r 0.955013 0 2 tcp 576 ------- 0 0.0 4.0 9113 57 1 0x10 40 0
- 0.955035 0 2 tcp 576 ------- 0 0.0 4.0 13401 65 1 0x10 40 0
r 0.955234 0 2 tcp 576 ------- 0 0.0 4.0 9649 58 1 0x10 40 0
r 0.955256 2 0 ack 40 ------- 0 4.0 0.0 1 52 6969 0x18 40 0
+ 0.955256 0 2 tcp 576 ------- 0 0.0 4.0 13937 66 1 0x10 40 0
- 0.955256 0 2 tcp 576 ------- 0 0.0 4.0 13937 66 1 0x10 40 0
+ 0.955256 0 2 tcp 576 ------- 0 0.0 4.0 14473 67 1 0x10 40 0
r 0.95528 0 2 tcp 576 ------- 0 0.0 4.0 10185 59 1 0x10 40 0
- 0.955303 0 2 tcp 576 ------- 0 0.0 4.0 14473 67 1 0x10 40 0
r 0.955501 0 2 tcp 576 ------- 0 0.0 4.0 10721 60 1 0x10 40 0
r 0.955524 2 0 ack 40 ------- 0 4.0 0.0 1 53 7505 0x18 40 0
+ 0.955524 0 2 tcp 576 ------- 0 0.0 4.0 15009 68 1 0x10 40 0
- 0.955524 0 2 tcp 576 ------- 0 0.0 4.0 15009 68 1 0x10 40 0
+ 0.955524 0 2 tcp 576 ------- 0 0.0 4.0 15545 69 1 0x10 40 0
r 0.955547 0 2 tcp 576 ------- 0 0.0 4.0 11257 61 1 0x10 40 0
- 0.95557 0 2 tcp 576 ------- 0 0.0 4.0 15545 69 1 0x10 40 0
r 0.955768 0 2 tcp 576 ------- 0 0.0 4.0 11793 62 1 0x10 40 0
r 0.955814 0 2 tcp 576 ------- 0 0.0 4.0 12329 63 1 0x10 40 0
r 0.956035 0 2 tcp 576 ------- 0 0.0 4.0 12865 64 1 0x10 40 0
r 0.956082 0 2 tcp 576 ------- 0 0.0 4.0 13401 65 1 0x10 40 0
r 0.956303 0 2 tcp 576 ------- 0 0.0 4.0 13937 66 1 0x10 40 0
r 0.956349 0 2 tcp 576 ------- 0 0.0 4.0 14473 67 1 0x10 40 0
r 0.95657 0 2 tcp 576 ------- 0 0.0 4.0 15009 68 1 0x10 40 0
r 0.956616 0 2 tcp 576 ------- 0 0.0 4.0 15545 69 1 0x10 40 0
+ 0.980255 2 3 tcp 576 ------- 1 1.0 5.0 3217 38 1 0x10 40 0
- 0.980255 2 3 tcp 576 ------- 1 1.0 5.0 3217 38 1 0x10 40 0
+ 0.980722 2 3 tcp 576 ------- 1 1.0 5.0 3753 39 1 0x10 40 0
- 0.980722 2 3 tcp 576 ------- 1 1.0 5.0 3753 39 1 0x10 40 0
+ 0.981188 2 3 tcp 576 ------- 1 1.0 5.0 4289 40 1 0x10 40 0
- 0.981188 2 3 tcp 576 ------- 1 1.0 5.0 4289 40 1 0x10 40 0
r 0.981301 2 3 tcp 576 ------- 1 1.0 5.0 3217 38 1 0x10 40 0
+ 0.981655 2 3 tcp 576 ------- 1 1.0 5.0 4825 41 1 0x10 40 0
- 0.981655 2 3 tcp 576 ------- 1 1.0 5.0 4825 41 1 0x10 40 0
r 0.981768 2 3 tcp 576 ------- 1 1.0 5.0 3753 39 1 0x10 40 0
+ 0.982122 2 3 tcp 576 ------- 1 1.0 5.0 5361 42 1 0x10 40 0
- 0.982122 2 3 tcp 576 ------- 1 1.0 5.0 5361 42 1 0x10 40 0
r 0.982235 2 3 tcp 576 ------- 1 1.0 5.0 4289 40 1 0x10 40 0
+ 0.982588 2 3 tcp 576 ------- 1 1.0 5.0 5897 43 1 0x10 40 0
- 0.982588 2 3 tcp 576 ------- 1 1.0 5.0 5897 43 1 0x10 40 0
r 0.982701 2 3 tcp 576 ------- 1 1.0 5.0 4825 41 1 0x10 40 0