+ 0.7 0 2 tcp 40 ------- 0 0.0 4.0 0 0 0 0x0 0 0
- 0.7 0 2 tcp 40 ------- 0 0.0 4.0 0 0 0 0x0 0 0
r 0.701003 0 2 tcp 40 ------- 0 0.0 4.0 0 0 0 0x0 0 0
+ 0.749677 2 3 tcp 40 ------- 0 0.0 4.0 0 0 0 0x0 0 0
- 0.749677 2 3 tcp 40 ------- 0 0.0 4.0 0 0 0 0x0 0 0
r 0.75068 2 3 tcp 40 ------- 0 0.0 4.0 0 0 0 0x0 0 0
+ 0.759303 3 4 tcp 40 ------- 0 0.0 4.0 0 0 0 0x0 0 0
- 0.759303 3 4 tcp 40 ------- 0 0.0 4.0 0 0 0 0x0 0 0
r 0.760307 3 4 tcp 40 ------- 0 0.0 4.0 0 0 0 0x0 0 0
+ 0.760307 4 3 ack 40 ------- 0 4.0 0.0 0 1 0 0x0 0 0
- 0.760307 4 3 ack 40 ------- 0 4.0 0.0 0 1 0 0x0 0 0
r 0.76131 4 3 ack 40 ------- 0 4.0 0.0 0 1 0 0x0 0 0
+ 0.769933 3 2 ack 40 ------- 0 4.0 0.0 0 1 0 0x0 0 0
- 0.769933 3 2 ack 40 ------- 0 4.0 0.0 0 1 0 0x0 0 0
r 0.770936 3 2 ack 40 ------- 0 4.0 0.0 0 1 0 0x0 0 0
+ 0.8 1 2 tcp 40 ------- 1 1.0 5.0 0 2 0 0x0 0 0
- 0.8 1 2 tcp 40 ------- 1 1.0 5.0 0 2 0 0x0 0 0
r 0.801003 1 2 tcp 40 ------- 1 1.0 5.0 0 2 0 0x0 0 0
+ 0.81961 2 0 ack 40 ------- 0 4.0 0.0 0 1 0 0x0 0 0
- 0.81961 2 0 ack 40 ------- 0 4.0 0.0 0 1 0 0x0 0 0
r 0.820613 2 0 ack 40 ------- 0 4.0 0.0 0 1 0 0x0 0 0
+ 0.820613 0 2 tcp 1040 ------- 0 0.0 4.0 1 3 0 0x0 0 0
- 0.820613 0 2 tcp 1040 ------- 0 0.0 4.0 1 3 0 0x0 0 0
+ 0.820613 0 2 tcp 1040 ------- 0 0.0 4.0 2 4 0 0x0 0 0
- 0.820696 0 2 tcp 1040 ------- 0 0.0 4.0 2 4 0 0x0 0 0
r 0.821696 0 2 tcp 1040 ------- 0 0.0 4.0 1 3 0 0x0 0 0
r 0.82178 0 2 tcp 1040 ------- 0 0.0 4.0 2 4 0 0x0 0 0
+ 0.830993 2 3 tcp 40 ------- 1 1.0 5.0 0 2 0 0x0 0 0
- 0.830993 2 3 tcp 40 ------- 1 1.0 5.0 0 2 0 0x0 0 0
r 0.831997 2 3 tcp 40 ------- 1 1.0 5.0 0 2 0 0x0 0 0
+ 0.84564 3 5 tcp 40 ------- 1 1.0 5.0 0 2 0 0x0 0 0
- 0.84564 3 5 tcp 40 ------- 1 1.0 5.0 0 2 0 0x0 0 0
r 0.846643 3 5 tcp 40 ------- 1 1.0 5.0 0 2 0 0x0 0 0
+ 0.846643 5 3 ack 40 ------- 1 5.0 1.0 0 5 0 0x0 0 0
- 0.846643 5 3 ack 40 ------- 1 5.0 1.0 0 5 0 0x0 0 0
r 0.847647 5 3 ack 40 ------- 1 5.0 1.0 0 5 0 0x0 0 0
+ 0.86129 3 2 ack 40 ------- 1 5.0 1.0 0 5 0 0x0 0 0
- 0.86129 3 2 ack 40 ------- 1 5.0 1.0 0 5 0 0x0 0 0
r 0.862293 3 2 ack 40 ------- 1 5.0 1.0 0 5 0 0x0 0 0
+ 0.870371 2 3 tcp 1040 ------- 0 0.0 4.0 1 3 0 0x0 0 0
- 0.870371 2 3 tcp 1040 ------- 0 0.0 4.0 1 3 0 0x0 0 0
r 0.871454 2 3 tcp 1040 ------- 0 0.0 4.0 1 3 0 0x0 0 0
+ 0.871862 2 3 tcp 1040 ------- 0 0.0 4.0 2 4 0 0x0 0 0
- 0.871862 2 3 tcp 1040 ------- 0 0.0 4.0 2 4 0 0x0 0 0
r 0.872945 2 3 tcp 1040 ------- 0 0.0 4.0 2 4 0 0x0 0 0
+ 0.880077 3 4 tcp 1040 ------- 0 0.0 4.0 1 3 0 0x0 0 0
- 0.880077 3 4 tcp 1040 ------- 0 0.0 4.0 1 3 0 0x0 0 0
r 0.88116 3 4 tcp 1040 ------- 0 0.0 4.0 1 3 0 0x0 0 0
+ 0.88116 4 3 ack 40 ------- 0 4.0 0.0 1 6 0 0x0 0 0
- 0.88116 4 3 ack 40 ------- 0 4.0 0.0 1 6 0 0x0 0 0
+ 0.881568 3 4 tcp 1040 ------- 0 0.0 4.0 2 4 0 0x0 0 0
- 0.881568 3 4 tcp 1040 ------- 0 0.0 4.0 2 4 0 0x0 0 0
r 0.882163 4 3 ack 40 ------- 0 4.0 0.0 1 6 0 0x0 0 0
r 0.882651 3 4 tcp 1040 ------- 0 0.0 4.0 2 4 0 0x0 0 0
+ 0.882651 4 3 ack 40 ------- 0 4.0 0.0 2 7 0 0x0 0 0
- 0.882651 4 3 ack 40 ------- 0 4.0 0.0 2 7 0 0x0 0 0
r 0.883654 4 3 ack 40 ------- 0 4.0 0.0 2 7 0 0x0 0 0
+ 0.890786 3 2 ack 40 ------- 0 4.0 0.0 1 6 0 0x0 0 0
- 0.890786 3 2 ack 40 ------- 0 4.0 0.0 1 6 0 0x0 0 0
r 0.891789 3 2 ack 40 ------- 0 4.0 0.0 1 6 0 0x0 0 0
+ 0.892277 3 2 ack 40 ------- 0 4.0 0.0 2 7 0 0x0 0 0
- 0.892277 3 2 ack 40 ------- 0 4.0 0.0 2 7 0 0x0 0 0
+ 0.892283 2 1 ack 40 ------- 1 5.0 1.0 0 5 0 0x0 0 0
- 0.892283 2 1 ack 40 ------- 1 5.0 1.0 0 5 0 0x0 0 0
r 0.893281 3 2 ack 40 ------- 0 4.0 0.0 2 7 0 0x0 0 0
r 0.893287 2 1 ack 40 ------- 1 5.0 1.0 0 5 0 0x0 0 0
+ 0.893287 1 2 tcp 1040 ------- 1 1.0 5.0 1 8 0 0x0 0 0
- 0.893287 1 2 tcp 1040 ------- 1 1.0 5.0 1 8 0 0x0 0 0
+ 0.893287 1 2 tcp 1040 ------- 1 1.0 5.0 2 9 0 0x0 0 0
- 0.89337 1 2 tcp 1040 ------- 1 1.0 5.0 2 9 0 0x0 0 0
r 0.89437 1 2 tcp 1040 ------- 1 1.0 5.0 1 8 0 0x0 0 0
r 0.894453 1 2 tcp 1040 ------- 1 1.0 5.0 2 9 0 0x0 0 0
+ 0.92436 2 3 tcp 1040 ------- 1 1.0 5.0 1 8 0 0x0 0 0
- 0.92436 2 3 tcp 1040 ------- 1 1.0 5.0 1 8 0 0x0 0 0
+ 0.924782 2 3 tcp 1040 ------- 1 1.0 5.0 2 9 0 0x0 0 0
- 0.924782 2 3 tcp 1040 ------- 1 1.0 5.0 2 9 0 0x0 0 0
r 0.925443 2 3 tcp 1040 ------- 1 1.0 5.0 1 8 0 0x0 0 0
r 0.925865 2 3 tcp 1040 ------- 1 1.0 5.0 2 9 0 0x0 0 0
+ 0.939087 3 5 tcp 1040 ------- 1 1.0 5.0 1 8 0 0x0 0 0
- 0.939087 3 5 tcp 1040 ------- 1 1.0 5.0 1 8 0 0x0 0 0
+ 0.939509 3 5 tcp 1040 ------- 1 1.0 5.0 2 9 0 0x0 0 0
- 0.939509 3 5 tcp 1040 ------- 1 1.0 5.0 2 9 0 0x0 0 0
r 0.94017 3 5 tcp 1040 ------- 1 1.0 5.0 1 8 0 0x0 0 0
+ 0.94017 5 3 ack 40 ------- 1 5.0 1.0 1 10 0 0x0 0 0
- 0.94017 5 3 ack 40 ------- 1 5.0 1.0 1 10 0 0x0 0 0
+ 0.940463 2 0 ack 40 ------- 0 4.0 0.0 1 6 0 0x0 0 0
- 0.940463 2 0 ack 40 ------- 0 4.0 0.0 1 6 0 0x0 0 0
r 0.940592 3 5 tcp 1040 ------- 1 1.0 5.0 2 9 0 0x0 0 0
+ 0.940592 5 3 ack 40 ------- 1 5.0 1.0 2 11 0 0x0 0 0
- 0.940592 5 3 ack 40 ------- 1 5.0 1.0 2 11 0 0x0 0 0
r 0.941173 5 3 ack 40 ------- 1 5.0 1.0 1 10 0 0x0 0 0
r 0.941466 2 0 ack 40 ------- 0 4.0 0.0 1 6 0 0x0 0 0
+ 0.941466 0 2 tcp 1040 ------- 0 0.0 4.0 3 12 0 0x0 0 0
- 0.941466 0 2 tcp 1040 ------- 0 0.0 4.0 3 12 0 0x0 0 0
+ 0.941466 0 2 tcp 1040 ------- 0 0.0 4.0 4 13 0 0x0 0 0
- 0.94155 0 2 tcp 1040 ------- 0 0.0 4.0 4 13 0 0x0 0 0
r 0.941595 5 3 ack 40 ------- 1 5.0 1.0 2 11 0 0x0 0 0
+ 0.941955 2 0 ack 40 ------- 0 4.0 0.0 2 7 0 0x0 0 0
- 0.941955 2 0 ack 40 ------- 0 4.0 0.0 2 7 0 0x0 0 0
r 0.94255 0 2 tcp 1040 ------- 0 0.0 4.0 3 12 0 0x0 0 0
r 0.942633 0 2 tcp 1040 ------- 0 0.0 4.0 4 13 0 0x0 0 0
r 0.942958 2 0 ack 40 ------- 0 4.0 0.0 2 7 0 0x0 0 0
+ 0.942958 0 2 tcp 1040 ------- 0 0.0 4.0 5 14 0 0x0 0 0
- 0.942958 0 2 tcp 1040 ------- 0 0.0 4.0 5 14 0 0x0 0 0
+ 0.942958 0 2 tcp 1040 ------- 0 0.0 4.0 6 15 0 0x0 0 0
- 0.943041 0 2 tcp 1040 ------- 0 0.0 4.0 6 15 0 0x0 0 0
r 0.944041 0 2 tcp 1040 ------- 0 0.0 4.0 5 14 0 0x0 0 0
r 0.944124 0 2 tcp 1040 ------- 0 0.0 4.0 6 15 0 0x0 0 0
+ 0.954817 3 2 ack 40 ------- 1 5.0 1.0 1 10 0 0x0 0 0
- 0.954817 3 2 ack 40 ------- 1 5.0 1.0 1 10 0 0x0 0 0
+ 0.955239 3 2 ack 40 ------- 1 5.0 1.0 2 11 0 0x0 0 0
- 0.955239 3 2 ack 40 ------- 1 5.0 1.0 2 11 0 0x0 0 0
r 0.95582 3 2 ack 40 ------- 1 5.0 1.0 1 10 0 0x0 0 0
r 0.956242 3 2 ack 40 ------- 1 5.0 1.0 2 11 0 0x0 0 0
+ 0.98581 2 1 ack 40 ------- 1 5.0 1.0 1 10 0 0x0 0 0
- 0.98581 2 1 ack 40 ------- 1 5.0 1.0 1 10 0 0x0 0 0
+ 0.986232 2 1 ack 40 ------- 1 5.0 1.0 2 11 0 0x0 0 0
- 0.986232 2 1 ack 40 ------- 1 5.0 1.0 2 11 0 0x0 0 0
r 0.986813 2 1 ack 40 ------- 1 5.0 1.0 1 10 0 0x0 0 0
+ 0.986813 1 2 tcp 1040 ------- 1 1.0 5.0 3 16 0 0x0 0 0
- 0.986813 1 2 tcp 1040 ------- 1 1.0 5.0 3 16 0 0x0 0 0
+ 0.986813 1 2 tcp 1040 ------- 1 1.0 5.0 4 17 0 0x0 0 0
- 0.986896 1 2 tcp 1040 ------- 1 1.0 5.0 4 17 0 0x0 0 0
r 0.987235 2 1 ack 40 ------- 1 5.0 1.0 2 11 0 0x0 0 0
+ 0.987235 1 2 tcp 1040 ------- 1 1.0 5.0 5 18 0 0x0 0 0
- 0.987235 1 2 tcp 1040 ------- 1 1.0 5.0 5 18 0 0x0 0 0
+ 0.987235 1 2 tcp 1040 ------- 1 1.0 5.0 6 19 0 0x0 0 0
- 0.987319 1 2 tcp 1040 ------- 1 1.0 5.0 6 19 0 0x0 0 0
r 0.987896 1 2 tcp 1040 ------- 1 1.0 5.0 3 16 0 0x0 0 0
r 0.98798 1 2 tcp 1040 ------- 1 1.0 5.0 4 17 0 0x0 0 0
r 0.988319 1 2 tcp 1040 ------- 1 1.0 5.0 5 18 0 0x0 0 0
r 0.988402 1 2 tcp 1040 ------- 1 1.0 5.0 6 19 0 0x0 0 0
+ 0.991224 2 3 tcp 1040 ------- 0 0.0 4.0 3 12 0 0x0 0 0
- 0.991224 2 3 tcp 1040 ------- 0 0.0 4.0 3 12 0 0x0 0 0
r 0.992307 2 3 tcp 1040 ------- 0 0.0 4.0 3 12 0 0x0 0 0
+ 0.992715 2 3 tcp 1040 ------- 0 0.0 4.0 4 13 0 0x0 0 0
- 0.992715 2 3 tcp 1040 ------- 0 0.0 4.0 4 13 0 0x0 0 0
r 0.993798 2 3 tcp 1040 ------- 0 0.0 4.0 4 13 0 0x0 0 0
+ 0.994206 2 3 tcp 1040 ------- 0 0.0 4.0 5 14 0 0x0 0 0
- 0.994206 2 3 tcp 1040 ------- 0 0.0 4.0 5 14 0 0x0 0 0
r 0.99529 2 3 tcp 1040 ------- 0 0.0 4.0 5 14 0 0x0 0 0
+ 0.995698 2 3 tcp 1040 ------- 0 0.0 4.0 6 15 0 0x0 0 0
- 0.995698 2 3 tcp 1040 ------- 0 0.0 4.0 6 15 0 0x0 0 0
r 0.996781 2 3 tcp 1040 ------- 0 0.0 4.0 6 15 0 0x0 0 0
+ 1.00093 3 4 tcp 1040 ------- 0 0.0 4.0 3 12 0 0x0 0 0
- 1.00093 3 4 tcp 1040 ------- 0 0.0 4.0 3 12 0 0x0 0 0
r 1.002013 3 4 tcp 1040 ------- 0 0.0 4.0 3 12 0 0x0 0 0
+ 1.002013 4 3 ack 40 ------- 0 4.0 0.0 3 20 0 0x0 0 0
- 1.002013 4 3 ack 40 ------- 0 4.0 0.0 3 20 0 0x0 0 0
+ 1.002421 3 4 tcp 1040 ------- 0 0.0 4.0 4 13 0 0x0 0 0
- 1.002421 3 4 tcp 1040 ------- 0 0.0 4.0 4 13 0 0x0 0 0
r 1.003016 4 3 ack 40 ------- 0 4.0 0.0 3 20 0 0x0 0 0
r 1.003504 3 4 tcp 1040 ------- 0 0.0 4.0 4 13 0 0x0 0 0
+ 1.003504 4 3 ack 40 ------- 0 4.0 0.0 4 21 0 0x0 0 0
- 1.003504 4 3 ack 40 ------- 0 4.0 0.0 4 21 0 0x0 0 0
+ 1.003913 3 4 tcp 1040 ------- 0 0.0 4.0 5 14 0 0x0 0 0
- 1.003913 3 4 tcp 1040 ------- 0 0.0 4.0 5 14 0 0x0 0 0
r 1.004508 4 3 ack 40 ------- 0 4.0 0.0 4 21 0 0x0 0 0
r 1.004996 3 4 tcp 1040 ------- 0 0.0 4.0 5 14 0 0x0 0 0
+ 1.004996 4 3 ack 40 ------- 0 4.0 0.0 5 22 0 0x0 0 0
- 1.004996 4 3 ack 40 ------- 0 4.0 0.0 5 22 0 0x0 0 0
+ 1.005404 3 4 tcp 1040 ------- 0 0.0 4.0 6 15 0 0x0 0 0
- 1.005404 3 4 tcp 1040 ------- 0 0.0 4.0 6 15 0 0x0 0 0
r 1.005999 4 3 ack 40 ------- 0 4.0 0.0 5 22 0 0x0 0 0
r 1.006487 3 4 tcp 1040 ------- 0 0.0 4.0 6 15 0 0x0 0 0
+ 1.006487 4 3 ack 40 ------- 0 4.0 0.0 6 23 0 0x0 0 0
- 1.006487 4 3 ack 40 ------- 0 4.0 0.0 6 23 0 0x0 0 0
r 1.00749 4 3 ack 40 ------- 0 4.0 0.0 6 23 0 0x0 0 0
+ 1.011639 3 2 ack 40 ------- 0 4.0 0.0 3 20 0 0x0 0 0
- 1.011639 3 2 ack 40 ------- 0 4.0 0.0 3 20 0 0x0 0 0
r 1.012642 3 2 ack 40 ------- 0 4.0 0.0 3 20 0 0x0 0 0
+ 1.013131 3 2 ack 40 ------- 0 4.0 0.0 4 21 0 0x0 0 0
- 1.013131 3 2 ack 40 ------- 0 4.0 0.0 4 21 0 0x0 0 0
r 1.014134 3 2 ack 40 ------- 0 4.0 0.0 4 21 0 0x0 0 0
+ 1.014622 3 2 ack 40 ------- 0 4.0 0.0 5 22 0 0x0 0 0
- 1.014622 3 2 ack 40 ------- 0 4.0 0.0 5 22 0 0x0 0 0
r 1.015625 3 2 ack 40 ------- 0 4.0 0.0 5 22 0 0x0 0 0
+ 1.016113 3 2 ack 40 ------- 0 4.0 0.0 6 23 0 0x0 0 0
- 1.016113 3 2 ack 40 ------- 0 4.0 0.0 6 23 0 0x0 0 0
r 1.017116 3 2 ack 40 ------- 0 4.0 0.0 6 23 0 0x0 0 0
+ 1.017887 2 3 tcp 1040 ------- 1 1.0 5.0 3 16 0 0x0 0 0
- 1.017887 2 3 tcp 1040 ------- 1 1.0 5.0 3 16 0 0x0 0 0
+ 1.018309 2 3 tcp 1040 ------- 1 1.0 5.0 4 17 0 0x0 0 0
- 1.018309 2 3 tcp 1040 ------- 1 1.0 5.0 4 17 0 0x0 0 0
+ 1.018731 2 3 tcp 1040 ------- 1 1.0 5.0 5 18 0 0x0 0 0
- 1.018731 2 3 tcp 1040 ------- 1 1.0 5.0 5 18 0 0x0 0 0
r 1.01897 2 3 tcp 1040 ------- 1 1.0 5.0 3 16 0 0x0 0 0
+ 1.019153 2 3 tcp 1040 ------- 1 1.0 5.0 6 19 0 0x0 0 0
- 1.019153 2 3 tcp 1040 ------- 1 1.0 5.0 6 19 0 0x0 0 0
r 1.019392 2 3 tcp 1040 ------- 1 1.0 5.0 4 17 0 0x0 0 0
r 1.019814 2 3 tcp 1040 ------- 1 1.0 5.0 5 18 0 0x0 0 0
r 1.020236 2 3 tcp 1040 ------- 1 1.0 5.0 6 19 0 0x0 0 0
+ 1.032613 3 5 tcp 1040 ------- 1 1.0 5.0 3 16 0 0x0 0 0
- 1.032613 3 5 tcp 1040 ------- 1 1.0 5.0 3 16 0 0x0 0 0
+ 1.033035 3 5 tcp 1040 ------- 1 1.0 5.0 4 17 0 0x0 0 0
- 1.033035 3 5 tcp 1040 ------- 1 1.0 5.0 4 17 0 0x0 0 0
+ 1.033458 3 5 tcp 1040 ------- 1 1.0 5.0 5 18 0 0x0 0 0
- 1.033458 3 5 tcp 1040 ------- 1 1.0 5.0 5 18 0 0x0 0 0
r 1.033697 3 5 tcp 1040 ------- 1 1.0 5.0 3 16 0 0x0 0 0
+ 1.033697 5 3 ack 40 ------- 1 5.0 1.0 3 24 0 0x0 0 0
- 1.033697 5 3 ack 40 ------- 1 5.0 1.0 3 24 0 0x0 0 0
+ 1.03388 3 5 tcp 1040 ------- 1 1.0 5.0 6 19 0 0x0 0 0
- 1.03388 3 5 tcp 1040 ------- 1 1.0 5.0 6 19 0 0x0 0 0
r 1.034119 3 5 tcp 1040 ------- 1 1.0 5.0 4 17 0 0x0 0 0
+ 1.034119 5 3 ack 40 ------- 1 5.0 1.0 4 25 0 0x0 0 0
- 1.034119 5 3 ack 40 ------- 1 5.0 1.0 4 25 0 0x0 0 0
r 1.034541 3 5 tcp 1040 ------- 1 1.0 5.0 5 18 0 0x0 0 0
+ 1.034541 5 3 ack 40 ------- 1 5.0 1.0 5 26 0 0x0 0 0
- 1.034541 5 3 ack 40 ------- 1 5.0 1.0 5 26 0 0x0 0 0
r 1.0347 5 3 ack 40 ------- 1 5.0 1.0 3 24 0 0x0 0 0
r 1.034963 3 5 tcp 1040 ------- 1 1.0 5.0 6 19 0 0x0 0 0
+ 1.034963 5 3 ack 40 ------- 1 5.0 1.0 6 27 0 0x0 0 0
- 1.034963 5 3 ack 40 ------- 1 5.0 1.0 6 27 0 0x0 0 0
r 1.035122 5 3 ack 40 ------- 1 5.0 1.0 4 25 0 0x0 0 0
r 1.035544 5 3 ack 40 ------- 1 5.0 1.0 5 26 0 0x0 0 0
r 1.035966 5 3 ack 40 ------- 1 5.0 1.0 6 27 0 0x0 0 0
+ 1.048343 3 2 ack 40 ------- 1 5.0 1.0 3 24 0 0x0 0 0
- 1.048343 3 2 ack 40 ------- 1 5.0 1.0 3 24 0 0x0 0 0
+ 1.048765 3 2 ack 40 ------- 1 5.0 1.0 4 25 0 0x0 0 0
- 1.048765 3 2 ack 40 ------- 1 5.0 1.0 4 25 0 0x0 0 0
+ 1.049188 3 2 ack 40 ------- 1 5.0 1.0 5 26 0 0x0 0 0
- 1.049188 3 2 ack 40 ------- 1 5.0 1.0 5 26 0 0x0 0 0
r 1.049347 3 2 ack 40 ------- 1 5.0 1.0 3 24 0 0x0 0 0
+ 1.04961 3 2 ack 40 ------- 1 5.0 1.0 6 27 0 0x0 0 0
- 1.04961 3 2 ack 40 ------- 1 5.0 1.0 6 27 0 0x0 0 0
r 1.049769 3 2 ack 40 ------- 1 5.0 1.0 4 25 0 0x0 0 0
r 1.050191 3 2 ack 40 ------- 1 5.0 1.0 5 26 0 0x0 0 0
r 1.050613 3 2 ack 40 ------- 1 5.0 1.0 6 27 0 0x0 0 0
+ 1.061317 2 0 ack 40 ------- 0 4.0 0.0 3 20 0 0x0 0 0
- 1.061317 2 0 ack 40 ------- 0 4.0 0.0 3 20 0 0x0 0 0
r 1.06232 2 0 ack 40 ------- 0 4.0 0.0 3 20 0 0x0 0 0
+ 1.06232 0 2 tcp 1040 ------- 0 0.0 4.0 7 28 0 0x0 0 0
- 1.06232 0 2 tcp 1040 ------- 0 0.0 4.0 7 28 0 0x0 0 0
+ 1.06232 0 2 tcp 1040 ------- 0 0.0 4.0 8 29 0 0x0 0 0
- 1.062403 0 2 tcp 1040 ------- 0 0.0 4.0 8 29 0 0x0 0 0
+ 1.062808 2 0 ack 40 ------- 0 4.0 0.0 4 21 0 0x0 0 0
- 1.062808 2 0 ack 40 ------- 0 4.0 0.0 4 21 0 0x0 0 0
r 1.063403 0 2 tcp 1040 ------- 0 0.0 4.0 7 28 0 0x0 0 0
r 1.063486 0 2 tcp 1040 ------- 0 0.0 4.0 8 29 0 0x0 0 0
r 1.063811 2 0 ack 40 ------- 0 4.0 0.0 4 21 0 0x0 0 0
+ 1.063811 0 2 tcp 1040 ------- 0 0.0 4.0 9 30 0 0x0 0 0
- 1.063811 0 2 tcp 1040 ------- 0 0.0 4.0 9 30 0 0x0 0 0
+ 1.063811 0 2 tcp 1040 ------- 0 0.0 4.0 10 31 0 0x0 0 0
- 1.063894 0 2 tcp 1040 ------- 0 0.0 4.0 10 31 0 0x0 0 0
+ 1.064299 2 0 ack 40 ------- 0 4.0 0.0 5 22 0 0x0 0 0
- 1.064299 2 0 ack 40 ------- 0 4.0 0.0 5 22 0 0x0 0 0
r 1.064894 0 2 tcp 1040 ------- 0 0.0 4.0 9 30 0 0x0 0 0
r 1.064977 0 2 tcp 1040 ------- 0 0.0 4.0 10 31 0 0x0 0 0
r 1.065302 2 0 ack 40 ------- 0 4.0 0.0 5 22 0 0x0 0 0
+ 1.065302 0 2 tcp 1040 ------- 0 0.0 4.0 11 32 0 0x0 0 0
- 1.065302 0 2 tcp 1040 ------- 0 0.0 4.0 11 32 0 0x0 0 0
+ 1.065302 0 2 tcp 1040 ------- 0 0.0 4.0 12 33 0 0x0 0 0
- 1.065386 0 2 tcp 1040 ------- 0 0.0 4.0 12 33 0 0x0 0 0
+ 1.065791 2 0 ack 40 ------- 0 4.0 0.0 6 23 0 0x0 0 0
- 1.065791 2 0 ack 40 ------- 0 4.0 0.0 6 23 0 0x0 0 0
r 1.066386 0 2 tcp 1040 ------- 0 0.0 4.0 11 32 0 0x0 0 0
r 1.066469 0 2 tcp 1040 ------- 0 0.0 4.0 12 33 0 0x0 0 0
r 1.066794 2 0 ack 40 ------- 0 4.0 0.0 6 23 0 0x0 0 0
+ 1.066794 0 2 tcp 1040 ------- 0 0.0 4.0 13 34 0 0x0 0 0
- 1.066794 0 2 tcp 1040 ------- 0 0.0 4.0 13 34 0 0x0 0 0
+ 1.066794 0 2 tcp 1040 ------- 0 0.0 4.0 14 35 0 0x0 0 0
- 1.066877 0 2 tcp 1040 ------- 0 0.0 4.0 14 35 0 0x0 0 0
r 1.067877 0 2 tcp 1040 ------- 0 0.0 4.0 13 34 0 0x0 0 0
r 1.06796 0 2 tcp 1040 ------- 0 0.0 4.0 14 35 0 0x0 0 0
+ 1.079337 2 1 ack 40 ------- 1 5.0 1.0 3 24 0 0x0 0 0
- 1.079337 2 1 ack 40 ------- 1 5.0 1.0 3 24 0 0x0 0 0
+ 1.079759 2 1 ack 40 ------- 1 5.0 1.0 4 25 0 0x0 0 0
- 1.079759 2 1 ack 40 ------- 1 5.0 1.0 4 25 0 0x0 0 0
+ 1.080181 2 1 ack 40 ------- 1 5.0 1.0 5 26 0 0x0 0 0
- 1.080181 2 1 ack 40 ------- 1 5.0 1.0 5 26 0 0x0 0 0
r 1.08034 2 1 ack 40 ------- 1 5.0 1.0 3 24 0 0x0 0 0
+ 1.08034 1 2 tcp 1040 ------- 1 1.0 5.0 7 36 0 0x0 0 0
- 1.08034 1 2 tcp 1040 ------- 1 1.0 5.0 7 36 0 0x0 0 0
+ 1.08034 1 2 tcp 1040 ------- 1 1.0 5.0 8 37 0 0x0 0 0
- 1.080423 1 2 tcp 1040 ------- 1 1.0 5.0 8 37 0 0x0 0 0
+ 1.080603 2 1 ack 40 ------- 1 5.0 1.0 6 27 0 0x0 0 0
- 1.080603 2 1 ack 40 ------- 1 5.0 1.0 6 27 0 0x0 0 0
r 1.080762 2 1 ack 40 ------- 1 5.0 1.0 4 25 0 0x0 0 0
+ 1.080762 1 2 tcp 1040 ------- 1 1.0 5.0 9 38 0 0x0 0 0
- 1.080762 1 2 tcp 1040 ------- 1 1.0 5.0 9 38 0 0x0 0 0
+ 1.080762 1 2 tcp 1040 ------- 1 1.0 5.0 10 39 0 0x0 0 0
- 1.080845 1 2 tcp 1040 ------- 1 1.0 5.0 10 39 0 0x0 0 0
r 1.081184 2 1 ack 40 ------- 1 5.0 1.0 5 26 0 0x0 0 0
+ 1.081184 1 2 tcp 1040 ------- 1 1.0 5.0 11 40 0 0x0 0 0
- 1.081184 1 2 tcp 1040 ------- 1 1.0 5.0 11 40 0 0x0 0 0
+ 1.081184 1 2 tcp 1040 ------- 1 1.0 5.0 12 41 0 0x0 0 0
- 1.081267 1 2 tcp 1040 ------- 1 1.0 5.0 12 41 0 0x0 0 0
r 1.081423 1 2 tcp 1040 ------- 1 1.0 5.0 7 36 0 0x0 0 0
r 1.081506 1 2 tcp 1040 ------- 1 1.0 5.0 8 37 0 0x0 0 0
r 1.081606 2 1 ack 40 ------- 1 5.0 1.0 6 27 0 0x0 0 0
+ 1.081606 1 2 tcp 1040 ------- 1 1.0 5.0 13 42 0 0x0 0 0
- 1.081606 1 2 tcp 1040 ------- 1 1.0 5.0 13 42 0 0x0 0 0
+ 1.081606 1 2 tcp 1040 ------- 1 1.0 5.0 14 43 0 0x0 0 0
- 1.081689 1 2 tcp 1040 ------- 1 1.0 5.0 14 43 0 0x0 0 0
r 1.081845 1 2 tcp 1040 ------- 1 1.0 5.0 9 38 0 0x0 0 0
r 1.081928 1 2 tcp 1040 ------- 1 1.0 5.0 10 39 0 0x0 0 0
r 1.082267 1 2 tcp 1040 ------- 1 1.0 5.0 11 40 0 0x0 0 0
r 1.082351 1 2 tcp 1040 ------- 1 1.0 5.0 12 41 0 0x0 0 0
r 1.082689 1 2 tcp 1040 ------- 1 1.0 5.0 13 42 0 0x0 0 0
r 1.082773 1 2 tcp 1040 ------- 1 1.0 5.0 14 43 0 0x0 0 0
+ 1.111413 2 3 tcp 1040 ------- 1 1.0 5.0 7 36 0 0x0 0 0
- 1.111413 2 3 tcp 1040 ------- 1 1.0 5.0 7 36 0 0x0 0 0
+ 1.111835 2 3 tcp 1040 ------- 1 1.0 5.0 8 37 0 0x0 0 0
- 1.111835 2 3 tcp 1040 ------- 1 1.0 5.0 8 37 0 0x0 0 0
+ 1.112077 2 3 tcp 1040 ------- 0 0.0 4.0 7 28 0 0x0 0 0
- 1.112077 2 3 tcp 1040 ------- 0 0.0 4.0 7 28 0 0x0 0 0
+ 1.112257 2 3 tcp 1040 ------- 1 1.0 5.0 9 38 0 0x0 0 0
- 1.112257 2 3 tcp 1040 ------- 1 1.0 5.0 9 38 0 0x0 0 0
r 1.112496 2 3 tcp 1040 ------- 1 1.0 5.0 7 36 0 0x0 0 0
+ 1.11268 2 3 tcp 1040 ------- 1 1.0 5.0 10 39 0 0x0 0 0
- 1.11268 2 3 tcp 1040 ------- 1 1.0 5.0 10 39 0 0x0 0 0
r 1.112919 2 3 tcp 1040 ------- 1 1.0 5.0 8 37 0 0x0 0 0
+ 1.113102 2 3 tcp 1040 ------- 1 1.0 5.0 11 40 0 0x0 0 0
- 1.113102 2 3 tcp 1040 ------- 1 1.0 5.0 11 40 0 0x0 0 0
r 1.11316 2 3 tcp 1040 ------- 0 0.0 4.0 7 28 0 0x0 0 0
r 1.113341 2 3 tcp 1040 ------- 1 1.0 5.0 9 38 0 0x0 0 0
+ 1.113524 2 3 tcp 1040 ------- 1 1.0 5.0 12 41 0 0x0 0 0
- 1.113524 2 3 tcp 1040 ------- 1 1.0 5.0 12 41 0 0x0 0 0
+ 1.113568 2 3 tcp 1040 ------- 0 0.0 4.0 8 29 0 0x0 0 0
- 1.113607 2 3 tcp 1040 ------- 0 0.0 4.0 8 29 0 0x0 0 0
r 1.113763 2 3 tcp 1040 ------- 1 1.0 5.0 10 39 0 0x0 0 0
+ 1.113946 2 3 tcp 1040 ------- 1 1.0 5.0 13 42 0 0x0 0 0
- 1.113946 2 3 tcp 1040 ------- 1 1.0 5.0 13 42 0 0x0 0 0
r 1.114185 2 3 tcp 1040 ------- 1 1.0 5.0 11 40 0 0x0 0 0
+ 1.114368 2 3 tcp 1040 ------- 1 1.0 5.0 14 43 0 0x0 0 0
- 1.114368 2 3 tcp 1040 ------- 1 1.0 5.0 14 43 0 0x0 0 0
r 1.114607 2 3 tcp 1040 ------- 1 1.0 5.0 12 41 0 0x0 0 0
r 1.11469 2 3 tcp 1040 ------- 0 0.0 4.0 8 29 0 0x0 0 0
r 1.115029 2 3 tcp 1040 ------- 1 1.0 5.0 13 42 0 0x0 0 0
+ 1.11506 2 3 tcp 1040 ------- 0 0.0 4.0 9 30 0 0x0 0 0
- 1.11506 2 3 tcp 1040 ------- 0 0.0 4.0 9 30 0 0x0 0 0
r 1.115451 2 3 tcp 1040 ------- 1 1.0 5.0 14 43 0 0x0 0 0
r 1.116143 2 3 tcp 1040 ------- 0 0.0 4.0 9 30 0 0x0 0 0
+ 1.116551 2 3 tcp 1040 ------- 0 0.0 4.0 10 31 0 0x0 0 0
- 1.116551 2 3 tcp 1040 ------- 0 0.0 4.0 10 31 0 0x0 0 0
r 1.117634 2 3 tcp 1040 ------- 0 0.0 4.0 10 31 0 0x0 0 0
+ 1.118042 2 3 tcp 1040 ------- 0 0.0 4.0 11 32 0 0x0 0 0
- 1.118042 2 3 tcp 1040 ------- 0 0.0 4.0 11 32 0 0x0 0 0
r 1.119126 2 3 tcp 1040 ------- 0 0.0 4.0 11 32 0 0x0 0 0
+ 1.119534 2 3 tcp 1040 ------- 0 0.0 4.0 12 33 0 0x0 0 0
- 1.119534 2 3 tcp 1040 ------- 0 0.0 4.0 12 33 0 0x0 0 0
r 1.120617 2 3 tcp 1040 ------- 0 0.0 4.0 12 33 0 0x0 0 0
+ 1.121025 2 3 tcp 1040 ------- 0 0.0 4.0 13 34 0 0x0 0 0
- 1.121025 2 3 tcp 1040 ------- 0 0.0 4.0 13 34 0 0x0 0 0
+ 1.121783 3 4 tcp 1040 ------- 0 0.0 4.0 7 28 0 0x0 0 0
- 1.121783 3 4 tcp 1040 ------- 0 0.0 4.0 7 28 0 0x0 0 0
r 1.122108 2 3 tcp 1040 ------- 0 0.0 4.0 13 34 0 0x0 0 0
+ 1.122516 2 3 tcp 1040 ------- 0 0.0 4.0 14 35 0 0x0 0 0
- 1.122516 2 3 tcp 1040 ------- 0 0.0 4.0 14 35 0 0x0 0 0
r 1.122866 3 4 tcp 1040 ------- 0 0.0 4.0 7 28 0 0x0 0 0
+ 1.122866 4 3 ack 40 ------- 0 4.0 0.0 7 44 0 0x0 0 0
- 1.122866 4 3 ack 40 ------- 0 4.0 0.0 7 44 0 0x0 0 0
+ 1.123313 3 4 tcp 1040 ------- 0 0.0 4.0 8 29 0 0x0 0 0
- 1.123313 3 4 tcp 1040 ------- 0 0.0 4.0 8 29 0 0x0 0 0
r 1.123599 2 3 tcp 1040 ------- 0 0.0 4.0 14 35 0 0x0 0 0
r 1.12387 4 3 ack 40 ------- 0 4.0 0.0 7 44 0 0x0 0 0
r 1.124396 3 4 tcp 1040 ------- 0 0.0 4.0 8 29 0 0x0 0 0
+ 1.124396 4 3 ack 40 ------- 0 4.0 0.0 8 45 0 0x0 0 0
- 1.124396 4 3 ack 40 ------- 0 4.0 0.0 8 45 0 0x0 0 0
+ 1.124766 3 4 tcp 1040 ------- 0 0.0 4.0 9 30 0 0x0 0 0
- 1.124766 3 4 tcp 1040 ------- 0 0.0 4.0 9 30 0 0x0 0 0
r 1.1254 4 3 ack 40 ------- 0 4.0 0.0 8 45 0 0x0 0 0
r 1.125849 3 4 tcp 1040 ------- 0 0.0 4.0 9 30 0 0x0 0 0
+ 1.125849 4 3 ack 40 ------- 0 4.0 0.0 9 46 0 0x0 0 0
- 1.125849 4 3 ack 40 ------- 0 4.0 0.0 9 46 0 0x0 0 0
+ 1.12614 3 5 tcp 1040 ------- 1 1.0 5.0 7 36 0 0x0 0 0
- 1.12614 3 5 tcp 1040 ------- 1 1.0 5.0 7 36 0 0x0 0 0
+ 1.126257 3 4 tcp 1040 ------- 0 0.0 4.0 10 31 0 0x0 0 0
- 1.126257 3 4 tcp 1040 ------- 0 0.0 4.0 10 31 0 0x0 0 0
+ 1.126562 3 5 tcp 1040 ------- 1 1.0 5.0 8 37 0 0x0 0 0
- 1.126562 3 5 tcp 1040 ------- 1 1.0 5.0 8 37 0 0x0 0 0
r 1.126852 4 3 ack 40 ------- 0 4.0 0.0 9 46 0 0x0 0 0
+ 1.126984 3 5 tcp 1040 ------- 1 1.0 5.0 9 38 0 0x0 0 0
- 1.126984 3 5 tcp 1040 ------- 1 1.0 5.0 9 38 0 0x0 0 0
r 1.127223 3 5 tcp 1040 ------- 1 1.0 5.0 7 36 0 0x0 0 0
+ 1.127223 5 3 ack 40 ------- 1 5.0 1.0 7 47 0 0x0 0 0
- 1.127223 5 3 ack 40 ------- 1 5.0 1.0 7 47 0 0x0 0 0
r 1.12734 3 4 tcp 1040 ------- 0 0.0 4.0 10 31 0 0x0 0 0
+ 1.12734 4 3 ack 40 ------- 0 4.0 0.0 10 48 0 0x0 0 0
- 1.12734 4 3 ack 40 ------- 0 4.0 0.0 10 48 0 0x0 0 0
+ 1.127406 3 5 tcp 1040 ------- 1 1.0 5.0 10 39 0 0x0 0 0
- 1.127406 3 5 tcp 1040 ------- 1 1.0 5.0 10 39 0 0x0 0 0
r 1.127645 3 5 tcp 1040 ------- 1 1.0 5.0 8 37 0 0x0 0 0
+ 1.127645 5 3 ack 40 ------- 1 5.0 1.0 8 49 0 0x0 0 0
- 1.127645 5 3 ack 40 ------- 1 5.0 1.0 8 49 0 0x0 0 0
+ 1.127748 3 4 tcp 1040 ------- 0 0.0 4.0 11 32 0 0x0 0 0
- 1.127748 3 4 tcp 1040 ------- 0 0.0 4.0 11 32 0 0x0 0 0
+ 1.127828 3 5 tcp 1040 ------- 1 1.0 5.0 11 40 0 0x0 0 0
- 1.127828 3 5 tcp 1040 ------- 1 1.0 5.0 11 40 0 0x0 0 0
r 1.128067 3 5 tcp 1040 ------- 1 1.0 5.0 9 38 0 0x0 0 0
+ 1.128067 5 3 ack 40 ------- 1 5.0 1.0 9 50 0 0x0 0 0
- 1.128067 5 3 ack 40 ------- 1 5.0 1.0 9 50 0 0x0 0 0
r 1.128226 5 3 ack 40 ------- 1 5.0 1.0 7 47 0 0x0 0 0
+ 1.128251 3 5 tcp 1040 ------- 1 1.0 5.0 12 41 0 0x0 0 0
- 1.128251 3 5 tcp 1040 ------- 1 1.0 5.0 12 41 0 0x0 0 0
r 1.128344 4 3 ack 40 ------- 0 4.0 0.0 10 48 0 0x0 0 0
r 1.12849 3 5 tcp 1040 ------- 1 1.0 5.0 10 39 0 0x0 0 0
+ 1.12849 5 3 ack 40 ------- 1 5.0 1.0 10 51 0 0x0 0 0
- 1.12849 5 3 ack 40 ------- 1 5.0 1.0 10 51 0 0x0 0 0
r 1.128649 5 3 ack 40 ------- 1 5.0 1.0 8 49 0 0x0 0 0
+ 1.128673 3 5 tcp 1040 ------- 1 1.0 5.0 13 42 0 0x0 0 0
- 1.128673 3 5 tcp 1040 ------- 1 1.0 5.0 13 42 0 0x0 0 0
r 1.128832 3 4 tcp 1040 ------- 0 0.0 4.0 11 32 0 0x0 0 0
+ 1.128832 4 3 ack 40 ------- 0 4.0 0.0 11 52 0 0x0 0 0
- 1.128832 4 3 ack 40 ------- 0 4.0 0.0 11 52 0 0x0 0 0
r 1.128912 3 5 tcp 1040 ------- 1 1.0 5.0 11 40 0 0x0 0 0
+ 1.128912 5 3 ack 40 ------- 1 5.0 1.0 11 53 0 0x0 0 0
- 1.128912 5 3 ack 40 ------- 1 5.0 1.0 11 53 0 0x0 0 0
r 1.129071 5 3 ack 40 ------- 1 5.0 1.0 9 50 0 0x0 0 0
+ 1.129095 3 5 tcp 1040 ------- 1 1.0 5.0 14 43 0 0x0 0 0
- 1.129095 3 5 tcp 1040 ------- 1 1.0 5.0 14 43 0 0x0 0 0
+ 1.12924 3 4 tcp 1040 ------- 0 0.0 4.0 12 33 0 0x0 0 0
- 1.12924 3 4 tcp 1040 ------- 0 0.0 4.0 12 33 0 0x0 0 0
r 1.129334 3 5 tcp 1040 ------- 1 1.0 5.0 12 41 0 0x0 0 0
+ 1.129334 5 3 ack 40 ------- 1 5.0 1.0 12 54 0 0x0 0 0
- 1.129334 5 3 ack 40 ------- 1 5.0 1.0 12 54 0 0x0 0 0
r 1.129493 5 3 ack 40 ------- 1 5.0 1.0 10 51 0 0x0 0 0
r 1.129756 3 5 tcp 1040 ------- 1 1.0 5.0 13 42 0 0x0 0 0
+ 1.129756 5 3 ack 40 ------- 1 5.0 1.0 13 55 0 0x0 0 0
- 1.129756 5 3 ack 40 ------- 1 5.0 1.0 13 55 0 0x0 0 0
r 1.129835 4 3 ack 40 ------- 0 4.0 0.0 11 52 0 0x0 0 0
r 1.129915 5 3 ack 40 ------- 1 5.0 1.0 11 53 0 0x0 0 0
r 1.130178 3 5 tcp 1040 ------- 1 1.0 5.0 14 43 0 0x0 0 0
+ 1.130178 5 3 ack 40 ------- 1 5.0 1.0 14 56 0 0x0 0 0
- 1.130178 5 3 ack 40 ------- 1 5.0 1.0 14 56 0 0x0 0 0
r 1.130323 3 4 tcp 1040 ------- 0 0.0 4.0 12 33 0 0x0 0 0
+ 1.130323 4 3 ack 40 ------- 0 4.0 0.0 12 57 0 0x0 0 0
- 1.130323 4 3 ack 40 ------- 0 4.0 0.0 12 57 0 0x0 0 0
r 1.130337 5 3 ack 40 ------- 1 5.0 1.0 12 54 0 0x0 0 0
+ 1.130731 3 4 tcp 1040 ------- 0 0.0 4.0 13 34 0 0x0 0 0
- 1.130731 3 4 tcp 1040 ------- 0 0.0 4.0 13 34 0 0x0 0 0
r 1.130759 5 3 ack 40 ------- 1 5.0 1.0 13 55 0 0x0 0 0
r 1.131181 5 3 ack 40 ------- 1 5.0 1.0 14 56 0 0x0 0 0
r 1.131326 4 3 ack 40 ------- 0 4.0 0.0 12 57 0 0x0 0 0
r 1.131814 3 4 tcp 1040 ------- 0 0.0 4.0 13 34 0 0x0 0 0
+ 1.131814 4 3 ack 40 ------- 0 4.0 0.0 13 58 0 0x0 0 0
- 1.131814 4 3 ack 40 ------- 0 4.0 0.0 13 58 0 0x0 0 0
+ 1.132222 3 4 tcp 1040 ------- 0 0.0 4.0 14 35 0 0x0 0 0
- 1.132222 3 4 tcp 1040 ------- 0 0.0 4.0 14 35 0 0x0 0 0
+ 1.132492 3 2 ack 40 ------- 0 4.0 0.0 7 44 0 0x0 0 0
- 1.132492 3 2 ack 40 ------- 0 4.0 0.0 7 44 0 0x0 0 0
r 1.132818 4 3 ack 40 ------- 0 4.0 0.0 13 58 0 0x0 0 0
r 1.133306 3 4 tcp 1040 ------- 0 0.0 4.0 14 35 0 0x0 0 0
+ 1.133306 4 3 ack 40 ------- 0 4.0 0.0 14 59 0 0x0 0 0
- 1.133306 4 3 ack 40 ------- 0 4.0 0.0 14 59 0 0x0 0 0
r 1.133496 3 2 ack 40 ------- 0 4.0 0.0 7 44 0 0x0 0 0
+ 1.134022 3 2 ack 40 ------- 0 4.0 0.0 8 45 0 0x0 0 0
- 1.134022 3 2 ack 40 ------- 0 4.0 0.0 8 45 0 0x0 0 0
r 1.134309 4 3 ack 40 ------- 0 4.0 0.0 14 59 0 0x0 0 0
r 1.135026 3 2 ack 40 ------- 0 4.0 0.0 8 45 0 0x0 0 0
+ 1.135475 3 2 ack 40 ------- 0 4.0 0.0 9 46 0 0x0 0 0
- 1.135475 3 2 ack 40 ------- 0 4.0 0.0 9 46 0 0x0 0 0
r 1.136478 3 2 ack 40 ------- 0 4.0 0.0 9 46 0 0x0 0 0
+ 1.136966 3 2 ack 40 ------- 0 4.0 0.0 10 48 0 0x0 0 0
- 1.136966 3 2 ack 40 ------- 0 4.0 0.0 10 48 0 0x0 0 0
r 1.13797 3 2 ack 40 ------- 0 4.0 0.0 10 48 0 0x0 0 0
+ 1.138458 3 2 ack 40 ------- 0 4.0 0.0 11 52 0 0x0 0 0
- 1.138458 3 2 ack 40 ------- 0 4.0 0.0 11 52 0 0x0 0 0
r 1.139461 3 2 ack 40 ------- 0 4.0 0.0 11 52 0 0x0 0 0
+ 1.139949 3 2 ack 40 ------- 0 4.0 0.0 12 57 0 0x0 0 0
- 1.139949 3 2 ack 40 ------- 0 4.0 0.0 12 57 0 0x0 0 0
r 1.140952 3 2 ack 40 ------- 0 4.0 0.0 12 57 0 0x0 0 0
+ 1.14144 3 2 ack 40 ------- 0 4.0 0.0 13 58 0 0x0 0 0
- 1.14144 3 2 ack 40 ------- 0 4.0 0.0 13 58 0 0x0 0 0
+ 1.14187 3 2 ack 40 ------- 1 5.0 1.0 7 47 0 0x0 0 0
- 1.14187 3 2 ack 40 ------- 1 5.0 1.0 7 47 0 0x0 0 0
+ 1.142292 3 2 ack 40 ------- 1 5.0 1.0 8 49 0 0x0 0 0
- 1.142292 3 2 ack 40 ------- 1 5.0 1.0 8 49 0 0x0 0 0
r 1.142444 3 2 ack 40 ------- 0 4.0 0.0 13 58 0 0x0 0 0
+ 1.142714 3 2 ack 40 ------- 1 5.0 1.0 9 50 0 0x0 0 0
- 1.142714 3 2 ack 40 ------- 1 5.0 1.0 9 50 0 0x0 0 0
r 1.142873 3 2 ack 40 ------- 1 5.0 1.0 7 47 0 0x0 0 0
+ 1.142932 3 2 ack 40 ------- 0 4.0 0.0 14 59 0 0x0 0 0
- 1.142932 3 2 ack 40 ------- 0 4.0 0.0 14 59 0 0x0 0 0
+ 1.143136 3 2 ack 40 ------- 1 5.0 1.0 10 51 0 0x0 0 0
- 1.143136 3 2 ack 40 ------- 1 5.0 1.0 10 51 0 0x0 0 0
r 1.143295 3 2 ack 40 ------- 1 5.0 1.0 8 49 0 0x0 0 0
+ 1.143558 3 2 ack 40 ------- 1 5.0 1.0 11 53 0 0x0 0 0
- 1.143558 3 2 ack 40 ------- 1 5.0 1.0 11 53 0 0x0 0 0
r 1.143717 3 2 ack 40 ------- 1 5.0 1.0 9 50 0 0x0 0 0
r 1.143935 3 2 ack 40 ------- 0 4.0 0.0 14 59 0 0x0 0 0
+ 1.143981 3 2 ack 40 ------- 1 5.0 1.0 12 54 0 0x0 0 0
- 1.143981 3 2 ack 40 ------- 1 5.0 1.0 12 54 0 0x0 0 0
r 1.14414 3 2 ack 40 ------- 1 5.0 1.0 10 51 0 0x0 0 0
+ 1.144403 3 2 ack 40 ------- 1 5.0 1.0 13 55 0 0x0 0 0
- 1.144403 3 2 ack 40 ------- 1 5.0 1.0 13 55 0 0x0 0 0
r 1.144562 3 2 ack 40 ------- 1 5.0 1.0 11 53 0 0x0 0 0
+ 1.144825 3 2 ack 40 ------- 1 5.0 1.0 14 56 0 0x0 0 0
- 1.144825 3 2 ack 40 ------- 1 5.0 1.0 14 56 0 0x0 0 0
r 1.144984 3 2 ack 40 ------- 1 5.0 1.0 12 54 0 0x0 0 0
r 1.145406 3 2 ack 40 ------- 1 5.0 1.0 13 55 0 0x0 0 0
r 1.145828 3 2 ack 40 ------- 1 5.0 1.0 14 56 0 0x0 0 0
+ 1.172863 2 1 ack 40 ------- 1 5.0 1.0 7 47 0 0x0 0 0
- 1.172863 2 1 ack 40 ------- 1 5.0 1.0 7 47 0 0x0 0 0
+ 1.173285 2 1 ack 40 ------- 1 5.0 1.0 8 49 0 0x0 0 0
- 1.173285 2 1 ack 40 ------- 1 5.0 1.0 8 49 0 0x0 0 0
+ 1.173708 2 1 ack 40 ------- 1 5.0 1.0 9 50 0 0x0 0 0
- 1.173708 2 1 ack 40 ------- 1 5.0 1.0 9 50 0 0x0 0 0
r 1.173867 2 1 ack 40 ------- 1 5.0 1.0 7 47 0 0x0 0 0
+ 1.173867 1 2 tcp 1040 ------- 1 1.0 5.0 15 60 0 0x0 0 0
- 1.173867 1 2 tcp 1040 ------- 1 1.0 5.0 15 60 0 0x0 0 0
+ 1.173867 1 2 tcp 1040 ------- 1 1.0 5.0 16 61 0 0x0 0 0
- 1.17395 1 2 tcp 1040 ------- 1 1.0 5.0 16 61 0 0x0 0 0
+ 1.17413 2 1 ack 40 ------- 1 5.0 1.0 10 51 0 0x0 0 0
- 1.17413 2 1 ack 40 ------- 1 5.0 1.0 10 51 0 0x0 0 0
r 1.174289 2 1 ack 40 ------- 1 5.0 1.0 8 49 0 0x0 0 0
+ 1.174289 1 2 tcp 1040 ------- 1 1.0 5.0 17 62 0 0x0 0 0
- 1.174289 1 2 tcp 1040 ------- 1 1.0 5.0 17 62 0 0x0 0 0
+ 1.174289 1 2 tcp 1040 ------- 1 1.0 5.0 18 63 0 0x0 0 0
- 1.174372 1 2 tcp 1040 ------- 1 1.0 5.0 18 63 0 0x0 0 0
+ 1.174552 2 1 ack 40 ------- 1 5.0 1.0 11 53 0 0x0 0 0
- 1.174552 2 1 ack 40 ------- 1 5.0 1.0 11 53 0 0x0 0 0
r 1.174711 2 1 ack 40 ------- 1 5.0 1.0 9 50 0 0x0 0 0
+ 1.174711 1 2 tcp 1040 ------- 1 1.0 5.0 19 64 0 0x0 0 0
- 1.174711 1 2 tcp 1040 ------- 1 1.0 5.0 19 64 0 0x0 0 0
+ 1.174711 1 2 tcp 1040 ------- 1 1.0 5.0 20 65 0 0x0 0 0
- 1.174794 1 2 tcp 1040 ------- 1 1.0 5.0 20 65 0 0x0 0 0
r 1.17495 1 2 tcp 1040 ------- 1 1.0 5.0 15 60 0 0x0 0 0
+ 1.174974 2 1 ack 40 ------- 1 5.0 1.0 12 54 0 0x0 0 0
- 1.174974 2 1 ack 40 ------- 1 5.0 1.0 12 54 0 0x0 0 0
r 1.175033 1 2 tcp 1040 ------- 1 1.0 5.0 16 61 0 0x0 0 0
r 1.175133 2 1 ack 40 ------- 1 5.0 1.0 10 51 0 0x0 0 0
+ 1.175133 1 2 tcp 1040 ------- 1 1.0 5.0 21 66 0 0x0 0 0
- 1.175133 1 2 tcp 1040 ------- 1 1.0 5.0 21 66 0 0x0 0 0
+ 1.175133 1 2 tcp 1040 ------- 1 1.0 5.0 22 67 0 0x0 0 0
- 1.175216 1 2 tcp 1040 ------- 1 1.0 5.0 22 67 0 0x0 0 0
r 1.175372 1 2 tcp 1040 ------- 1 1.0 5.0 17 62 0 0x0 0 0
+ 1.175396 2 1 ack 40 ------- 1 5.0 1.0 13 55 0 0x0 0 0
- 1.175396 2 1 ack 40 ------- 1 5.0 1.0 13 55 0 0x0 0 0
r 1.175455 1 2 tcp 1040 ------- 1 1.0 5.0 18 63 0 0x0 0 0
r 1.175555 2 1 ack 40 ------- 1 5.0 1.0 11 53 0 0x0 0 0
+ 1.175555 1 2 tcp 1040 ------- 1 1.0 5.0 23 68 0 0x0 0 0
- 1.175555 1 2 tcp 1040 ------- 1 1.0 5.0 23 68 0 0x0 0 0
+ 1.175555 1 2 tcp 1040 ------- 1 1.0 5.0 24 69 0 0x0 0 0
- 1.175638 1 2 tcp 1040 ------- 1 1.0 5.0 24 69 0 0x0 0 0