+ 0.7 0 2 tcp 40 ------- 0 0.0 4.0 0 0 0 0x0 0 0
- 0.7 0 2 tcp 40 ------- 0 0.0 4.0 0 0 0 0x0 0 0
r 0.701003 0 2 tcp 40 ------- 0 0.0 4.0 0 0 0 0x0 0 0
+ 0.749677 2 3 tcp 40 ------- 0 0.0 4.0 0 0 0 0x0 0 0
- 0.749677 2 3 tcp 40 ------- 0 0.0 4.0 0 0 0 0x0 0 0
r 0.75068 2 3 tcp 40 ------- 0 0.0 4.0 0 0 0 0x0 0 0
+ 0.759303 3 4 tcp 40 ------- 0 0.0 4.0 0 0 0 0x0 0 0
- 0.759303 3 4 tcp 40 ------- 0 0.0 4.0 0 0 0 0x0 0 0
r 0.760307 3 4 tcp 40 ------- 0 0.0 4.0 0 0 0 0x0 0 0
+ 0.760307 4 3 ack 40 ------- 0 4.0 0.0 0 1 0 0x0 0 0
- 0.760307 4 3 ack 40 ------- 0 4.0 0.0 0 1 0 0x0 0 0
r 0.76131 4 3 ack 40 ------- 0 4.0 0.0 0 1 0 0x0 0 0
+ 0.76131 3 2 ack 40 ------- 0 4.0 0.0 0 1 0 0x0 0 0
- 0.76131 3 2 ack 40 ------- 0 4.0 0.0 0 1 0 0x0 0 0
r 0.762313 3 2 ack 40 ------- 0 4.0 0.0 0 1 0 0x0 0 0
+ 0.762313 2 0 ack 40 ------- 0 4.0 0.0 0 1 0 0x0 0 0
- 0.762313 2 0 ack 40 ------- 0 4.0 0.0 0 1 0 0x0 0 0
r 0.763316 2 0 ack 40 ------- 0 4.0 0.0 0 1 0 0x0 0 0
+ 0.763316 0 2 tcp 1040 ------- 0 0.0 4.0 1 2 0 0x0 0 0
- 0.763316 0 2 tcp 1040 ------- 0 0.0 4.0 1 2 0 0x0 0 0
+ 0.763316 0 2 tcp 1040 ------- 0 0.0 4.0 2 3 0 0x0 0 0
- 0.763399 0 2 tcp 1040 ------- 0 0.0 4.0 2 3 0 0x0 0 0
r 0.764399 0 2 tcp 1040 ------- 0 0.0 4.0 1 2 0 0x0 0 0
r 0.764483 0 2 tcp 1040 ------- 0 0.0 4.0 2 3 0 0x0 0 0
+ 0.8 1 2 tcp 40 ------- 1 1.0 5.0 0 4 0 0x0 0 0
- 0.8 1 2 tcp 40 ------- 1 1.0 5.0 0 4 0 0x0 0 0
r 0.801003 1 2 tcp 40 ------- 1 1.0 5.0 0 4 0 0x0 0 0
+ 0.813073 2 3 tcp 1040 ------- 0 0.0 4.0 1 2 0 0x0 0 0
- 0.813073 2 3 tcp 1040 ------- 0 0.0 4.0 1 2 0 0x0 0 0
r 0.814157 2 3 tcp 1040 ------- 0 0.0 4.0 1 2 0 0x0 0 0
+ 0.814565 2 3 tcp 1040 ------- 0 0.0 4.0 2 3 0 0x0 0 0
- 0.814565 2 3 tcp 1040 ------- 0 0.0 4.0 2 3 0 0x0 0 0
r 0.815648 2 3 tcp 1040 ------- 0 0.0 4.0 2 3 0 0x0 0 0
+ 0.82278 3 4 tcp 1040 ------- 0 0.0 4.0 1 2 0 0x0 0 0
- 0.82278 3 4 tcp 1040 ------- 0 0.0 4.0 1 2 0 0x0 0 0
r 0.823863 3 4 tcp 1040 ------- 0 0.0 4.0 1 2 0 0x0 0 0
+ 0.823863 4 3 ack 40 ------- 0 4.0 0.0 1 5 0 0x0 0 0
- 0.823863 4 3 ack 40 ------- 0 4.0 0.0 1 5 0 0x0 0 0
+ 0.824271 3 4 tcp 1040 ------- 0 0.0 4.0 2 3 0 0x0 0 0
- 0.824271 3 4 tcp 1040 ------- 0 0.0 4.0 2 3 0 0x0 0 0
r 0.824866 4 3 ack 40 ------- 0 4.0 0.0 1 5 0 0x0 0 0
+ 0.824866 3 2 ack 40 ------- 0 4.0 0.0 1 5 0 0x0 0 0
- 0.824866 3 2 ack 40 ------- 0 4.0 0.0 1 5 0 0x0 0 0
r 0.825354 3 4 tcp 1040 ------- 0 0.0 4.0 2 3 0 0x0 0 0
+ 0.825354 4 3 ack 40 ------- 0 4.0 0.0 2 6 0 0x0 0 0
- 0.825354 4 3 ack 40 ------- 0 4.0 0.0 2 6 0 0x0 0 0
r 0.825869 3 2 ack 40 ------- 0 4.0 0.0 1 5 0 0x0 0 0
+ 0.825869 2 0 ack 40 ------- 0 4.0 0.0 1 5 0 0x0 0 0
- 0.825869 2 0 ack 40 ------- 0 4.0 0.0 1 5 0 0x0 0 0
r 0.826357 4 3 ack 40 ------- 0 4.0 0.0 2 6 0 0x0 0 0
+ 0.826357 3 2 ack 40 ------- 0 4.0 0.0 2 6 0 0x0 0 0
- 0.826357 3 2 ack 40 ------- 0 4.0 0.0 2 6 0 0x0 0 0
r 0.826872 2 0 ack 40 ------- 0 4.0 0.0 1 5 0 0x0 0 0
+ 0.826872 0 2 tcp 1040 ------- 0 0.0 4.0 3 7 0 0x0 0 0
- 0.826872 0 2 tcp 1040 ------- 0 0.0 4.0 3 7 0 0x0 0 0
+ 0.826872 0 2 tcp 1040 ------- 0 0.0 4.0 4 8 0 0x0 0 0
- 0.826956 0 2 tcp 1040 ------- 0 0.0 4.0 4 8 0 0x0 0 0
r 0.827361 3 2 ack 40 ------- 0 4.0 0.0 2 6 0 0x0 0 0
+ 0.827361 2 0 ack 40 ------- 0 4.0 0.0 2 6 0 0x0 0 0
- 0.827361 2 0 ack 40 ------- 0 4.0 0.0 2 6 0 0x0 0 0
r 0.827956 0 2 tcp 1040 ------- 0 0.0 4.0 3 7 0 0x0 0 0
r 0.828039 0 2 tcp 1040 ------- 0 0.0 4.0 4 8 0 0x0 0 0
r 0.828364 2 0 ack 40 ------- 0 4.0 0.0 2 6 0 0x0 0 0
+ 0.828364 0 2 tcp 1040 ------- 0 0.0 4.0 5 9 0 0x0 0 0
- 0.828364 0 2 tcp 1040 ------- 0 0.0 4.0 5 9 0 0x0 0 0
+ 0.828364 0 2 tcp 1040 ------- 0 0.0 4.0 6 10 0 0x0 0 0
- 0.828447 0 2 tcp 1040 ------- 0 0.0 4.0 6 10 0 0x0 0 0
r 0.829447 0 2 tcp 1040 ------- 0 0.0 4.0 5 9 0 0x0 0 0
r 0.82953 0 2 tcp 1040 ------- 0 0.0 4.0 6 10 0 0x0 0 0
+ 0.830993 2 3 tcp 40 ------- 1 1.0 5.0 0 4 0 0x0 0 0
- 0.830993 2 3 tcp 40 ------- 1 1.0 5.0 0 4 0 0x0 0 0
r 0.831997 2 3 tcp 40 ------- 1 1.0 5.0 0 4 0 0x0 0 0
+ 0.84564 3 5 tcp 40 ------- 1 1.0 5.0 0 4 0 0x0 0 0
- 0.84564 3 5 tcp 40 ------- 1 1.0 5.0 0 4 0 0x0 0 0
r 0.846643 3 5 tcp 40 ------- 1 1.0 5.0 0 4 0 0x0 0 0
+ 0.846643 5 3 ack 40 ------- 1 5.0 1.0 0 11 0 0x0 0 0
- 0.846643 5 3 ack 40 ------- 1 5.0 1.0 0 11 0 0x0 0 0
r 0.847647 5 3 ack 40 ------- 1 5.0 1.0 0 11 0 0x0 0 0
+ 0.847647 3 2 ack 40 ------- 1 5.0 1.0 0 11 0 0x0 0 0
- 0.847647 3 2 ack 40 ------- 1 5.0 1.0 0 11 0 0x0 0 0
r 0.84865 3 2 ack 40 ------- 1 5.0 1.0 0 11 0 0x0 0 0
+ 0.84865 2 1 ack 40 ------- 1 5.0 1.0 0 11 0 0x0 0 0
- 0.84865 2 1 ack 40 ------- 1 5.0 1.0 0 11 0 0x0 0 0
r 0.849653 2 1 ack 40 ------- 1 5.0 1.0 0 11 0 0x0 0 0
+ 0.849653 1 2 tcp 1040 ------- 1 1.0 5.0 1 12 0 0x0 0 0
- 0.849653 1 2 tcp 1040 ------- 1 1.0 5.0 1 12 0 0x0 0 0
+ 0.849653 1 2 tcp 1040 ------- 1 1.0 5.0 2 13 0 0x0 0 0
- 0.849736 1 2 tcp 1040 ------- 1 1.0 5.0 2 13 0 0x0 0 0
r 0.850736 1 2 tcp 1040 ------- 1 1.0 5.0 1 12 0 0x0 0 0
r 0.850819 1 2 tcp 1040 ------- 1 1.0 5.0 2 13 0 0x0 0 0
+ 0.87663 2 3 tcp 1040 ------- 0 0.0 4.0 3 7 0 0x0 0 0
- 0.87663 2 3 tcp 1040 ------- 0 0.0 4.0 3 7 0 0x0 0 0
r 0.877713 2 3 tcp 1040 ------- 0 0.0 4.0 3 7 0 0x0 0 0
+ 0.878121 2 3 tcp 1040 ------- 0 0.0 4.0 4 8 0 0x0 0 0
- 0.878121 2 3 tcp 1040 ------- 0 0.0 4.0 4 8 0 0x0 0 0
r 0.879204 2 3 tcp 1040 ------- 0 0.0 4.0 4 8 0 0x0 0 0
+ 0.879612 2 3 tcp 1040 ------- 0 0.0 4.0 5 9 0 0x0 0 0
- 0.879612 2 3 tcp 1040 ------- 0 0.0 4.0 5 9 0 0x0 0 0
r 0.880696 2 3 tcp 1040 ------- 0 0.0 4.0 5 9 0 0x0 0 0
+ 0.880726 2 3 tcp 1040 ------- 1 1.0 5.0 1 12 0 0x0 0 0
- 0.880726 2 3 tcp 1040 ------- 1 1.0 5.0 1 12 0 0x0 0 0
+ 0.881104 2 3 tcp 1040 ------- 0 0.0 4.0 6 10 0 0x0 0 0
- 0.881104 2 3 tcp 1040 ------- 0 0.0 4.0 6 10 0 0x0 0 0
+ 0.881148 2 3 tcp 1040 ------- 1 1.0 5.0 2 13 0 0x0 0 0
- 0.881187 2 3 tcp 1040 ------- 1 1.0 5.0 2 13 0 0x0 0 0
r 0.881809 2 3 tcp 1040 ------- 1 1.0 5.0 1 12 0 0x0 0 0
r 0.882187 2 3 tcp 1040 ------- 0 0.0 4.0 6 10 0 0x0 0 0
r 0.88227 2 3 tcp 1040 ------- 1 1.0 5.0 2 13 0 0x0 0 0
+ 0.886336 3 4 tcp 1040 ------- 0 0.0 4.0 3 7 0 0x0 0 0
- 0.886336 3 4 tcp 1040 ------- 0 0.0 4.0 3 7 0 0x0 0 0
r 0.887419 3 4 tcp 1040 ------- 0 0.0 4.0 3 7 0 0x0 0 0
+ 0.887419 4 3 ack 40 ------- 0 4.0 0.0 3 14 0 0x0 0 0
- 0.887419 4 3 ack 40 ------- 0 4.0 0.0 3 14 0 0x0 0 0
+ 0.887827 3 4 tcp 1040 ------- 0 0.0 4.0 4 8 0 0x0 0 0
- 0.887827 3 4 tcp 1040 ------- 0 0.0 4.0 4 8 0 0x0 0 0
r 0.888422 4 3 ack 40 ------- 0 4.0 0.0 3 14 0 0x0 0 0
+ 0.888422 3 2 ack 40 ------- 0 4.0 0.0 3 14 0 0x0 0 0
- 0.888422 3 2 ack 40 ------- 0 4.0 0.0 3 14 0 0x0 0 0
r 0.88891 3 4 tcp 1040 ------- 0 0.0 4.0 4 8 0 0x0 0 0
+ 0.88891 4 3 ack 40 ------- 0 4.0 0.0 4 15 0 0x0 0 0
- 0.88891 4 3 ack 40 ------- 0 4.0 0.0 4 15 0 0x0 0 0
+ 0.889319 3 4 tcp 1040 ------- 0 0.0 4.0 5 9 0 0x0 0 0
- 0.889319 3 4 tcp 1040 ------- 0 0.0 4.0 5 9 0 0x0 0 0
r 0.889425 3 2 ack 40 ------- 0 4.0 0.0 3 14 0 0x0 0 0
+ 0.889425 2 0 ack 40 ------- 0 4.0 0.0 3 14 0 0x0 0 0
- 0.889425 2 0 ack 40 ------- 0 4.0 0.0 3 14 0 0x0 0 0
r 0.889914 4 3 ack 40 ------- 0 4.0 0.0 4 15 0 0x0 0 0
+ 0.889914 3 2 ack 40 ------- 0 4.0 0.0 4 15 0 0x0 0 0
- 0.889914 3 2 ack 40 ------- 0 4.0 0.0 4 15 0 0x0 0 0
r 0.890402 3 4 tcp 1040 ------- 0 0.0 4.0 5 9 0 0x0 0 0
+ 0.890402 4 3 ack 40 ------- 0 4.0 0.0 5 16 0 0x0 0 0
- 0.890402 4 3 ack 40 ------- 0 4.0 0.0 5 16 0 0x0 0 0
r 0.890429 2 0 ack 40 ------- 0 4.0 0.0 3 14 0 0x0 0 0
+ 0.890429 0 2 tcp 1040 ------- 0 0.0 4.0 7 17 0 0x0 0 0
- 0.890429 0 2 tcp 1040 ------- 0 0.0 4.0 7 17 0 0x0 0 0
+ 0.890429 0 2 tcp 1040 ------- 0 0.0 4.0 8 18 0 0x0 0 0
- 0.890512 0 2 tcp 1040 ------- 0 0.0 4.0 8 18 0 0x0 0 0
+ 0.89081 3 4 tcp 1040 ------- 0 0.0 4.0 6 10 0 0x0 0 0
- 0.89081 3 4 tcp 1040 ------- 0 0.0 4.0 6 10 0 0x0 0 0
r 0.890917 3 2 ack 40 ------- 0 4.0 0.0 4 15 0 0x0 0 0
+ 0.890917 2 0 ack 40 ------- 0 4.0 0.0 4 15 0 0x0 0 0
- 0.890917 2 0 ack 40 ------- 0 4.0 0.0 4 15 0 0x0 0 0
r 0.891405 4 3 ack 40 ------- 0 4.0 0.0 5 16 0 0x0 0 0
+ 0.891405 3 2 ack 40 ------- 0 4.0 0.0 5 16 0 0x0 0 0
- 0.891405 3 2 ack 40 ------- 0 4.0 0.0 5 16 0 0x0 0 0
r 0.891512 0 2 tcp 1040 ------- 0 0.0 4.0 7 17 0 0x0 0 0
r 0.891595 0 2 tcp 1040 ------- 0 0.0 4.0 8 18 0 0x0 0 0
r 0.891893 3 4 tcp 1040 ------- 0 0.0 4.0 6 10 0 0x0 0 0
+ 0.891893 4 3 ack 40 ------- 0 4.0 0.0 6 19 0 0x0 0 0
- 0.891893 4 3 ack 40 ------- 0 4.0 0.0 6 19 0 0x0 0 0
r 0.89192 2 0 ack 40 ------- 0 4.0 0.0 4 15 0 0x0 0 0
+ 0.89192 0 2 tcp 1040 ------- 0 0.0 4.0 9 20 0 0x0 0 0
- 0.89192 0 2 tcp 1040 ------- 0 0.0 4.0 9 20 0 0x0 0 0
+ 0.89192 0 2 tcp 1040 ------- 0 0.0 4.0 10 21 0 0x0 0 0
- 0.892003 0 2 tcp 1040 ------- 0 0.0 4.0 10 21 0 0x0 0 0
r 0.892408 3 2 ack 40 ------- 0 4.0 0.0 5 16 0 0x0 0 0
+ 0.892408 2 0 ack 40 ------- 0 4.0 0.0 5 16 0 0x0 0 0
- 0.892408 2 0 ack 40 ------- 0 4.0 0.0 5 16 0 0x0 0 0
r 0.892896 4 3 ack 40 ------- 0 4.0 0.0 6 19 0 0x0 0 0
+ 0.892896 3 2 ack 40 ------- 0 4.0 0.0 6 19 0 0x0 0 0
- 0.892896 3 2 ack 40 ------- 0 4.0 0.0 6 19 0 0x0 0 0
r 0.893003 0 2 tcp 1040 ------- 0 0.0 4.0 9 20 0 0x0 0 0
r 0.893086 0 2 tcp 1040 ------- 0 0.0 4.0 10 21 0 0x0 0 0
r 0.893411 2 0 ack 40 ------- 0 4.0 0.0 5 16 0 0x0 0 0
+ 0.893411 0 2 tcp 1040 ------- 0 0.0 4.0 11 22 0 0x0 0 0
- 0.893411 0 2 tcp 1040 ------- 0 0.0 4.0 11 22 0 0x0 0 0
+ 0.893411 0 2 tcp 1040 ------- 0 0.0 4.0 12 23 0 0x0 0 0
- 0.893495 0 2 tcp 1040 ------- 0 0.0 4.0 12 23 0 0x0 0 0
r 0.893899 3 2 ack 40 ------- 0 4.0 0.0 6 19 0 0x0 0 0
+ 0.893899 2 0 ack 40 ------- 0 4.0 0.0 6 19 0 0x0 0 0
- 0.893899 2 0 ack 40 ------- 0 4.0 0.0 6 19 0 0x0 0 0
r 0.894495 0 2 tcp 1040 ------- 0 0.0 4.0 11 22 0 0x0 0 0
r 0.894578 0 2 tcp 1040 ------- 0 0.0 4.0 12 23 0 0x0 0 0
r 0.894903 2 0 ack 40 ------- 0 4.0 0.0 6 19 0 0x0 0 0
+ 0.894903 0 2 tcp 1040 ------- 0 0.0 4.0 13 24 0 0x0 0 0
- 0.894903 0 2 tcp 1040 ------- 0 0.0 4.0 13 24 0 0x0 0 0
+ 0.894903 0 2 tcp 1040 ------- 0 0.0 4.0 14 25 0 0x0 0 0
- 0.894986 0 2 tcp 1040 ------- 0 0.0 4.0 14 25 0 0x0 0 0
+ 0.895453 3 5 tcp 1040 ------- 1 1.0 5.0 1 12 0 0x0 0 0
- 0.895453 3 5 tcp 1040 ------- 1 1.0 5.0 1 12 0 0x0 0 0
+ 0.895914 3 5 tcp 1040 ------- 1 1.0 5.0 2 13 0 0x0 0 0
- 0.895914 3 5 tcp 1040 ------- 1 1.0 5.0 2 13 0 0x0 0 0
r 0.895986 0 2 tcp 1040 ------- 0 0.0 4.0 13 24 0 0x0 0 0
r 0.896069 0 2 tcp 1040 ------- 0 0.0 4.0 14 25 0 0x0 0 0
r 0.896536 3 5 tcp 1040 ------- 1 1.0 5.0 1 12 0 0x0 0 0
+ 0.896536 5 3 ack 40 ------- 1 5.0 1.0 1 26 0 0x0 0 0
- 0.896536 5 3 ack 40 ------- 1 5.0 1.0 1 26 0 0x0 0 0
r 0.896997 3 5 tcp 1040 ------- 1 1.0 5.0 2 13 0 0x0 0 0
+ 0.896997 5 3 ack 40 ------- 1 5.0 1.0 2 27 0 0x0 0 0
- 0.896997 5 3 ack 40 ------- 1 5.0 1.0 2 27 0 0x0 0 0
r 0.897539 5 3 ack 40 ------- 1 5.0 1.0 1 26 0 0x0 0 0
+ 0.897539 3 2 ack 40 ------- 1 5.0 1.0 1 26 0 0x0 0 0
- 0.897539 3 2 ack 40 ------- 1 5.0 1.0 1 26 0 0x0 0 0
r 0.898 5 3 ack 40 ------- 1 5.0 1.0 2 27 0 0x0 0 0
+ 0.898 3 2 ack 40 ------- 1 5.0 1.0 2 27 0 0x0 0 0
- 0.898 3 2 ack 40 ------- 1 5.0 1.0 2 27 0 0x0 0 0
r 0.898543 3 2 ack 40 ------- 1 5.0 1.0 1 26 0 0x0 0 0
+ 0.898543 2 1 ack 40 ------- 1 5.0 1.0 1 26 0 0x0 0 0
- 0.898543 2 1 ack 40 ------- 1 5.0 1.0 1 26 0 0x0 0 0
r 0.899003 3 2 ack 40 ------- 1 5.0 1.0 2 27 0 0x0 0 0
+ 0.899003 2 1 ack 40 ------- 1 5.0 1.0 2 27 0 0x0 0 0
- 0.899003 2 1 ack 40 ------- 1 5.0 1.0 2 27 0 0x0 0 0
r 0.899546 2 1 ack 40 ------- 1 5.0 1.0 1 26 0 0x0 0 0
+ 0.899546 1 2 tcp 1040 ------- 1 1.0 5.0 3 28 0 0x0 0 0
- 0.899546 1 2 tcp 1040 ------- 1 1.0 5.0 3 28 0 0x0 0 0
+ 0.899546 1 2 tcp 1040 ------- 1 1.0 5.0 4 29 0 0x0 0 0
- 0.899629 1 2 tcp 1040 ------- 1 1.0 5.0 4 29 0 0x0 0 0
r 0.900006 2 1 ack 40 ------- 1 5.0 1.0 2 27 0 0x0 0 0
+ 0.900006 1 2 tcp 1040 ------- 1 1.0 5.0 5 30 0 0x0 0 0
- 0.900006 1 2 tcp 1040 ------- 1 1.0 5.0 5 30 0 0x0 0 0
+ 0.900006 1 2 tcp 1040 ------- 1 1.0 5.0 6 31 0 0x0 0 0
- 0.90009 1 2 tcp 1040 ------- 1 1.0 5.0 6 31 0 0x0 0 0
r 0.900629 1 2 tcp 1040 ------- 1 1.0 5.0 3 28 0 0x0 0 0
r 0.900712 1 2 tcp 1040 ------- 1 1.0 5.0 4 29 0 0x0 0 0
r 0.90109 1 2 tcp 1040 ------- 1 1.0 5.0 5 30 0 0x0 0 0
r 0.901173 1 2 tcp 1040 ------- 1 1.0 5.0 6 31 0 0x0 0 0
+ 0.930619 2 3 tcp 1040 ------- 1 1.0 5.0 3 28 0 0x0 0 0
- 0.930619 2 3 tcp 1040 ------- 1 1.0 5.0 3 28 0 0x0 0 0
+ 0.931041 2 3 tcp 1040 ------- 1 1.0 5.0 4 29 0 0x0 0 0
- 0.931041 2 3 tcp 1040 ------- 1 1.0 5.0 4 29 0 0x0 0 0
+ 0.931463 2 3 tcp 1040 ------- 1 1.0 5.0 5 30 0 0x0 0 0
- 0.931463 2 3 tcp 1040 ------- 1 1.0 5.0 5 30 0 0x0 0 0
r 0.931702 2 3 tcp 1040 ------- 1 1.0 5.0 3 28 0 0x0 0 0
+ 0.931885 2 3 tcp 1040 ------- 1 1.0 5.0 6 31 0 0x0 0 0
- 0.931885 2 3 tcp 1040 ------- 1 1.0 5.0 6 31 0 0x0 0 0
r 0.932124 2 3 tcp 1040 ------- 1 1.0 5.0 4 29 0 0x0 0 0
r 0.932547 2 3 tcp 1040 ------- 1 1.0 5.0 5 30 0 0x0 0 0
r 0.932969 2 3 tcp 1040 ------- 1 1.0 5.0 6 31 0 0x0 0 0
+ 0.940186 2 3 tcp 1040 ------- 0 0.0 4.0 7 17 0 0x0 0 0
- 0.940186 2 3 tcp 1040 ------- 0 0.0 4.0 7 17 0 0x0 0 0
r 0.941269 2 3 tcp 1040 ------- 0 0.0 4.0 7 17 0 0x0 0 0
+ 0.941677 2 3 tcp 1040 ------- 0 0.0 4.0 8 18 0 0x0 0 0
- 0.941677 2 3 tcp 1040 ------- 0 0.0 4.0 8 18 0 0x0 0 0
r 0.94276 2 3 tcp 1040 ------- 0 0.0 4.0 8 18 0 0x0 0 0
+ 0.943169 2 3 tcp 1040 ------- 0 0.0 4.0 9 20 0 0x0 0 0
- 0.943169 2 3 tcp 1040 ------- 0 0.0 4.0 9 20 0 0x0 0 0
r 0.944252 2 3 tcp 1040 ------- 0 0.0 4.0 9 20 0 0x0 0 0
+ 0.94466 2 3 tcp 1040 ------- 0 0.0 4.0 10 21 0 0x0 0 0
- 0.94466 2 3 tcp 1040 ------- 0 0.0 4.0 10 21 0 0x0 0 0
+ 0.945346 3 5 tcp 1040 ------- 1 1.0 5.0 3 28 0 0x0 0 0
- 0.945346 3 5 tcp 1040 ------- 1 1.0 5.0 3 28 0 0x0 0 0
r 0.945743 2 3 tcp 1040 ------- 0 0.0 4.0 10 21 0 0x0 0 0
+ 0.945768 3 5 tcp 1040 ------- 1 1.0 5.0 4 29 0 0x0 0 0
- 0.945768 3 5 tcp 1040 ------- 1 1.0 5.0 4 29 0 0x0 0 0
+ 0.946151 2 3 tcp 1040 ------- 0 0.0 4.0 11 22 0 0x0 0 0
- 0.946151 2 3 tcp 1040 ------- 0 0.0 4.0 11 22 0 0x0 0 0
+ 0.94619 3 5 tcp 1040 ------- 1 1.0 5.0 5 30 0 0x0 0 0
- 0.94619 3 5 tcp 1040 ------- 1 1.0 5.0 5 30 0 0x0 0 0
r 0.946429 3 5 tcp 1040 ------- 1 1.0 5.0 3 28 0 0x0 0 0
+ 0.946429 5 3 ack 40 ------- 1 5.0 1.0 3 32 0 0x0 0 0
- 0.946429 5 3 ack 40 ------- 1 5.0 1.0 3 32 0 0x0 0 0
+ 0.946612 3 5 tcp 1040 ------- 1 1.0 5.0 6 31 0 0x0 0 0
- 0.946612 3 5 tcp 1040 ------- 1 1.0 5.0 6 31 0 0x0 0 0
r 0.946851 3 5 tcp 1040 ------- 1 1.0 5.0 4 29 0 0x0 0 0
+ 0.946851 5 3 ack 40 ------- 1 5.0 1.0 4 33 0 0x0 0 0
- 0.946851 5 3 ack 40 ------- 1 5.0 1.0 4 33 0 0x0 0 0
r 0.947234 2 3 tcp 1040 ------- 0 0.0 4.0 11 22 0 0x0 0 0
r 0.947273 3 5 tcp 1040 ------- 1 1.0 5.0 5 30 0 0x0 0 0
+ 0.947273 5 3 ack 40 ------- 1 5.0 1.0 5 34 0 0x0 0 0
- 0.947273 5 3 ack 40 ------- 1 5.0 1.0 5 34 0 0x0 0 0
r 0.947432 5 3 ack 40 ------- 1 5.0 1.0 3 32 0 0x0 0 0
+ 0.947432 3 2 ack 40 ------- 1 5.0 1.0 3 32 0 0x0 0 0
- 0.947432 3 2 ack 40 ------- 1 5.0 1.0 3 32 0 0x0 0 0
+ 0.947643 2 3 tcp 1040 ------- 0 0.0 4.0 12 23 0 0x0 0 0
- 0.947643 2 3 tcp 1040 ------- 0 0.0 4.0 12 23 0 0x0 0 0
r 0.947695 3 5 tcp 1040 ------- 1 1.0 5.0 6 31 0 0x0 0 0
+ 0.947695 5 3 ack 40 ------- 1 5.0 1.0 6 35 0 0x0 0 0
- 0.947695 5 3 ack 40 ------- 1 5.0 1.0 6 35 0 0x0 0 0
r 0.947854 5 3 ack 40 ------- 1 5.0 1.0 4 33 0 0x0 0 0
+ 0.947854 3 2 ack 40 ------- 1 5.0 1.0 4 33 0 0x0 0 0
- 0.947854 3 2 ack 40 ------- 1 5.0 1.0 4 33 0 0x0 0 0
r 0.948277 5 3 ack 40 ------- 1 5.0 1.0 5 34 0 0x0 0 0
+ 0.948277 3 2 ack 40 ------- 1 5.0 1.0 5 34 0 0x0 0 0
- 0.948277 3 2 ack 40 ------- 1 5.0 1.0 5 34 0 0x0 0 0
r 0.948436 3 2 ack 40 ------- 1 5.0 1.0 3 32 0 0x0 0 0
+ 0.948436 2 1 ack 40 ------- 1 5.0 1.0 3 32 0 0x0 0 0
- 0.948436 2 1 ack 40 ------- 1 5.0 1.0 3 32 0 0x0 0 0
r 0.948699 5 3 ack 40 ------- 1 5.0 1.0 6 35 0 0x0 0 0
+ 0.948699 3 2 ack 40 ------- 1 5.0 1.0 6 35 0 0x0 0 0
- 0.948699 3 2 ack 40 ------- 1 5.0 1.0 6 35 0 0x0 0 0
r 0.948726 2 3 tcp 1040 ------- 0 0.0 4.0 12 23 0 0x0 0 0
r 0.948858 3 2 ack 40 ------- 1 5.0 1.0 4 33 0 0x0 0 0
+ 0.948858 2 1 ack 40 ------- 1 5.0 1.0 4 33 0 0x0 0 0
- 0.948858 2 1 ack 40 ------- 1 5.0 1.0 4 33 0 0x0 0 0
+ 0.949134 2 3 tcp 1040 ------- 0 0.0 4.0 13 24 0 0x0 0 0
- 0.949134 2 3 tcp 1040 ------- 0 0.0 4.0 13 24 0 0x0 0 0
r 0.94928 3 2 ack 40 ------- 1 5.0 1.0 5 34 0 0x0 0 0
+ 0.94928 2 1 ack 40 ------- 1 5.0 1.0 5 34 0 0x0 0 0
- 0.94928 2 1 ack 40 ------- 1 5.0 1.0 5 34 0 0x0 0 0
r 0.949439 2 1 ack 40 ------- 1 5.0 1.0 3 32 0 0x0 0 0
+ 0.949439 1 2 tcp 1040 ------- 1 1.0 5.0 7 36 0 0x0 0 0
- 0.949439 1 2 tcp 1040 ------- 1 1.0 5.0 7 36 0 0x0 0 0
+ 0.949439 1 2 tcp 1040 ------- 1 1.0 5.0 8 37 0 0x0 0 0
- 0.949522 1 2 tcp 1040 ------- 1 1.0 5.0 8 37 0 0x0 0 0
r 0.949702 3 2 ack 40 ------- 1 5.0 1.0 6 35 0 0x0 0 0
+ 0.949702 2 1 ack 40 ------- 1 5.0 1.0 6 35 0 0x0 0 0
- 0.949702 2 1 ack 40 ------- 1 5.0 1.0 6 35 0 0x0 0 0
r 0.949861 2 1 ack 40 ------- 1 5.0 1.0 4 33 0 0x0 0 0
+ 0.949861 1 2 tcp 1040 ------- 1 1.0 5.0 9 38 0 0x0 0 0
- 0.949861 1 2 tcp 1040 ------- 1 1.0 5.0 9 38 0 0x0 0 0
+ 0.949861 1 2 tcp 1040 ------- 1 1.0 5.0 10 39 0 0x0 0 0
+ 0.949892 3 4 tcp 1040 ------- 0 0.0 4.0 7 17 0 0x0 0 0
- 0.949892 3 4 tcp 1040 ------- 0 0.0 4.0 7 17 0 0x0 0 0
- 0.949944 1 2 tcp 1040 ------- 1 1.0 5.0 10 39 0 0x0 0 0
r 0.950217 2 3 tcp 1040 ------- 0 0.0 4.0 13 24 0 0x0 0 0
r 0.950283 2 1 ack 40 ------- 1 5.0 1.0 5 34 0 0x0 0 0
+ 0.950283 1 2 tcp 1040 ------- 1 1.0 5.0 11 40 0 0x0 0 0
- 0.950283 1 2 tcp 1040 ------- 1 1.0 5.0 11 40 0 0x0 0 0
+ 0.950283 1 2 tcp 1040 ------- 1 1.0 5.0 12 41 0 0x0 0 0
- 0.950366 1 2 tcp 1040 ------- 1 1.0 5.0 12 41 0 0x0 0 0
r 0.950522 1 2 tcp 1040 ------- 1 1.0 5.0 7 36 0 0x0 0 0
r 0.950605 1 2 tcp 1040 ------- 1 1.0 5.0 8 37 0 0x0 0 0
+ 0.950625 2 3 tcp 1040 ------- 0 0.0 4.0 14 25 0 0x0 0 0
- 0.950625 2 3 tcp 1040 ------- 0 0.0 4.0 14 25 0 0x0 0 0
r 0.950705 2 1 ack 40 ------- 1 5.0 1.0 6 35 0 0x0 0 0
+ 0.950705 1 2 tcp 1040 ------- 1 1.0 5.0 13 42 0 0x0 0 0
- 0.950705 1 2 tcp 1040 ------- 1 1.0 5.0 13 42 0 0x0 0 0
+ 0.950705 1 2 tcp 1040 ------- 1 1.0 5.0 14 43 0 0x0 0 0
- 0.950788 1 2 tcp 1040 ------- 1 1.0 5.0 14 43 0 0x0 0 0
r 0.950944 1 2 tcp 1040 ------- 1 1.0 5.0 9 38 0 0x0 0 0
r 0.950975 3 4 tcp 1040 ------- 0 0.0 4.0 7 17 0 0x0 0 0
+ 0.950975 4 3 ack 40 ------- 0 4.0 0.0 7 44 0 0x0 0 0
- 0.950975 4 3 ack 40 ------- 0 4.0 0.0 7 44 0 0x0 0 0
r 0.951027 1 2 tcp 1040 ------- 1 1.0 5.0 10 39 0 0x0 0 0
r 0.951366 1 2 tcp 1040 ------- 1 1.0 5.0 11 40 0 0x0 0 0
+ 0.951383 3 4 tcp 1040 ------- 0 0.0 4.0 8 18 0 0x0 0 0
- 0.951383 3 4 tcp 1040 ------- 0 0.0 4.0 8 18 0 0x0 0 0
r 0.951449 1 2 tcp 1040 ------- 1 1.0 5.0 12 41 0 0x0 0 0
r 0.951708 2 3 tcp 1040 ------- 0 0.0 4.0 14 25 0 0x0 0 0
r 0.951788 1 2 tcp 1040 ------- 1 1.0 5.0 13 42 0 0x0 0 0
r 0.951871 1 2 tcp 1040 ------- 1 1.0 5.0 14 43 0 0x0 0 0
r 0.951978 4 3 ack 40 ------- 0 4.0 0.0 7 44 0 0x0 0 0
+ 0.951978 3 2 ack 40 ------- 0 4.0 0.0 7 44 0 0x0 0 0
- 0.951978 3 2 ack 40 ------- 0 4.0 0.0 7 44 0 0x0 0 0
r 0.952467 3 4 tcp 1040 ------- 0 0.0 4.0 8 18 0 0x0 0 0
+ 0.952467 4 3 ack 40 ------- 0 4.0 0.0 8 45 0 0x0 0 0
- 0.952467 4 3 ack 40 ------- 0 4.0 0.0 8 45 0 0x0 0 0
+ 0.952875 3 4 tcp 1040 ------- 0 0.0 4.0 9 20 0 0x0 0 0
- 0.952875 3 4 tcp 1040 ------- 0 0.0 4.0 9 20 0 0x0 0 0
r 0.952982 3 2 ack 40 ------- 0 4.0 0.0 7 44 0 0x0 0 0
+ 0.952982 2 0 ack 40 ------- 0 4.0 0.0 7 44 0 0x0 0 0
- 0.952982 2 0 ack 40 ------- 0 4.0 0.0 7 44 0 0x0 0 0
r 0.95347 4 3 ack 40 ------- 0 4.0 0.0 8 45 0 0x0 0 0
+ 0.95347 3 2 ack 40 ------- 0 4.0 0.0 8 45 0 0x0 0 0
- 0.95347 3 2 ack 40 ------- 0 4.0 0.0 8 45 0 0x0 0 0
r 0.953958 3 4 tcp 1040 ------- 0 0.0 4.0 9 20 0 0x0 0 0
+ 0.953958 4 3 ack 40 ------- 0 4.0 0.0 9 46 0 0x0 0 0
- 0.953958 4 3 ack 40 ------- 0 4.0 0.0 9 46 0 0x0 0 0
r 0.953985 2 0 ack 40 ------- 0 4.0 0.0 7 44 0 0x0 0 0
+ 0.953985 0 2 tcp 1040 ------- 0 0.0 4.0 15 47 0 0x0 0 0
- 0.953985 0 2 tcp 1040 ------- 0 0.0 4.0 15 47 0 0x0 0 0
+ 0.953985 0 2 tcp 1040 ------- 0 0.0 4.0 16 48 0 0x0 0 0
- 0.954068 0 2 tcp 1040 ------- 0 0.0 4.0 16 48 0 0x0 0 0
+ 0.954366 3 4 tcp 1040 ------- 0 0.0 4.0 10 21 0 0x0 0 0
- 0.954366 3 4 tcp 1040 ------- 0 0.0 4.0 10 21 0 0x0 0 0
r 0.954473 3 2 ack 40 ------- 0 4.0 0.0 8 45 0 0x0 0 0
+ 0.954473 2 0 ack 40 ------- 0 4.0 0.0 8 45 0 0x0 0 0
- 0.954473 2 0 ack 40 ------- 0 4.0 0.0 8 45 0 0x0 0 0
r 0.954961 4 3 ack 40 ------- 0 4.0 0.0 9 46 0 0x0 0 0
+ 0.954961 3 2 ack 40 ------- 0 4.0 0.0 9 46 0 0x0 0 0
- 0.954961 3 2 ack 40 ------- 0 4.0 0.0 9 46 0 0x0 0 0
r 0.955068 0 2 tcp 1040 ------- 0 0.0 4.0 15 47 0 0x0 0 0
r 0.955151 0 2 tcp 1040 ------- 0 0.0 4.0 16 48 0 0x0 0 0
r 0.955449 3 4 tcp 1040 ------- 0 0.0 4.0 10 21 0 0x0 0 0
+ 0.955449 4 3 ack 40 ------- 0 4.0 0.0 10 49 0 0x0 0 0
- 0.955449 4 3 ack 40 ------- 0 4.0 0.0 10 49 0 0x0 0 0
r 0.955476 2 0 ack 40 ------- 0 4.0 0.0 8 45 0 0x0 0 0
+ 0.955476 0 2 tcp 1040 ------- 0 0.0 4.0 17 50 0 0x0 0 0
- 0.955476 0 2 tcp 1040 ------- 0 0.0 4.0 17 50 0 0x0 0 0
+ 0.955476 0 2 tcp 1040 ------- 0 0.0 4.0 18 51 0 0x0 0 0
- 0.955559 0 2 tcp 1040 ------- 0 0.0 4.0 18 51 0 0x0 0 0
+ 0.955857 3 4 tcp 1040 ------- 0 0.0 4.0 11 22 0 0x0 0 0
- 0.955857 3 4 tcp 1040 ------- 0 0.0 4.0 11 22 0 0x0 0 0
r 0.955964 3 2 ack 40 ------- 0 4.0 0.0 9 46 0 0x0 0 0
+ 0.955964 2 0 ack 40 ------- 0 4.0 0.0 9 46 0 0x0 0 0
- 0.955964 2 0 ack 40 ------- 0 4.0 0.0 9 46 0 0x0 0 0
r 0.956452 4 3 ack 40 ------- 0 4.0 0.0 10 49 0 0x0 0 0
+ 0.956452 3 2 ack 40 ------- 0 4.0 0.0 10 49 0 0x0 0 0
- 0.956452 3 2 ack 40 ------- 0 4.0 0.0 10 49 0 0x0 0 0
r 0.956559 0 2 tcp 1040 ------- 0 0.0 4.0 17 50 0 0x0 0 0
r 0.956643 0 2 tcp 1040 ------- 0 0.0 4.0 18 51 0 0x0 0 0
r 0.956941 3 4 tcp 1040 ------- 0 0.0 4.0 11 22 0 0x0 0 0
+ 0.956941 4 3 ack 40 ------- 0 4.0 0.0 11 52 0 0x0 0 0
- 0.956941 4 3 ack 40 ------- 0 4.0 0.0 11 52 0 0x0 0 0
r 0.956968 2 0 ack 40 ------- 0 4.0 0.0 9 46 0 0x0 0 0
+ 0.956968 0 2 tcp 1040 ------- 0 0.0 4.0 19 53 0 0x0 0 0
- 0.956968 0 2 tcp 1040 ------- 0 0.0 4.0 19 53 0 0x0 0 0
+ 0.956968 0 2 tcp 1040 ------- 0 0.0 4.0 20 54 0 0x0 0 0
- 0.957051 0 2 tcp 1040 ------- 0 0.0 4.0 20 54 0 0x0 0 0
+ 0.957349 3 4 tcp 1040 ------- 0 0.0 4.0 12 23 0 0x0 0 0
- 0.957349 3 4 tcp 1040 ------- 0 0.0 4.0 12 23 0 0x0 0 0
r 0.957456 3 2 ack 40 ------- 0 4.0 0.0 10 49 0 0x0 0 0
+ 0.957456 2 0 ack 40 ------- 0 4.0 0.0 10 49 0 0x0 0 0
- 0.957456 2 0 ack 40 ------- 0 4.0 0.0 10 49 0 0x0 0 0
r 0.957944 4 3 ack 40 ------- 0 4.0 0.0 11 52 0 0x0 0 0
+ 0.957944 3 2 ack 40 ------- 0 4.0 0.0 11 52 0 0x0 0 0
- 0.957944 3 2 ack 40 ------- 0 4.0 0.0 11 52 0 0x0 0 0
r 0.958051 0 2 tcp 1040 ------- 0 0.0 4.0 19 53 0 0x0 0 0
r 0.958134 0 2 tcp 1040 ------- 0 0.0 4.0 20 54 0 0x0 0 0
r 0.958432 3 4 tcp 1040 ------- 0 0.0 4.0 12 23 0 0x0 0 0
+ 0.958432 4 3 ack 40 ------- 0 4.0 0.0 12 55 0 0x0 0 0
- 0.958432 4 3 ack 40 ------- 0 4.0 0.0 12 55 0 0x0 0 0
r 0.958459 2 0 ack 40 ------- 0 4.0 0.0 10 49 0 0x0 0 0
+ 0.958459 0 2 tcp 1040 ------- 0 0.0 4.0 21 56 0 0x0 0 0
- 0.958459 0 2 tcp 1040 ------- 0 0.0 4.0 21 56 0 0x0 0 0
+ 0.958459 0 2 tcp 1040 ------- 0 0.0 4.0 22 57 0 0x0 0 0
- 0.958542 0 2 tcp 1040 ------- 0 0.0 4.0 22 57 0 0x0 0 0
+ 0.95884 3 4 tcp 1040 ------- 0 0.0 4.0 13 24 0 0x0 0 0
- 0.95884 3 4 tcp 1040 ------- 0 0.0 4.0 13 24 0 0x0 0 0
r 0.958947 3 2 ack 40 ------- 0 4.0 0.0 11 52 0 0x0 0 0
+ 0.958947 2 0 ack 40 ------- 0 4.0 0.0 11 52 0 0x0 0 0
- 0.958947 2 0 ack 40 ------- 0 4.0 0.0 11 52 0 0x0 0 0
r 0.959435 4 3 ack 40 ------- 0 4.0 0.0 12 55 0 0x0 0 0
+ 0.959435 3 2 ack 40 ------- 0 4.0 0.0 12 55 0 0x0 0 0
- 0.959435 3 2 ack 40 ------- 0 4.0 0.0 12 55 0 0x0 0 0
r 0.959542 0 2 tcp 1040 ------- 0 0.0 4.0 21 56 0 0x0 0 0
r 0.959625 0 2 tcp 1040 ------- 0 0.0 4.0 22 57 0 0x0 0 0
r 0.959923 3 4 tcp 1040 ------- 0 0.0 4.0 13 24 0 0x0 0 0
+ 0.959923 4 3 ack 40 ------- 0 4.0 0.0 13 58 0 0x0 0 0
- 0.959923 4 3 ack 40 ------- 0 4.0 0.0 13 58 0 0x0 0 0
r 0.95995 2 0 ack 40 ------- 0 4.0 0.0 11 52 0 0x0 0 0
+ 0.95995 0 2 tcp 1040 ------- 0 0.0 4.0 23 59 0 0x0 0 0
- 0.95995 0 2 tcp 1040 ------- 0 0.0 4.0 23 59 0 0x0 0 0
+ 0.95995 0 2 tcp 1040 ------- 0 0.0 4.0 24 60 0 0x0 0 0
- 0.960033 0 2 tcp 1040 ------- 0 0.0 4.0 24 60 0 0x0 0 0
+ 0.960331 3 4 tcp 1040 ------- 0 0.0 4.0 14 25 0 0x0 0 0
- 0.960331 3 4 tcp 1040 ------- 0 0.0 4.0 14 25 0 0x0 0 0
r 0.960438 3 2 ack 40 ------- 0 4.0 0.0 12 55 0 0x0 0 0
+ 0.960438 2 0 ack 40 ------- 0 4.0 0.0 12 55 0 0x0 0 0
- 0.960438 2 0 ack 40 ------- 0 4.0 0.0 12 55 0 0x0 0 0
r 0.960926 4 3 ack 40 ------- 0 4.0 0.0 13 58 0 0x0 0 0
+ 0.960926 3 2 ack 40 ------- 0 4.0 0.0 13 58 0 0x0 0 0
- 0.960926 3 2 ack 40 ------- 0 4.0 0.0 13 58 0 0x0 0 0
r 0.961033 0 2 tcp 1040 ------- 0 0.0 4.0 23 59 0 0x0 0 0
r 0.961117 0 2 tcp 1040 ------- 0 0.0 4.0 24 60 0 0x0 0 0
r 0.961415 3 4 tcp 1040 ------- 0 0.0 4.0 14 25 0 0x0 0 0
+ 0.961415 4 3 ack 40 ------- 0 4.0 0.0 14 61 0 0x0 0 0
- 0.961415 4 3 ack 40 ------- 0 4.0 0.0 14 61 0 0x0 0 0
r 0.961442 2 0 ack 40 ------- 0 4.0 0.0 12 55 0 0x0 0 0
+ 0.961442 0 2 tcp 1040 ------- 0 0.0 4.0 25 62 0 0x0 0 0
- 0.961442 0 2 tcp 1040 ------- 0 0.0 4.0 25 62 0 0x0 0 0
+ 0.961442 0 2 tcp 1040 ------- 0 0.0 4.0 26 63 0 0x0 0 0
- 0.961525 0 2 tcp 1040 ------- 0 0.0 4.0 26 63 0 0x0 0 0
r 0.96193 3 2 ack 40 ------- 0 4.0 0.0 13 58 0 0x0 0 0
+ 0.96193 2 0 ack 40 ------- 0 4.0 0.0 13 58 0 0x0 0 0
- 0.96193 2 0 ack 40 ------- 0 4.0 0.0 13 58 0 0x0 0 0
r 0.962418 4 3 ack 40 ------- 0 4.0 0.0 14 61 0 0x0 0 0
+ 0.962418 3 2 ack 40 ------- 0 4.0 0.0 14 61 0 0x0 0 0
- 0.962418 3 2 ack 40 ------- 0 4.0 0.0 14 61 0 0x0 0 0
r 0.962525 0 2 tcp 1040 ------- 0 0.0 4.0 25 62 0 0x0 0 0
r 0.962608 0 2 tcp 1040 ------- 0 0.0 4.0 26 63 0 0x0 0 0
r 0.962933 2 0 ack 40 ------- 0 4.0 0.0 13 58 0 0x0 0 0
+ 0.962933 0 2 tcp 1040 ------- 0 0.0 4.0 27 64 0 0x0 0 0
- 0.962933 0 2 tcp 1040 ------- 0 0.0 4.0 27 64 0 0x0 0 0
+ 0.962933 0 2 tcp 1040 ------- 0 0.0 4.0 28 65 0 0x0 0 0
- 0.963016 0 2 tcp 1040 ------- 0 0.0 4.0 28 65 0 0x0 0 0
r 0.963421 3 2 ack 40 ------- 0 4.0 0.0 14 61 0 0x0 0 0
+ 0.963421 2 0 ack 40 ------- 0 4.0 0.0 14 61 0 0x0 0 0
- 0.963421 2 0 ack 40 ------- 0 4.0 0.0 14 61 0 0x0 0 0
r 0.964016 0 2 tcp 1040 ------- 0 0.0 4.0 27 64 0 0x0 0 0
r 0.964099 0 2 tcp 1040 ------- 0 0.0 4.0 28 65 0 0x0 0 0
r 0.964424 2 0 ack 40 ------- 0 4.0 0.0 14 61 0 0x0 0 0
+ 0.964424 0 2 tcp 1040 ------- 0 0.0 4.0 29 66 0 0x0 0 0
- 0.964424 0 2 tcp 1040 ------- 0 0.0 4.0 29 66 0 0x0 0 0
+ 0.964424 0 2 tcp 1040 ------- 0 0.0 4.0 30 67 0 0x0 0 0
- 0.964507 0 2 tcp 1040 ------- 0 0.0 4.0 30 67 0 0x0 0 0
r 0.965507 0 2 tcp 1040 ------- 0 0.0 4.0 29 66 0 0x0 0 0
r 0.965591 0 2 tcp 1040 ------- 0 0.0 4.0 30 67 0 0x0 0 0
+ 0.980512 2 3 tcp 1040 ------- 1 1.0 5.0 7 36 0 0x0 0 0
- 0.980512 2 3 tcp 1040 ------- 1 1.0 5.0 7 36 0 0x0 0 0
+ 0.980934 2 3 tcp 1040 ------- 1 1.0 5.0 8 37 0 0x0 0 0
- 0.980934 2 3 tcp 1040 ------- 1 1.0 5.0 8 37 0 0x0 0 0
+ 0.981356 2 3 tcp 1040 ------- 1 1.0 5.0 9 38 0 0x0 0 0
- 0.981356 2 3 tcp 1040 ------- 1 1.0 5.0 9 38 0 0x0 0 0
r 0.981595 2 3 tcp 1040 ------- 1 1.0 5.0 7 36 0 0x0 0 0
+ 0.981778 2 3 tcp 1040 ------- 1 1.0 5.0 10 39 0 0x0 0 0
- 0.981778 2 3 tcp 1040 ------- 1 1.0 5.0 10 39 0 0x0 0 0
r 0.982017 2 3 tcp 1040 ------- 1 1.0 5.0 8 37 0 0x0 0 0
+ 0.982201 2 3 tcp 1040 ------- 1 1.0 5.0 11 40 0 0x0 0 0
- 0.982201 2 3 tcp 1040 ------- 1 1.0 5.0 11 40 0 0x0 0 0
r 0.982439 2 3 tcp 1040 ------- 1 1.0 5.0 9 38 0 0x0 0 0
+ 0.982623 2 3 tcp 1040 ------- 1 1.0 5.0 12 41 0 0x0 0 0
- 0.982623 2 3 tcp 1040 ------- 1 1.0 5.0 12 41 0 0x0 0 0
r 0.982862 2 3 tcp 1040 ------- 1 1.0 5.0 10 39 0 0x0 0 0
+ 0.983045 2 3 tcp 1040 ------- 1 1.0 5.0 13 42 0 0x0 0 0
- 0.983045 2 3 tcp 1040 ------- 1 1.0 5.0 13 42 0 0x0 0 0
r 0.983284 2 3 tcp 1040 ------- 1 1.0 5.0 11 40 0 0x0 0 0
+ 0.983467 2 3 tcp 1040 ------- 1 1.0 5.0 14 43 0 0x0 0 0
- 0.983467 2 3 tcp 1040 ------- 1 1.0 5.0 14 43 0 0x0 0 0
r 0.983706 2 3 tcp 1040 ------- 1 1.0 5.0 12 41 0 0x0 0 0
r 0.984128 2 3 tcp 1040 ------- 1 1.0 5.0 13 42 0 0x0 0 0
r 0.98455 2 3 tcp 1040 ------- 1 1.0 5.0 14 43 0 0x0 0 0
+ 0.995239 3 5 tcp 1040 ------- 1 1.0 5.0 7 36 0 0x0 0 0
- 0.995239 3 5 tcp 1040 ------- 1 1.0 5.0 7 36 0 0x0 0 0
+ 0.995661 3 5 tcp 1040 ------- 1 1.0 5.0 8 37 0 0x0 0 0
- 0.995661 3 5 tcp 1040 ------- 1 1.0 5.0 8 37 0 0x0 0 0
+ 0.996083 3 5 tcp 1040 ------- 1 1.0 5.0 9 38 0 0x0 0 0
- 0.996083 3 5 tcp 1040 ------- 1 1.0 5.0 9 38 0 0x0 0 0
r 0.996322 3 5 tcp 1040 ------- 1 1.0 5.0 7 36 0 0x0 0 0
+ 0.996322 5 3 ack 40 ------- 1 5.0 1.0 7 68 0 0x0 0 0
- 0.996322 5 3 ack 40 ------- 1 5.0 1.0 7 68 0 0x0 0 0
+ 0.996505 3 5 tcp 1040 ------- 1 1.0 5.0 10 39 0 0x0 0 0
- 0.996505 3 5 tcp 1040 ------- 1 1.0 5.0 10 39 0 0x0 0 0
r 0.996744 3 5 tcp 1040 ------- 1 1.0 5.0 8 37 0 0x0 0 0
+ 0.996744 5 3 ack 40 ------- 1 5.0 1.0 8 69 0 0x0 0 0
- 0.996744 5 3 ack 40 ------- 1 5.0 1.0 8 69 0 0x0 0 0
+ 0.996927 3 5 tcp 1040 ------- 1 1.0 5.0 11 40 0 0x0 0 0
- 0.996927 3 5 tcp 1040 ------- 1 1.0 5.0 11 40 0 0x0 0 0
r 0.997166 3 5 tcp 1040 ------- 1 1.0 5.0 9 38 0 0x0 0 0
+ 0.997166 5 3 ack 40 ------- 1 5.0 1.0 9 70 0 0x0 0 0
- 0.997166 5 3 ack 40 ------- 1 5.0 1.0 9 70 0 0x0 0 0
r 0.997325 5 3 ack 40 ------- 1 5.0 1.0 7 68 0 0x0 0 0
+ 0.997325 3 2 ack 40 ------- 1 5.0 1.0 7 68 0 0x0 0 0
- 0.997325 3 2 ack 40 ------- 1 5.0 1.0 7 68 0 0x0 0 0
+ 0.997349 3 5 tcp 1040 ------- 1 1.0 5.0 12 41 0 0x0 0 0
- 0.997349 3 5 tcp 1040 ------- 1 1.0 5.0 12 41 0 0x0 0 0
r 0.997588 3 5 tcp 1040 ------- 1 1.0 5.0 10 39 0 0x0 0 0
+ 0.997588 5 3 ack 40 ------- 1 5.0 1.0 10 71 0 0x0 0 0
- 0.997588 5 3 ack 40 ------- 1 5.0 1.0 10 71 0 0x0 0 0
r 0.997747 5 3 ack 40 ------- 1 5.0 1.0 8 69 0 0x0 0 0
+ 0.997747 3 2 ack 40 ------- 1 5.0 1.0 8 69 0 0x0 0 0
- 0.997747 3 2 ack 40 ------- 1 5.0 1.0 8 69 0 0x0 0 0
+ 0.997772 3 5 tcp 1040 ------- 1 1.0 5.0 13 42 0 0x0 0 0
- 0.997772 3 5 tcp 1040 ------- 1 1.0 5.0 13 42 0 0x0 0 0
r 0.998011 3 5 tcp 1040 ------- 1 1.0 5.0 11 40 0 0x0 0 0
+ 0.998011 5 3 ack 40 ------- 1 5.0 1.0 11 72 0 0x0 0 0
- 0.998011 5 3 ack 40 ------- 1 5.0 1.0 11 72 0 0x0 0 0
r 0.998169 5 3 ack 40 ------- 1 5.0 1.0 9 70 0 0x0 0 0
+ 0.998169 3 2 ack 40 ------- 1 5.0 1.0 9 70 0 0x0 0 0
- 0.998169 3 2 ack 40 ------- 1 5.0 1.0 9 70 0 0x0 0 0
+ 0.998194 3 5 tcp 1040 ------- 1 1.0 5.0 14 43 0 0x0 0 0
- 0.998194 3 5 tcp 1040 ------- 1 1.0 5.0 14 43 0 0x0 0 0
r 0.998328 3 2 ack 40 ------- 1 5.0 1.0 7 68 0 0x0 0 0
+ 0.998328 2 1 ack 40 ------- 1 5.0 1.0 7 68 0 0x0 0 0