s 0.000339577 _0_ AGT  --- 0 PBC 1000 [0 0 0 0] ------- [0:0 -1:0 32 0] 
r 0.001097594 _1_ AGT  --- 0 PBC 1000 [0 ffffffff 0 0] ------- [0:0 -1:0 32 0] 
r 0.001097611 _2_ AGT  --- 0 PBC 1000 [0 ffffffff 0 0] ------- [0:0 -1:0 32 0] 
r 0.001097627 _3_ AGT  --- 0 PBC 1000 [0 ffffffff 0 0] ------- [0:0 -1:0 32 0] 
r 0.001097644 _4_ AGT  --- 0 PBC 1000 [0 ffffffff 0 0] ------- [0:0 -1:0 32 0] 
r 0.001097661 _5_ AGT  --- 0 PBC 1000 [0 ffffffff 0 0] ------- [0:0 -1:0 32 0] 
r 0.001097677 _6_ AGT  --- 0 PBC 1000 [0 ffffffff 0 0] ------- [0:0 -1:0 32 0] 
r 0.001097694 _7_ AGT  --- 0 PBC 1000 [0 ffffffff 0 0] ------- [0:0 -1:0 32 0] 
r 0.001097711 _8_ AGT  --- 0 PBC 1000 [0 ffffffff 0 0] ------- [0:0 -1:0 32 0] 
r 0.001097727 _9_ AGT  --- 0 PBC 1000 [0 ffffffff 0 0] ------- [0:0 -1:0 32 0] 
r 0.001097744 _10_ AGT  --- 0 PBC 1000 [0 ffffffff 0 0] ------- [0:0 -1:0 32 0] 
r 0.001097777 _12_ AGT  --- 0 PBC 1000 [0 ffffffff 0 0] ------- [0:0 -1:0 32 0] 
r 0.001097827 _15_ AGT  --- 0 PBC 1000 [0 ffffffff 0 0] ------- [0:0 -1:0 32 0] 
r 0.001097844 _16_ AGT  --- 0 PBC 1000 [0 ffffffff 0 0] ------- [0:0 -1:0 32 0] 
r 0.001097861 _17_ AGT  --- 0 PBC 1000 [0 ffffffff 0 0] ------- [0:0 -1:0 32 0] 
r 0.001097877 _18_ AGT  --- 0 PBC 1000 [0 ffffffff 0 0] ------- [0:0 -1:0 32 0] 
s 0.014204661 _2_ AGT  --- 1 PBC 1000 [0 0 0 0] ------- [2:0 -1:0 32 0] 
r 0.014962677 _1_ AGT  --- 1 PBC 1000 [0 ffffffff 2 0] ------- [2:0 -1:0 32 0] 
r 0.014962677 _3_ AGT  --- 1 PBC 1000 [0 ffffffff 2 0] ------- [2:0 -1:0 32 0] 
r 0.014962694 _0_ AGT  --- 1 PBC 1000 [0 ffffffff 2 0] ------- [2:0 -1:0 32 0] 
r 0.014962694 _4_ AGT  --- 1 PBC 1000 [0 ffffffff 2 0] ------- [2:0 -1:0 32 0] 
r 0.014962711 _5_ AGT  --- 1 PBC 1000 [0 ffffffff 2 0] ------- [2:0 -1:0 32 0] 
r 0.014962727 _6_ AGT  --- 1 PBC 1000 [0 ffffffff 2 0] ------- [2:0 -1:0 32 0] 
r 0.014962744 _7_ AGT  --- 1 PBC 1000 [0 ffffffff 2 0] ------- [2:0 -1:0 32 0] 
r 0.014962761 _8_ AGT  --- 1 PBC 1000 [0 ffffffff 2 0] ------- [2:0 -1:0 32 0] 
r 0.014962777 _9_ AGT  --- 1 PBC 1000 [0 ffffffff 2 0] ------- [2:0 -1:0 32 0] 
r 0.014962794 _10_ AGT  --- 1 PBC 1000 [0 ffffffff 2 0] ------- [2:0 -1:0 32 0] 
r 0.014962827 _12_ AGT  --- 1 PBC 1000 [0 ffffffff 2 0] ------- [2:0 -1:0 32 0] 
r 0.014962844 _13_ AGT  --- 1 PBC 1000 [0 ffffffff 2 0] ------- [2:0 -1:0 32 0] 
r 0.014962861 _14_ AGT  --- 1 PBC 1000 [0 ffffffff 2 0] ------- [2:0 -1:0 32 0] 
r 0.014962877 _15_ AGT  --- 1 PBC 1000 [0 ffffffff 2 0] ------- [2:0 -1:0 32 0] 
r 0.014962894 _16_ AGT  --- 1 PBC 1000 [0 ffffffff 2 0] ------- [2:0 -1:0 32 0] 
r 0.014962911 _17_ AGT  --- 1 PBC 1000 [0 ffffffff 2 0] ------- [2:0 -1:0 32 0] 
s 0.042794558 _13_ AGT  --- 2 PBC 1000 [0 0 0 0] ------- [13:0 -1:0 32 0] 
r 0.043552574 _12_ AGT  --- 2 PBC 1000 [0 ffffffff d 0] ------- [13:0 -1:0 32 0] 
r 0.043552574 _14_ AGT  --- 2 PBC 1000 [0 ffffffff d 0] ------- [13:0 -1:0 32 0] 
r 0.043552591 _11_ AGT  --- 2 PBC 1000 [0 ffffffff d 0] ------- [13:0 -1:0 32 0] 
r 0.043552591 _15_ AGT  --- 2 PBC 1000 [0 ffffffff d 0] ------- [13:0 -1:0 32 0] 
r 0.043552608 _10_ AGT  --- 2 PBC 1000 [0 ffffffff d 0] ------- [13:0 -1:0 32 0] 
r 0.043552608 _16_ AGT  --- 2 PBC 1000 [0 ffffffff d 0] ------- [13:0 -1:0 32 0] 
r 0.043552624 _9_ AGT  --- 2 PBC 1000 [0 ffffffff d 0] ------- [13:0 -1:0 32 0] 
r 0.043552624 _17_ AGT  --- 2 PBC 1000 [0 ffffffff d 0] ------- [13:0 -1:0 32 0] 
r 0.043552641 _8_ AGT  --- 2 PBC 1000 [0 ffffffff d 0] ------- [13:0 -1:0 32 0] 
r 0.043552641 _18_ AGT  --- 2 PBC 1000 [0 ffffffff d 0] ------- [13:0 -1:0 32 0] 
r 0.043552658 _7_ AGT  --- 2 PBC 1000 [0 ffffffff d 0] ------- [13:0 -1:0 32 0] 
r 0.043552658 _19_ AGT  --- 2 PBC 1000 [0 ffffffff d 0] ------- [13:0 -1:0 32 0] 
r 0.043552674 _6_ AGT  --- 2 PBC 1000 [0 ffffffff d 0] ------- [13:0 -1:0 32 0] 
r 0.043552691 _5_ AGT  --- 2 PBC 1000 [0 ffffffff d 0] ------- [13:0 -1:0 32 0] 
r 0.043552724 _3_ AGT  --- 2 PBC 1000 [0 ffffffff d 0] ------- [13:0 -1:0 32 0] 
r 0.043552741 _2_ AGT  --- 2 PBC 1000 [0 ffffffff d 0] ------- [13:0 -1:0 32 0] 
r 0.043552774 _0_ AGT  --- 2 PBC 1000 [0 ffffffff d 0] ------- [13:0 -1:0 32 0] 
s 0.088122671 _3_ AGT  --- 3 PBC 1000 [0 0 0 0] ------- [3:0 -1:0 32 0] 
r 0.088880688 _2_ AGT  --- 3 PBC 1000 [0 ffffffff 3 0] ------- [3:0 -1:0 32 0] 
r 0.088880688 _4_ AGT  --- 3 PBC 1000 [0 ffffffff 3 0] ------- [3:0 -1:0 32 0] 
r 0.088880705 _1_ AGT  --- 3 PBC 1000 [0 ffffffff 3 0] ------- [3:0 -1:0 32 0] 
r 0.088880705 _5_ AGT  --- 3 PBC 1000 [0 ffffffff 3 0] ------- [3:0 -1:0 32 0] 
r 0.088880721 _0_ AGT  --- 3 PBC 1000 [0 ffffffff 3 0] ------- [3:0 -1:0 32 0] 
r 0.088880721 _6_ AGT  --- 3 PBC 1000 [0 ffffffff 3 0] ------- [3:0 -1:0 32 0] 
r 0.088880738 _7_ AGT  --- 3 PBC 1000 [0 ffffffff 3 0] ------- [3:0 -1:0 32 0] 
r 0.088880755 _8_ AGT  --- 3 PBC 1000 [0 ffffffff 3 0] ------- [3:0 -1:0 32 0] 
r 0.088880771 _9_ AGT  --- 3 PBC 1000 [0 ffffffff 3 0] ------- [3:0 -1:0 32 0] 
r 0.088880788 _10_ AGT  --- 3 PBC 1000 [0 ffffffff 3 0] ------- [3:0 -1:0 32 0] 
r 0.088880821 _12_ AGT  --- 3 PBC 1000 [0 ffffffff 3 0] ------- [3:0 -1:0 32 0] 
r 0.088880838 _13_ AGT  --- 3 PBC 1000 [0 ffffffff 3 0] ------- [3:0 -1:0 32 0] 
r 0.088880855 _14_ AGT  --- 3 PBC 1000 [0 ffffffff 3 0] ------- [3:0 -1:0 32 0] 
r 0.088880871 _15_ AGT  --- 3 PBC 1000 [0 ffffffff 3 0] ------- [3:0 -1:0 32 0] 
r 0.088880888 _16_ AGT  --- 3 PBC 1000 [0 ffffffff 3 0] ------- [3:0 -1:0 32 0] 
s 0.094138855 _19_ AGT  --- 4 PBC 1000 [0 0 0 0] ------- [19:0 -1:0 32 0] 
r 0.094896871 _18_ AGT  --- 4 PBC 1000 [0 ffffffff 13 0] ------- [19:0 -1:0 32 0] 
r 0.094896888 _17_ AGT  --- 4 PBC 1000 [0 ffffffff 13 0] ------- [19:0 -1:0 32 0] 
r 0.094896905 _16_ AGT  --- 4 PBC 1000 [0 ffffffff 13 0] ------- [19:0 -1:0 32 0] 
r 0.094896921 _15_ AGT  --- 4 PBC 1000 [0 ffffffff 13 0] ------- [19:0 -1:0 32 0] 
r 0.094896938 _14_ AGT  --- 4 PBC 1000 [0 ffffffff 13 0] ------- [19:0 -1:0 32 0] 
r 0.094896955 _13_ AGT  --- 4 PBC 1000 [0 ffffffff 13 0] ------- [19:0 -1:0 32 0] 
r 0.094896971 _12_ AGT  --- 4 PBC 1000 [0 ffffffff 13 0] ------- [19:0 -1:0 32 0] 
r 0.094896988 _11_ AGT  --- 4 PBC 1000 [0 ffffffff 13 0] ------- [19:0 -1:0 32 0] 
r 0.094897005 _10_ AGT  --- 4 PBC 1000 [0 ffffffff 13 0] ------- [19:0 -1:0 32 0] 
r 0.094897021 _9_ AGT  --- 4 PBC 1000 [0 ffffffff 13 0] ------- [19:0 -1:0 32 0] 
r 0.094897038 _8_ AGT  --- 4 PBC 1000 [0 ffffffff 13 0] ------- [19:0 -1:0 32 0] 
r 0.094897071 _6_ AGT  --- 4 PBC 1000 [0 ffffffff 13 0] ------- [19:0 -1:0 32 0] 
r 0.094897088 _5_ AGT  --- 4 PBC 1000 [0 ffffffff 13 0] ------- [19:0 -1:0 32 0] 
r 0.094897105 _4_ AGT  --- 4 PBC 1000 [0 ffffffff 13 0] ------- [19:0 -1:0 32 0] 
r 0.094897121 _3_ AGT  --- 4 PBC 1000 [0 ffffffff 13 0] ------- [19:0 -1:0 32 0] 
r 0.094897155 _1_ AGT  --- 4 PBC 1000 [0 ffffffff 13 0] ------- [19:0 -1:0 32 0] 
s 0.113808249 _15_ AGT  --- 5 PBC 1000 [0 0 0 0] ------- [15:0 -1:0 32 0] 
r 0.114566265 _14_ AGT  --- 5 PBC 1000 [0 ffffffff f 0] ------- [15:0 -1:0 32 0] 
r 0.114566265 _16_ AGT  --- 5 PBC 1000 [0 ffffffff f 0] ------- [15:0 -1:0 32 0] 
r 0.114566282 _13_ AGT  --- 5 PBC 1000 [0 ffffffff f 0] ------- [15:0 -1:0 32 0] 
r 0.114566282 _17_ AGT  --- 5 PBC 1000 [0 ffffffff f 0] ------- [15:0 -1:0 32 0] 
r 0.114566299 _12_ AGT  --- 5 PBC 1000 [0 ffffffff f 0] ------- [15:0 -1:0 32 0] 
r 0.114566299 _18_ AGT  --- 5 PBC 1000 [0 ffffffff f 0] ------- [15:0 -1:0 32 0] 
r 0.114566315 _11_ AGT  --- 5 PBC 1000 [0 ffffffff f 0] ------- [15:0 -1:0 32 0] 
r 0.114566315 _19_ AGT  --- 5 PBC 1000 [0 ffffffff f 0] ------- [15:0 -1:0 32 0] 
r 0.114566332 _10_ AGT  --- 5 PBC 1000 [0 ffffffff f 0] ------- [15:0 -1:0 32 0] 
r 0.114566349 _9_ AGT  --- 5 PBC 1000 [0 ffffffff f 0] ------- [15:0 -1:0 32 0] 
r 0.114566365 _8_ AGT  --- 5 PBC 1000 [0 ffffffff f 0] ------- [15:0 -1:0 32 0] 
r 0.114566382 _7_ AGT  --- 5 PBC 1000 [0 ffffffff f 0] ------- [15:0 -1:0 32 0] 
r 0.114566399 _6_ AGT  --- 5 PBC 1000 [0 ffffffff f 0] ------- [15:0 -1:0 32 0] 
r 0.114566415 _5_ AGT  --- 5 PBC 1000 [0 ffffffff f 0] ------- [15:0 -1:0 32 0] 
r 0.114566432 _4_ AGT  --- 5 PBC 1000 [0 ffffffff f 0] ------- [15:0 -1:0 32 0] 
r 0.114566449 _3_ AGT  --- 5 PBC 1000 [0 ffffffff f 0] ------- [15:0 -1:0 32 0] 
r 0.114566465 _2_ AGT  --- 5 PBC 1000 [0 ffffffff f 0] ------- [15:0 -1:0 32 0] 
r 0.114566499 _0_ AGT  --- 5 PBC 1000 [0 ffffffff f 0] ------- [15:0 -1:0 32 0] 
s 0.164145407 _12_ AGT  --- 6 PBC 1000 [0 0 0 0] ------- [12:0 -1:0 32 0] 
r 0.164903423 _11_ AGT  --- 6 PBC 1000 [0 ffffffff c 0] ------- [12:0 -1:0 32 0] 
r 0.164903423 _13_ AGT  --- 6 PBC 1000 [0 ffffffff c 0] ------- [12:0 -1:0 32 0] 
r 0.164903440 _10_ AGT  --- 6 PBC 1000 [0 ffffffff c 0] ------- [12:0 -1:0 32 0] 
r 0.164903440 _14_ AGT  --- 6 PBC 1000 [0 ffffffff c 0] ------- [12:0 -1:0 32 0] 
r 0.164903457 _9_ AGT  --- 6 PBC 1000 [0 ffffffff c 0] ------- [12:0 -1:0 32 0] 
r 0.164903457 _15_ AGT  --- 6 PBC 1000 [0 ffffffff c 0] ------- [12:0 -1:0 32 0] 
r 0.164903473 _16_ AGT  --- 6 PBC 1000 [0 ffffffff c 0] ------- [12:0 -1:0 32 0] 
r 0.164903490 _7_ AGT  --- 6 PBC 1000 [0 ffffffff c 0] ------- [12:0 -1:0 32 0] 
r 0.164903490 _17_ AGT  --- 6 PBC 1000 [0 ffffffff c 0] ------- [12:0 -1:0 32 0] 
r 0.164903507 _6_ AGT  --- 6 PBC 1000 [0 ffffffff c 0] ------- [12:0 -1:0 32 0] 
r 0.164903507 _18_ AGT  --- 6 PBC 1000 [0 ffffffff c 0] ------- [12:0 -1:0 32 0] 
r 0.164903523 _5_ AGT  --- 6 PBC 1000 [0 ffffffff c 0] ------- [12:0 -1:0 32 0] 
r 0.164903523 _19_ AGT  --- 6 PBC 1000 [0 ffffffff c 0] ------- [12:0 -1:0 32 0] 
r 0.164903540 _4_ AGT  --- 6 PBC 1000 [0 ffffffff c 0] ------- [12:0 -1:0 32 0] 
r 0.164903557 _3_ AGT  --- 6 PBC 1000 [0 ffffffff c 0] ------- [12:0 -1:0 32 0] 
r 0.164903573 _2_ AGT  --- 6 PBC 1000 [0 ffffffff c 0] ------- [12:0 -1:0 32 0] 
r 0.164903590 _1_ AGT  --- 6 PBC 1000 [0 ffffffff c 0] ------- [12:0 -1:0 32 0] 
r 0.164903607 _0_ AGT  --- 6 PBC 1000 [0 ffffffff c 0] ------- [12:0 -1:0 32 0] 
s 0.174805254 _18_ AGT  --- 7 PBC 1000 [0 0 0 0] ------- [18:0 -1:0 32 0] 
r 0.175563270 _17_ AGT  --- 7 PBC 1000 [0 ffffffff 12 0] ------- [18:0 -1:0 32 0] 
r 0.175563270 _19_ AGT  --- 7 PBC 1000 [0 ffffffff 12 0] ------- [18:0 -1:0 32 0] 
r 0.175563287 _16_ AGT  --- 7 PBC 1000 [0 ffffffff 12 0] ------- [18:0 -1:0 32 0] 
r 0.175563304 _15_ AGT  --- 7 PBC 1000 [0 ffffffff 12 0] ------- [18:0 -1:0 32 0] 
r 0.175563320 _14_ AGT  --- 7 PBC 1000 [0 ffffffff 12 0] ------- [18:0 -1:0 32 0] 
r 0.175563337 _13_ AGT  --- 7 PBC 1000 [0 ffffffff 12 0] ------- [18:0 -1:0 32 0] 
r 0.175563354 _12_ AGT  --- 7 PBC 1000 [0 ffffffff 12 0] ------- [18:0 -1:0 32 0] 
r 0.175563370 _11_ AGT  --- 7 PBC 1000 [0 ffffffff 12 0] ------- [18:0 -1:0 32 0] 
r 0.175563387 _10_ AGT  --- 7 PBC 1000 [0 ffffffff 12 0] ------- [18:0 -1:0 32 0] 
r 0.175563404 _9_ AGT  --- 7 PBC 1000 [0 ffffffff 12 0] ------- [18:0 -1:0 32 0] 
r 0.175563420 _8_ AGT  --- 7 PBC 1000 [0 ffffffff 12 0] ------- [18:0 -1:0 32 0] 
r 0.175563470 _5_ AGT  --- 7 PBC 1000 [0 ffffffff 12 0] ------- [18:0 -1:0 32 0] 
r 0.175563487 _4_ AGT  --- 7 PBC 1000 [0 ffffffff 12 0] ------- [18:0 -1:0 32 0] 
r 0.175563520 _2_ AGT  --- 7 PBC 1000 [0 ffffffff 12 0] ------- [18:0 -1:0 32 0] 
r 0.175563537 _1_ AGT  --- 7 PBC 1000 [0 ffffffff 12 0] ------- [18:0 -1:0 32 0] 
r 0.175563554 _0_ AGT  --- 7 PBC 1000 [0 ffffffff 12 0] ------- [18:0 -1:0 32 0] 
s 0.234601752 _8_ AGT  --- 8 PBC 1000 [0 0 0 0] ------- [8:0 -1:0 32 0] 
r 0.235359769 _7_ AGT  --- 8 PBC 1000 [0 ffffffff 8 0] ------- [8:0 -1:0 32 0] 
r 0.235359769 _9_ AGT  --- 8 PBC 1000 [0 ffffffff 8 0] ------- [8:0 -1:0 32 0] 
r 0.235359785 _6_ AGT  --- 8 PBC 1000 [0 ffffffff 8 0] ------- [8:0 -1:0 32 0] 
r 0.235359785 _10_ AGT  --- 8 PBC 1000 [0 ffffffff 8 0] ------- [8:0 -1:0 32 0] 
r 0.235359802 _5_ AGT  --- 8 PBC 1000 [0 ffffffff 8 0] ------- [8:0 -1:0 32 0] 
r 0.235359802 _11_ AGT  --- 8 PBC 1000 [0 ffffffff 8 0] ------- [8:0 -1:0 32 0] 
r 0.235359819 _4_ AGT  --- 8 PBC 1000 [0 ffffffff 8 0] ------- [8:0 -1:0 32 0] 
r 0.235359819 _12_ AGT  --- 8 PBC 1000 [0 ffffffff 8 0] ------- [8:0 -1:0 32 0] 
r 0.235359835 _3_ AGT  --- 8 PBC 1000 [0 ffffffff 8 0] ------- [8:0 -1:0 32 0] 
r 0.235359835 _13_ AGT  --- 8 PBC 1000 [0 ffffffff 8 0] ------- [8:0 -1:0 32 0] 
r 0.235359852 _2_ AGT  --- 8 PBC 1000 [0 ffffffff 8 0] ------- [8:0 -1:0 32 0] 
r 0.235359852 _14_ AGT  --- 8 PBC 1000 [0 ffffffff 8 0] ------- [8:0 -1:0 32 0] 
r 0.235359869 _1_ AGT  --- 8 PBC 1000 [0 ffffffff 8 0] ------- [8:0 -1:0 32 0] 
r 0.235359869 _15_ AGT  --- 8 PBC 1000 [0 ffffffff 8 0] ------- [8:0 -1:0 32 0] 
r 0.235359885 _0_ AGT  --- 8 PBC 1000 [0 ffffffff 8 0] ------- [8:0 -1:0 32 0] 
r 0.235359885 _16_ AGT  --- 8 PBC 1000 [0 ffffffff 8 0] ------- [8:0 -1:0 32 0] 
r 0.235359902 _17_ AGT  --- 8 PBC 1000 [0 ffffffff 8 0] ------- [8:0 -1:0 32 0] 
r 0.235359919 _18_ AGT  --- 8 PBC 1000 [0 ffffffff 8 0] ------- [8:0 -1:0 32 0] 
r 0.235359935 _19_ AGT  --- 8 PBC 1000 [0 ffffffff 8 0] ------- [8:0 -1:0 32 0] 
s 0.309079058 _10_ AGT  --- 9 PBC 1000 [0 0 0 0] ------- [10:0 -1:0 32 0] 
r 0.309837075 _9_ AGT  --- 9 PBC 1000 [0 ffffffff a 0] ------- [10:0 -1:0 32 0] 
r 0.309837075 _11_ AGT  --- 9 PBC 1000 [0 ffffffff a 0] ------- [10:0 -1:0 32 0] 
r 0.309837091 _8_ AGT  --- 9 PBC 1000 [0 ffffffff a 0] ------- [10:0 -1:0 32 0] 
r 0.309837091 _12_ AGT  --- 9 PBC 1000 [0 ffffffff a 0] ------- [10:0 -1:0 32 0] 
r 0.309837108 _7_ AGT  --- 9 PBC 1000 [0 ffffffff a 0] ------- [10:0 -1:0 32 0] 
r 0.309837108 _13_ AGT  --- 9 PBC 1000 [0 ffffffff a 0] ------- [10:0 -1:0 32 0] 
r 0.309837125 _6_ AGT  --- 9 PBC 1000 [0 ffffffff a 0] ------- [10:0 -1:0 32 0] 
r 0.309837125 _14_ AGT  --- 9 PBC 1000 [0 ffffffff a 0] ------- [10:0 -1:0 32 0] 
r 0.309837141 _5_ AGT  --- 9 PBC 1000 [0 ffffffff a 0] ------- [10:0 -1:0 32 0] 
r 0.309837141 _15_ AGT  --- 9 PBC 1000 [0 ffffffff a 0] ------- [10:0 -1:0 32 0] 
r 0.309837158 _16_ AGT  --- 9 PBC 1000 [0 ffffffff a 0] ------- [10:0 -1:0 32 0] 
r 0.309837175 _3_ AGT  --- 9 PBC 1000 [0 ffffffff a 0] ------- [10:0 -1:0 32 0] 
r 0.309837175 _17_ AGT  --- 9 PBC 1000 [0 ffffffff a 0] ------- [10:0 -1:0 32 0] 
r 0.309837191 _2_ AGT  --- 9 PBC 1000 [0 ffffffff a 0] ------- [10:0 -1:0 32 0] 
r 0.309837191 _18_ AGT  --- 9 PBC 1000 [0 ffffffff a 0] ------- [10:0 -1:0 32 0] 
r 0.309837208 _1_ AGT  --- 9 PBC 1000 [0 ffffffff a 0] ------- [10:0 -1:0 32 0] 
r 0.309837208 _19_ AGT  --- 9 PBC 1000 [0 ffffffff a 0] ------- [10:0 -1:0 32 0] 
r 0.309837225 _0_ AGT  --- 9 PBC 1000 [0 ffffffff a 0] ------- [10:0 -1:0 32 0] 
s 0.312961772 _6_ AGT  --- 10 PBC 1000 [0 0 0 0] ------- [6:0 -1:0 32 0] 
r 0.313719788 _5_ AGT  --- 10 PBC 1000 [0 ffffffff 6 0] ------- [6:0 -1:0 32 0] 
r 0.313719788 _7_ AGT  --- 10 PBC 1000 [0 ffffffff 6 0] ------- [6:0 -1:0 32 0] 
r 0.313719805 _4_ AGT  --- 10 PBC 1000 [0 ffffffff 6 0] ------- [6:0 -1:0 32 0] 
r 0.313719805 _8_ AGT  --- 10 PBC 1000 [0 ffffffff 6 0] ------- [6:0 -1:0 32 0] 
r 0.313719822 _3_ AGT  --- 10 PBC 1000 [0 ffffffff 6 0] ------- [6:0 -1:0 32 0] 
r 0.313719822 _9_ AGT  --- 10 PBC 1000 [0 ffffffff 6 0] ------- [6:0 -1:0 32 0] 
r 0.313719838 _2_ AGT  --- 10 PBC 1000 [0 ffffffff 6 0] ------- [6:0 -1:0 32 0] 
r 0.313719838 _10_ AGT  --- 10 PBC 1000 [0 ffffffff 6 0] ------- [6:0 -1:0 32 0] 
r 0.313719855 _1_ AGT  --- 10 PBC 1000 [0 ffffffff 6 0] ------- [6:0 -1:0 32 0] 
r 0.313719855 _11_ AGT  --- 10 PBC 1000 [0 ffffffff 6 0] ------- [6:0 -1:0 32 0] 
r 0.313719872 _0_ AGT  --- 10 PBC 1000 [0 ffffffff 6 0] ------- [6:0 -1:0 32 0] 
r 0.313719872 _12_ AGT  --- 10 PBC 1000 [0 ffffffff 6 0] ------- [6:0 -1:0 32 0] 
r 0.313719888 _13_ AGT  --- 10 PBC 1000 [0 ffffffff 6 0] ------- [6:0 -1:0 32 0] 
r 0.313719905 _14_ AGT  --- 10 PBC 1000 [0 ffffffff 6 0] ------- [6:0 -1:0 32 0] 
r 0.313719922 _15_ AGT  --- 10 PBC 1000 [0 ffffffff 6 0] ------- [6:0 -1:0 32 0] 
r 0.313719955 _17_ AGT  --- 10 PBC 1000 [0 ffffffff 6 0] ------- [6:0 -1:0 32 0] 
r 0.313719988 _19_ AGT  --- 10 PBC 1000 [0 ffffffff 6 0] ------- [6:0 -1:0 32 0] 
s 0.423656736 _17_ AGT  --- 11 PBC 1000 [0 0 0 0] ------- [17:0 -1:0 32 0] 
r 0.424414753 _16_ AGT  --- 11 PBC 1000 [0 ffffffff 11 0] ------- [17:0 -1:0 32 0] 
r 0.424414753 _18_ AGT  --- 11 PBC 1000 [0 ffffffff 11 0] ------- [17:0 -1:0 32 0] 
r 0.424414770 _15_ AGT  --- 11 PBC 1000 [0 ffffffff 11 0] ------- [17:0 -1:0 32 0] 
r 0.424414770 _19_ AGT  --- 11 PBC 1000 [0 ffffffff 11 0] ------- [17:0 -1:0 32 0] 
r 0.424414786 _14_ AGT  --- 11 PBC 1000 [0 ffffffff 11 0] ------- [17:0 -1:0 32 0] 
r 0.424414803 _13_ AGT  --- 11 PBC 1000 [0 ffffffff 11 0] ------- [17:0 -1:0 32 0] 
r 0.424414820 _12_ AGT  --- 11 PBC 1000 [0 ffffffff 11 0] ------- [17:0 -1:0 32 0] 
r 0.424414836 _11_ AGT  --- 11 PBC 1000 [0 ffffffff 11 0] ------- [17:0 -1:0 32 0] 
r 0.424414853 _10_ AGT  --- 11 PBC 1000 [0 ffffffff 11 0] ------- [17:0 -1:0 32 0] 
r 0.424414870 _9_ AGT  --- 11 PBC 1000 [0 ffffffff 11 0] ------- [17:0 -1:0 32 0] 
r 0.424414886 _8_ AGT  --- 11 PBC 1000 [0 ffffffff 11 0] ------- [17:0 -1:0 32 0] 
r 0.424414903 _7_ AGT  --- 11 PBC 1000 [0 ffffffff 11 0] ------- [17:0 -1:0 32 0] 
r 0.424414920 _6_ AGT  --- 11 PBC 1000 [0 ffffffff 11 0] ------- [17:0 -1:0 32 0] 
r 0.424414936 _5_ AGT  --- 11 PBC 1000 [0 ffffffff 11 0] ------- [17:0 -1:0 32 0] 
r 0.424414953 _4_ AGT  --- 11 PBC 1000 [0 ffffffff 11 0] ------- [17:0 -1:0 32 0] 
r 0.424414970 _3_ AGT  --- 11 PBC 1000 [0 ffffffff 11 0] ------- [17:0 -1:0 32 0] 
r 0.424414986 _2_ AGT  --- 11 PBC 1000 [0 ffffffff 11 0] ------- [17:0 -1:0 32 0] 
r 0.424415003 _1_ AGT  --- 11 PBC 1000 [0 ffffffff 11 0] ------- [17:0 -1:0 32 0] 
r 0.424415020 _0_ AGT  --- 11 PBC 1000 [0 ffffffff 11 0] ------- [17:0 -1:0 32 0] 
s 0.441173382 _4_ AGT  --- 12 PBC 1000 [0 0 0 0] ------- [4:0 -1:0 32 0] 
r 0.441931399 _3_ AGT  --- 12 PBC 1000 [0 ffffffff 4 0] ------- [4:0 -1:0 32 0] 
r 0.441931399 _5_ AGT  --- 12 PBC 1000 [0 ffffffff 4 0] ------- [4:0 -1:0 32 0] 
r 0.441931415 _2_ AGT  --- 12 PBC 1000 [0 ffffffff 4 0] ------- [4:0 -1:0 32 0] 
r 0.441931415 _6_ AGT  --- 12 PBC 1000 [0 ffffffff 4 0] ------- [4:0 -1:0 32 0] 
r 0.441931432 _1_ AGT  --- 12 PBC 1000 [0 ffffffff 4 0] ------- [4:0 -1:0 32 0] 
r 0.441931432 _7_ AGT  --- 12 PBC 1000 [0 ffffffff 4 0] ------- [4:0 -1:0 32 0] 
r 0.441931449 _0_ AGT  --- 12 PBC 1000 [0 ffffffff 4 0] ------- [4:0 -1:0 32 0] 
r 0.441931449 _8_ AGT  --- 12 PBC 1000 [0 ffffffff 4 0] ------- [4:0 -1:0 32 0] 
r 0.441931465 _9_ AGT  --- 12 PBC 1000 [0 ffffffff 4 0] ------- [4:0 -1:0 32 0] 
r 0.441931482 _10_ AGT  --- 12 PBC 1000 [0 ffffffff 4 0] ------- [4:0 -1:0 32 0] 
r 0.441931499 _11_ AGT  --- 12 PBC 1000 [0 ffffffff 4 0] ------- [4:0 -1:0 32 0] 
r 0.441931515 _12_ AGT  --- 12 PBC 1000 [0 ffffffff 4 0] ------- [4:0 -1:0 32 0] 
r 0.441931532 _13_ AGT  --- 12 PBC 1000 [0 ffffffff 4 0] ------- [4:0 -1:0 32 0] 
r 0.441931549 _14_ AGT  --- 12 PBC 1000 [0 ffffffff 4 0] ------- [4:0 -1:0 32 0] 
r 0.441931565 _15_ AGT  --- 12 PBC 1000 [0 ffffffff 4 0] ------- [4:0 -1:0 32 0] 
r 0.441931582 _16_ AGT  --- 12 PBC 1000 [0 ffffffff 4 0] ------- [4:0 -1:0 32 0] 
r 0.441931599 _17_ AGT  --- 12 PBC 1000 [0 ffffffff 4 0] ------- [4:0 -1:0 32 0] 
r 0.441931615 _18_ AGT  --- 12 PBC 1000 [0 ffffffff 4 0] ------- [4:0 -1:0 32 0] 
r 0.441931632 _19_ AGT  --- 12 PBC 1000 [0 ffffffff 4 0] ------- [4:0 -1:0 32 0] 
s 0.555880716 _1_ AGT  --- 13 PBC 1000 [0 0 0 0] ------- [1:0 -1:0 32 0] 
r 0.556638733 _0_ AGT  --- 13 PBC 1000 [0 ffffffff 1 0] ------- [1:0 -1:0 32 0] 
r 0.556638733 _2_ AGT  --- 13 PBC 1000 [0 ffffffff 1 0] ------- [1:0 -1:0 32 0] 
r 0.556638749 _3_ AGT  --- 13 PBC 1000 [0 ffffffff 1 0] ------- [1:0 -1:0 32 0] 
r 0.556638766 _4_ AGT  --- 13 PBC 1000 [0 ffffffff 1 0] ------- [1:0 -1:0 32 0] 
r 0.556638783 _5_ AGT  --- 13 PBC 1000 [0 ffffffff 1 0] ------- [1:0 -1:0 32 0] 
r 0.556638799 _6_ AGT  --- 13 PBC 1000 [0 ffffffff 1 0] ------- [1:0 -1:0 32 0] 
r 0.556638816 _7_ AGT  --- 13 PBC 1000 [0 ffffffff 1 0] ------- [1:0 -1:0 32 0] 
r 0.556638849 _9_ AGT  --- 13 PBC 1000 [0 ffffffff 1 0] ------- [1:0 -1:0 32 0] 
r 0.556638866 _10_ AGT  --- 13 PBC 1000 [0 ffffffff 1 0] ------- [1:0 -1:0 32 0] 
r 0.556638883 _11_ AGT  --- 13 PBC 1000 [0 ffffffff 1 0] ------- [1:0 -1:0 32 0] 
r 0.556638899 _12_ AGT  --- 13 PBC 1000 [0 ffffffff 1 0] ------- [1:0 -1:0 32 0] 
r 0.556638916 _13_ AGT  --- 13 PBC 1000 [0 ffffffff 1 0] ------- [1:0 -1:0 32 0] 
r 0.556638983 _17_ AGT  --- 13 PBC 1000 [0 ffffffff 1 0] ------- [1:0 -1:0 32 0] 
r 0.556638999 _18_ AGT  --- 13 PBC 1000 [0 ffffffff 1 0] ------- [1:0 -1:0 32 0] 
r 0.556639016 _19_ AGT  --- 13 PBC 1000 [0 ffffffff 1 0] ------- [1:0 -1:0 32 0] 
s 0.638865143 _9_ AGT  --- 14 PBC 1000 [0 0 0 0] ------- [9:0 -1:0 32 0] 
r 0.639623160 _8_ AGT  --- 14 PBC 1000 [0 ffffffff 9 0] ------- [9:0 -1:0 32 0] 
r 0.639623160 _10_ AGT  --- 14 PBC 1000 [0 ffffffff 9 0] ------- [9:0 -1:0 32 0] 
r 0.639623177 _7_ AGT  --- 14 PBC 1000 [0 ffffffff 9 0] ------- [9:0 -1:0 32 0] 
r 0.639623177 _11_ AGT  --- 14 PBC 1000 [0 ffffffff 9 0] ------- [9:0 -1:0 32 0] 
r 0.639623193 _6_ AGT  --- 14 PBC 1000 [0 ffffffff 9 0] ------- [9:0 -1:0 32 0] 
r 0.639623193 _12_ AGT  --- 14 PBC 1000 [0 ffffffff 9 0] ------- [9:0 -1:0 32 0] 
r 0.639623210 _5_ AGT  --- 14 PBC 1000 [0 ffffffff 9 0] ------- [9:0 -1:0 32 0] 
r 0.639623210 _13_ AGT  --- 14 PBC 1000 [0 ffffffff 9 0] ------- [9:0 -1:0 32 0] 
r 0.639623227 _4_ AGT  --- 14 PBC 1000 [0 ffffffff 9 0] ------- [9:0 -1:0 32 0] 
r 0.639623227 _14_ AGT  --- 14 PBC 1000 [0 ffffffff 9 0] ------- [9:0 -1:0 32 0] 
r 0.639623243 _3_ AGT  --- 14 PBC 1000 [0 ffffffff 9 0] ------- [9:0 -1:0 32 0] 
r 0.639623243 _15_ AGT  --- 14 PBC 1000 [0 ffffffff 9 0] ------- [9:0 -1:0 32 0] 
r 0.639623260 _2_ AGT  --- 14 PBC 1000 [0 ffffffff 9 0] ------- [9:0 -1:0 32 0] 
r 0.639623260 _16_ AGT  --- 14 PBC 1000 [0 ffffffff 9 0] ------- [9:0 -1:0 32 0] 
r 0.639623277 _17_ AGT  --- 14 PBC 1000 [0 ffffffff 9 0] ------- [9:0 -1:0 32 0] 
r 0.639623293 _0_ AGT  --- 14 PBC 1000 [0 ffffffff 9 0] ------- [9:0 -1:0 32 0] 
r 0.639623293 _18_ AGT  --- 14 PBC 1000 [0 ffffffff 9 0] ------- [9:0 -1:0 32 0] 
r 0.639623310 _19_ AGT  --- 14 PBC 1000 [0 ffffffff 9 0] ------- [9:0 -1:0 32 0] 
s 0.640067659 _14_ AGT  --- 15 PBC 1000 [0 0 0 0] ------- [14:0 -1:0 32 0] 
r 0.640825676 _13_ AGT  --- 15 PBC 1000 [0 ffffffff e 0] ------- [14:0 -1:0 32 0] 
r 0.640825676 _15_ AGT  --- 15 PBC 1000 [0 ffffffff e 0] ------- [14:0 -1:0 32 0] 
r 0.640825692 _12_ AGT  --- 15 PBC 1000 [0 ffffffff e 0] ------- [14:0 -1:0 32 0] 
r 0.640825692 _16_ AGT  --- 15 PBC 1000 [0 ffffffff e 0] ------- [14:0 -1:0 32 0] 
r 0.640825709 _11_ AGT  --- 15 PBC 1000 [0 ffffffff e 0] ------- [14:0 -1:0 32 0] 
r 0.640825709 _17_ AGT  --- 15 PBC 1000 [0 ffffffff e 0] ------- [14:0 -1:0 32 0] 
r 0.640825726 _10_ AGT  --- 15 PBC 1000 [0 ffffffff e 0] ------- [14:0 -1:0 32 0] 
r 0.640825726 _18_ AGT  --- 15 PBC 1000 [0 ffffffff e 0] ------- [14:0 -1:0 32 0] 
r 0.640825742 _9_ AGT  --- 15 PBC 1000 [0 ffffffff e 0] ------- [14:0 -1:0 32 0] 
r 0.640825742 _19_ AGT  --- 15 PBC 1000 [0 ffffffff e 0] ------- [14:0 -1:0 32 0] 
r 0.640825759 _8_ AGT  --- 15 PBC 1000 [0 ffffffff e 0] ------- [14:0 -1:0 32 0] 
r 0.640825776 _7_ AGT  --- 15 PBC 1000 [0 ffffffff e 0] ------- [14:0 -1:0 32 0] 
r 0.640825792 _6_ AGT  --- 15 PBC 1000 [0 ffffffff e 0] ------- [14:0 -1:0 32 0] 
r 0.640825809 _5_ AGT  --- 15 PBC 1000 [0 ffffffff e 0] ------- [14:0 -1:0 32 0] 
r 0.640825826 _4_ AGT  --- 15 PBC 1000 [0 ffffffff e 0] ------- [14:0 -1:0 32 0] 
r 0.640825859 _2_ AGT  --- 15 PBC 1000 [0 ffffffff e 0] ------- [14:0 -1:0 32 0] 
r 0.640825876 _1_ AGT  --- 15 PBC 1000 [0 ffffffff e 0] ------- [14:0 -1:0 32 0] 
s 0.799155454 _5_ AGT  --- 16 PBC 1000 [0 0 0 0] ------- [5:0 -1:0 32 0] 
r 0.799913470 _4_ AGT  --- 16 PBC 1000 [0 ffffffff 5 0] ------- [5:0 -1:0 32 0] 
r 0.799913470 _6_ AGT  --- 16 PBC 1000 [0 ffffffff 5 0] ------- [5:0 -1:0 32 0] 
r 0.799913487 _3_ AGT  --- 16 PBC 1000 [0 ffffffff 5 0] ------- [5:0 -1:0 32 0] 
r 0.799913487 _7_ AGT  --- 16 PBC 1000 [0 ffffffff 5 0] ------- [5:0 -1:0 32 0] 
r 0.799913504 _2_ AGT  --- 16 PBC 1000 [0 ffffffff 5 0] ------- [5:0 -1:0 32 0] 
r 0.799913504 _8_ AGT  --- 16 PBC 1000 [0 ffffffff 5 0] ------- [5:0 -1:0 32 0] 
r 0.799913520 _1_ AGT  --- 16 PBC 1000 [0 ffffffff 5 0] ------- [5:0 -1:0 32 0] 
r 0.799913520 _9_ AGT  --- 16 PBC 1000 [0 ffffffff 5 0] ------- [5:0 -1:0 32 0] 
r 0.799913537 _0_ AGT  --- 16 PBC 1000 [0 ffffffff 5 0] ------- [5:0 -1:0 32 0] 
r 0.799913537 _10_ AGT  --- 16 PBC 1000 [0 ffffffff 5 0] ------- [5:0 -1:0 32 0] 
r 0.799913554 _11_ AGT  --- 16 PBC 1000 [0 ffffffff 5 0] ------- [5:0 -1:0 32 0] 
r 0.799913570 _12_ AGT  --- 16 PBC 1000 [0 ffffffff 5 0] ------- [5:0 -1:0 32 0] 
r 0.799913587 _13_ AGT  --- 16 PBC 1000 [0 ffffffff 5 0] ------- [5:0 -1:0 32 0] 
r 0.799913604 _14_ AGT  --- 16 PBC 1000 [0 ffffffff 5 0] ------- [5:0 -1:0 32 0] 
r 0.799913637 _16_ AGT  --- 16 PBC 1000 [0 ffffffff 5 0] ------- [5:0 -1:0 32 0] 
r 0.799913670 _18_ AGT  --- 16 PBC 1000 [0 ffffffff 5 0] ------- [5:0 -1:0 32 0] 
r 0.799913687 _19_ AGT  --- 16 PBC 1000 [0 ffffffff 5 0] ------- [5:0 -1:0 32 0] 
s 0.816476051 _7_ AGT  --- 17 PBC 1000 [0 0 0 0] ------- [7:0 -1:0 32 0] 
r 0.817234068 _6_ AGT  --- 17 PBC 1000 [0 ffffffff 7 0] ------- [7:0 -1:0 32 0] 
r 0.817234068 _8_ AGT  --- 17 PBC 1000 [0 ffffffff 7 0] ------- [7:0 -1:0 32 0] 
r 0.817234085 _5_ AGT  --- 17 PBC 1000 [0 ffffffff 7 0] ------- [7:0 -1:0 32 0] 
r 0.817234085 _9_ AGT  --- 17 PBC 1000 [0 ffffffff 7 0] ------- [7:0 -1:0 32 0] 
r 0.817234101 _4_ AGT  --- 17 PBC 1000 [0 ffffffff 7 0] ------- [7:0 -1:0 32 0] 
r 0.817234101 _10_ AGT  --- 17 PBC 1000 [0 ffffffff 7 0] ------- [7:0 -1:0 32 0] 
r 0.817234118 _11_ AGT  --- 17 PBC 1000 [0 ffffffff 7 0] ------- [7:0 -1:0 32 0] 
r 0.817234135 _2_ AGT  --- 17 PBC 1000 [0 ffffffff 7 0] ------- [7:0 -1:0 32 0] 
r 0.817234135 _12_ AGT  --- 17 PBC 1000 [0 ffffffff 7 0] ------- [7:0 -1:0 32 0] 
r 0.817234151 _13_ AGT  --- 17 PBC 1000 [0 ffffffff 7 0] ------- [7:0 -1:0 32 0] 
r 0.817234168 _0_ AGT  --- 17 PBC 1000 [0 ffffffff 7 0] ------- [7:0 -1:0 32 0] 
r 0.817234168 _14_ AGT  --- 17 PBC 1000 [0 ffffffff 7 0] ------- [7:0 -1:0 32 0] 
r 0.817234185 _15_ AGT  --- 17 PBC 1000 [0 ffffffff 7 0] ------- [7:0 -1:0 32 0] 
r 0.817234201 _16_ AGT  --- 17 PBC 1000 [0 ffffffff 7 0] ------- [7:0 -1:0 32 0] 
r 0.817234235 _18_ AGT  --- 17 PBC 1000 [0 ffffffff 7 0] ------- [7:0 -1:0 32 0] 
r 0.817234251 _19_ AGT  --- 17 PBC 1000 [0 ffffffff 7 0] ------- [7:0 -1:0 32 0] 
s 0.836323537 _11_ AGT  --- 18 PBC 1000 [0 0 0 0] ------- [11:0 -1:0 32 0] 
r 0.837081554 _10_ AGT  --- 18 PBC 1000 [0 ffffffff b 0] ------- [11:0 -1:0 32 0] 
r 0.837081554 _12_ AGT  --- 18 PBC 1000 [0 ffffffff b 0] ------- [11:0 -1:0 32 0] 
r 0.837081570 _9_ AGT  --- 18 PBC 1000 [0 ffffffff b 0] ------- [11:0 -1:0 32 0] 
r 0.837081570 _13_ AGT  --- 18 PBC 1000 [0 ffffffff b 0] ------- [11:0 -1:0 32 0] 
r 0.837081587 _8_ AGT  --- 18 PBC 1000 [0 ffffffff b 0] ------- [11:0 -1:0 32 0] 
r 0.837081587 _14_ AGT  --- 18 PBC 1000 [0 ffffffff b 0] ------- [11:0 -1:0 32 0] 
r 0.837081604 _7_ AGT  --- 18 PBC 1000 [0 ffffffff b 0] ------- [11:0 -1:0 32 0] 
r 0.837081604 _15_ AGT  --- 18 PBC 1000 [0 ffffffff b 0] ------- [11:0 -1:0 32 0] 
r 0.837081620 _6_ AGT  --- 18 PBC 1000 [0 ffffffff b 0] ------- [11:0 -1:0 32 0] 
r 0.837081620 _16_ AGT  --- 18 PBC 1000 [0 ffffffff b 0] ------- [11:0 -1:0 32 0] 
r 0.837081637 _5_ AGT  --- 18 PBC 1000 [0 ffffffff b 0] ------- [11:0 -1:0 32 0] 
r 0.837081637 _17_ AGT  --- 18 PBC 1000 [0 ffffffff b 0] ------- [11:0 -1:0 32 0] 
r 0.837081654 _4_ AGT  --- 18 PBC 1000 [0 ffffffff b 0] ------- [11:0 -1:0 32 0] 
r 0.837081654 _18_ AGT  --- 18 PBC 1000 [0 ffffffff b 0] ------- [11:0 -1:0 32 0] 
r 0.837081670 _3_ AGT  --- 18 PBC 1000 [0 ffffffff b 0] ------- [11:0 -1:0 32 0] 
r 0.837081670 _19_ AGT  --- 18 PBC 1000 [0 ffffffff b 0] ------- [11:0 -1:0 32 0] 
r 0.837081687 _2_ AGT  --- 18 PBC 1000 [0 ffffffff b 0] ------- [11:0 -1:0 32 0] 
r 0.837081720 _0_ AGT  --- 18 PBC 1000 [0 ffffffff b 0] ------- [11:0 -1:0 32 0] 
s 0.859727697 _16_ AGT  --- 19 PBC 1000 [0 0 0 0] ------- [16:0 -1:0 32 0] 
r 0.860485714 _15_ AGT  --- 19 PBC 1000 [0 ffffffff 10 0] ------- [16:0 -1:0 32 0] 
r 0.860485714 _17_ AGT  --- 19 PBC 1000 [0 ffffffff 10 0] ------- [16:0 -1:0 32 0] 
r 0.860485731 _14_ AGT  --- 19 PBC 1000 [0 ffffffff 10 0] ------- [16:0 -1:0 32 0] 
r 0.860485731 _18_ AGT  --- 19 PBC 1000 [0 ffffffff 10 0] ------- [16:0 -1:0 32 0] 
r 0.860485747 _13_ AGT  --- 19 PBC 1000 [0 ffffffff 10 0] ------- [16:0 -1:0 32 0] 
r 0.860485747 _19_ AGT  --- 19 PBC 1000 [0 ffffffff 10 0] ------- [16:0 -1:0 32 0] 
r 0.860485764 _12_ AGT  --- 19 PBC 1000 [0 ffffffff 10 0] ------- [16:0 -1:0 32 0] 
r 0.860485781 _11_ AGT  --- 19 PBC 1000 [0 ffffffff 10 0] ------- [16:0 -1:0 32 0] 
r 0.860485797 _10_ AGT  --- 19 PBC 1000 [0 ffffffff 10 0] ------- [16:0 -1:0 32 0] 
r 0.860485814 _9_ AGT  --- 19 PBC 1000 [0 ffffffff 10 0] ------- [16:0 -1:0 32 0] 
r 0.860485831 _8_ AGT  --- 19 PBC 1000 [0 ffffffff 10 0] ------- [16:0 -1:0 32 0] 
r 0.860485847 _7_ AGT  --- 19 PBC 1000 [0 ffffffff 10 0] ------- [16:0 -1:0 32 0] 
r 0.860485864 _6_ AGT  --- 19 PBC 1000 [0 ffffffff 10 0] ------- [16:0 -1:0 32 0] 
r 0.860485881 _5_ AGT  --- 19 PBC 1000 [0 ffffffff 10 0] ------- [16:0 -1:0 32 0] 
r 0.860485897 _4_ AGT  --- 19 PBC 1000 [0 ffffffff 10 0] ------- [16:0 -1:0 32 0] 
r 0.860485914 _3_ AGT  --- 19 PBC 1000 [0 ffffffff 10 0] ------- [16:0 -1:0 32 0] 
r 0.860485931 _2_ AGT  --- 19 PBC 1000 [0 ffffffff 10 0] ------- [16:0 -1:0 32 0] 
r 0.860485964 _0_ AGT  --- 19 PBC 1000 [0 ffffffff 10 0] ------- [16:0 -1:0 32 0] 
s 0.984141363 _13_ AGT  --- 20 PBC 1000 [0 0 0 0] ------- [13:0 -1:0 32 0] 
r 0.984899380 _12_ AGT  --- 20 PBC 1000 [0 ffffffff d 0] ------- [13:0 -1:0 32 0] 
r 0.984899380 _14_ AGT  --- 20 PBC 1000 [0 ffffffff d 0] ------- [13:0 -1:0 32 0] 
r 0.984899397 _11_ AGT  --- 20 PBC 1000 [0 ffffffff d 0] ------- [13:0 -1:0 32 0] 
r 0.984899397 _15_ AGT  --- 20 PBC 1000 [0 ffffffff d 0] ------- [13:0 -1:0 32 0] 
r 0.984899413 _10_ AGT  --- 20 PBC 1000 [0 ffffffff d 0] ------- [13:0 -1:0 32 0] 