s 0.010000000 _1_ AGT  --- 0 PBC 1000 [0 0 0 0] ------- [1:0 -1:0 32 0] 
s 0.010025000 _1_ MAC  --- 0 PBC 1028 [0 ffffffff 1 0] ------- [1:0 -1:0 32 0] 
s 0.010025000 _1_ PHY  --- 0 PBC 1028 ------- [1:0 -1:0 32 0] 
r 0.011421033 _0_ MAC  --- 0 PBC 1000 [0 ffffffff 1 0] ------- [1:0 -1:0 32 0] 
r 0.011421033 _2_ MAC  --- 0 PBC 1000 [0 ffffffff 1 0] ------- [1:0 -1:0 32 0] 
r 0.011446033 _0_ AGT  --- 0 PBC 1000 [0 ffffffff 1 0] ------- [1:0 -1:0 32 0] 
r 0.011446033 _2_ AGT  --- 0 PBC 1000 [0 ffffffff 1 0] ------- [1:0 -1:0 32 0] 
s 1.010000000 _1_ AGT  --- 1 PBC 1000 [0 0 0 0] ------- [1:0 2:0 32 2] 
s 1.010025000 _1_ MAC  --- 1 PBC 1028 [3c 2 1 0] ------- [1:0 2:0 32 2] 
s 1.010025000 _1_ PHY  --- 1 PBC 1028 ------- [1:0 2:0 32 2] 
r 1.011421033 _2_ MAC  --- 1 PBC 1000 [3c 2 1 0] ------- [1:0 2:0 32 2] 
s 1.011437033 _2_ MAC  --- 0 ACK 14 [0 1 0 0] 
s 1.011437033 _2_ PHY  --- 0 ACK 14 
r 1.011446033 _2_ AGT  --- 1 PBC 1000 [3c 2 1 0] ------- [1:0 2:0 32 2] 
r 1.011481067 _1_ MAC  --- 0 ACK 14 [0 1 0 0] 
s 2.010000000 _1_ AGT  --- 2 PBC 1000 [0 0 0 0] ------- [1:0 3:0 32 3] 
s 2.010025000 _1_ MAC  --- 2 PBC 1028 [3c 3 1 0] ------- [1:0 3:0 32 3] 
s 2.010025000 _1_ PHY  --- 2 PBC 1028 ------- [1:0 3:0 32 3] 
s 2.011617000 _1_ MAC  --- 2 PBC 1028 [3c 3 1 0] ------- [1:0 3:0 32 3] 
s 2.011617000 _1_ PHY  --- 2 PBC 1028 ------- [1:0 3:0 32 3] 
s 2.013119000 _1_ MAC  --- 2 PBC 1028 [3c 3 1 0] ------- [1:0 3:0 32 3] 
s 2.013119000 _1_ PHY  --- 2 PBC 1028 ------- [1:0 3:0 32 3] 
s 2.014900000 _1_ MAC  --- 2 PBC 1028 [3c 3 1 0] ------- [1:0 3:0 32 3] 
s 2.014900000 _1_ PHY  --- 2 PBC 1028 ------- [1:0 3:0 32 3] 
s 2.018544000 _1_ MAC  --- 2 PBC 1028 [3c 3 1 0] ------- [1:0 3:0 32 3] 
s 2.018544000 _1_ PHY  --- 2 PBC 1028 ------- [1:0 3:0 32 3] 
s 2.021459000 _1_ MAC  --- 2 PBC 1028 [3c 3 1 0] ------- [1:0 3:0 32 3] 
s 2.021459000 _1_ PHY  --- 2 PBC 1028 ------- [1:0 3:0 32 3] 
s 2.031844000 _1_ MAC  --- 2 PBC 1028 [3c 3 1 0] ------- [1:0 3:0 32 3] 
s 2.031844000 _1_ PHY  --- 2 PBC 1028 ------- [1:0 3:0 32 3] 
D 2.033310000 _1_ MAC  RET 2 PBC 1028 [3c 3 1 0] ------- [1:0 3:0 32 3] 
s 3.020000000 _1_ AGT  --- 3 PBC 2500 [0 0 0 0] ------- [1:0 2:0 32 2] 
s 3.020025000 _1_ MAC  --- 0 RTS 20 [dcc 2 1 0] 
s 3.020025000 _1_ PHY  --- 0 RTS 20 
r 3.020077033 _2_ MAC  --- 0 RTS 20 [dcc 2 1 0] 
s 3.020093033 _2_ MAC  --- 0 CTS 14 [d90 1 0 0] 
s 3.020093033 _2_ PHY  --- 0 CTS 14 
r 3.020137067 _1_ MAC  --- 0 CTS 14 [d90 1 0 0] 
s 3.020153067 _1_ MAC  --- 3 PBC 2528 [3c 2 1 0] ------- [1:0 2:0 32 2] 
s 3.020153067 _1_ PHY  --- 3 PBC 2528 ------- [1:0 2:0 32 2] 
r 3.023549100 _2_ MAC  --- 3 PBC 2500 [3c 2 1 0] ------- [1:0 2:0 32 2] 
s 3.023565100 _2_ MAC  --- 0 ACK 14 [0 1 0 0] 
s 3.023565100 _2_ PHY  --- 0 ACK 14 
r 3.023574100 _2_ AGT  --- 3 PBC 2500 [3c 2 1 0] ------- [1:0 2:0 32 2] 
r 3.023609133 _1_ MAC  --- 0 ACK 14 [0 1 0 0] 
