M 0.0 nn 50 x 670 y 670 rp dsr
M 0.0 sc ../mobility/scene/scen-670x670-50-600-20-0 cp ../mobility/scene/cbr-50-10-4-512 seed 0.0
M 0.0 prop Propagation/TwoRayGround ant Antenna/OmniAntenna
Sconfig 0.00000 tap: on snoop: rts? on errs? on
Sconfig 0.00000 salvage: on !bd replies? on
Sconfig 0.00000 grat error: on grat reply: on
Sconfig 0.00000 $reply for props: on ring 0 search: on
Sconfig 0.00000 using MOBICACHE
s 29.031284241 _9_ AGT  --- 0 cbr 512 [0 0 0 0] ------- [9:2 11:0 32 0] [0] 0 2
r 29.031284241 _9_ RTR  --- 0 cbr 512 [0 0 0 0] ------- [9:2 11:0 32 0] [0] 0 2
s 29.039395394 _9_ RTR  --- 1 DSR 32 [0 0 0 0] ------- [9:255 11:255 32 0] 1 [1 1] [0 1 0 0->0] [0 0 0 0->0]
s 29.063562744 _9_ RTR  --- 2 DSR 32 [0 0 0 0] ------- [9:255 11:255 32 0] 1 [1 2] [0 2 0 0->0] [0 0 0 0->0]
r 29.130361089 _43_ RTR  --- 1 DSR 32 [0 ffffffff 9 0] ------- [9:255 11:255 32 0] 1 [1 1] [0 1 0 0->0] [0 0 0 0->0]
r 29.130361179 _16_ RTR  --- 1 DSR 32 [0 ffffffff 9 0] ------- [9:255 11:255 32 0] 1 [1 1] [0 1 0 0->0] [0 0 0 0->0]
r 29.130361230 _29_ RTR  --- 1 DSR 32 [0 ffffffff 9 0] ------- [9:255 11:255 32 0] 1 [1 1] [0 1 0 0->0] [0 0 0 0->0]
r 29.130361358 _10_ RTR  --- 1 DSR 32 [0 ffffffff 9 0] ------- [9:255 11:255 32 0] 1 [1 1] [0 1 0 0->0] [0 0 0 0->0]
r 29.130361380 _14_ RTR  --- 1 DSR 32 [0 ffffffff 9 0] ------- [9:255 11:255 32 0] 1 [1 1] [0 1 0 0->0] [0 0 0 0->0]
r 29.130361390 _22_ RTR  --- 1 DSR 32 [0 ffffffff 9 0] ------- [9:255 11:255 32 0] 1 [1 1] [0 1 0 0->0] [0 0 0 0->0]
r 29.130361514 _12_ RTR  --- 1 DSR 32 [0 ffffffff 9 0] ------- [9:255 11:255 32 0] 1 [1 1] [0 1 0 0->0] [0 0 0 0->0]
r 29.130361558 _1_ RTR  --- 1 DSR 32 [0 ffffffff 9 0] ------- [9:255 11:255 32 0] 1 [1 1] [0 1 0 0->0] [0 0 0 0->0]
r 29.130361564 _34_ RTR  --- 1 DSR 32 [0 ffffffff 9 0] ------- [9:255 11:255 32 0] 1 [1 1] [0 1 0 0->0] [0 0 0 0->0]
r 29.130361588 _0_ RTR  --- 1 DSR 32 [0 ffffffff 9 0] ------- [9:255 11:255 32 0] 1 [1 1] [0 1 0 0->0] [0 0 0 0->0]
r 29.130361619 _2_ RTR  --- 1 DSR 32 [0 ffffffff 9 0] ------- [9:255 11:255 32 0] 1 [1 1] [0 1 0 0->0] [0 0 0 0->0]
r 29.130361649 _47_ RTR  --- 1 DSR 32 [0 ffffffff 9 0] ------- [9:255 11:255 32 0] 1 [1 1] [0 1 0 0->0] [0 0 0 0->0]
r 29.130361683 _26_ RTR  --- 1 DSR 32 [0 ffffffff 9 0] ------- [9:255 11:255 32 0] 1 [1 1] [0 1 0 0->0] [0 0 0 0->0]
r 29.130361683 _33_ RTR  --- 1 DSR 32 [0 ffffffff 9 0] ------- [9:255 11:255 32 0] 1 [1 1] [0 1 0 0->0] [0 0 0 0->0]
r 29.130361701 _39_ RTR  --- 1 DSR 32 [0 ffffffff 9 0] ------- [9:255 11:255 32 0] 1 [1 1] [0 1 0 0->0] [0 0 0 0->0]
r 29.130361707 _45_ RTR  --- 1 DSR 32 [0 ffffffff 9 0] ------- [9:255 11:255 32 0] 1 [1 1] [0 1 0 0->0] [0 0 0 0->0]
r 29.130361729 _40_ RTR  --- 1 DSR 32 [0 ffffffff 9 0] ------- [9:255 11:255 32 0] 1 [1 1] [0 1 0 0->0] [0 0 0 0->0]
r 29.130361732 _46_ RTR  --- 1 DSR 32 [0 ffffffff 9 0] ------- [9:255 11:255 32 0] 1 [1 1] [0 1 0 0->0] [0 0 0 0->0]
r 29.130361732 _17_ RTR  --- 1 DSR 32 [0 ffffffff 9 0] ------- [9:255 11:255 32 0] 1 [1 1] [0 1 0 0->0] [0 0 0 0->0]
r 29.130361802 _21_ RTR  --- 1 DSR 32 [0 ffffffff 9 0] ------- [9:255 11:255 32 0] 1 [1 1] [0 1 0 0->0] [0 0 0 0->0]
r 29.130361813 _27_ RTR  --- 1 DSR 32 [0 ffffffff 9 0] ------- [9:255 11:255 32 0] 1 [1 1] [0 1 0 0->0] [0 0 0 0->0]
r 29.436361089 _43_ RTR  --- 2 DSR 32 [0 ffffffff 9 0] ------- [9:255 11:255 32 0] 1 [1 2] [0 2 0 0->0] [0 0 0 0->0]
r 29.436361179 _16_ RTR  --- 2 DSR 32 [0 ffffffff 9 0] ------- [9:255 11:255 32 0] 1 [1 2] [0 2 0 0->0] [0 0 0 0->0]
r 29.436361230 _29_ RTR  --- 2 DSR 32 [0 ffffffff 9 0] ------- [9:255 11:255 32 0] 1 [1 2] [0 2 0 0->0] [0 0 0 0->0]
r 29.436361358 _10_ RTR  --- 2 DSR 32 [0 ffffffff 9 0] ------- [9:255 11:255 32 0] 1 [1 2] [0 2 0 0->0] [0 0 0 0->0]
r 29.436361380 _14_ RTR  --- 2 DSR 32 [0 ffffffff 9 0] ------- [9:255 11:255 32 0] 1 [1 2] [0 2 0 0->0] [0 0 0 0->0]
r 29.436361390 _22_ RTR  --- 2 DSR 32 [0 ffffffff 9 0] ------- [9:255 11:255 32 0] 1 [1 2] [0 2 0 0->0] [0 0 0 0->0]
r 29.436361514 _12_ RTR  --- 2 DSR 32 [0 ffffffff 9 0] ------- [9:255 11:255 32 0] 1 [1 2] [0 2 0 0->0] [0 0 0 0->0]
r 29.436361558 _1_ RTR  --- 2 DSR 32 [0 ffffffff 9 0] ------- [9:255 11:255 32 0] 1 [1 2] [0 2 0 0->0] [0 0 0 0->0]
r 29.436361564 _34_ RTR  --- 2 DSR 32 [0 ffffffff 9 0] ------- [9:255 11:255 32 0] 1 [1 2] [0 2 0 0->0] [0 0 0 0->0]
r 29.436361588 _0_ RTR  --- 2 DSR 32 [0 ffffffff 9 0] ------- [9:255 11:255 32 0] 1 [1 2] [0 2 0 0->0] [0 0 0 0->0]
r 29.436361619 _2_ RTR  --- 2 DSR 32 [0 ffffffff 9 0] ------- [9:255 11:255 32 0] 1 [1 2] [0 2 0 0->0] [0 0 0 0->0]
r 29.436361649 _47_ RTR  --- 2 DSR 32 [0 ffffffff 9 0] ------- [9:255 11:255 32 0] 1 [1 2] [0 2 0 0->0] [0 0 0 0->0]
r 29.436361683 _26_ RTR  --- 2 DSR 32 [0 ffffffff 9 0] ------- [9:255 11:255 32 0] 1 [1 2] [0 2 0 0->0] [0 0 0 0->0]
r 29.436361683 _33_ RTR  --- 2 DSR 32 [0 ffffffff 9 0] ------- [9:255 11:255 32 0] 1 [1 2] [0 2 0 0->0] [0 0 0 0->0]
r 29.436361701 _39_ RTR  --- 2 DSR 32 [0 ffffffff 9 0] ------- [9:255 11:255 32 0] 1 [1 2] [0 2 0 0->0] [0 0 0 0->0]
r 29.436361707 _45_ RTR  --- 2 DSR 32 [0 ffffffff 9 0] ------- [9:255 11:255 32 0] 1 [1 2] [0 2 0 0->0] [0 0 0 0->0]
r 29.436361729 _40_ RTR  --- 2 DSR 32 [0 ffffffff 9 0] ------- [9:255 11:255 32 0] 1 [1 2] [0 2 0 0->0] [0 0 0 0->0]
r 29.436361732 _46_ RTR  --- 2 DSR 32 [0 ffffffff 9 0] ------- [9:255 11:255 32 0] 1 [1 2] [0 2 0 0->0] [0 0 0 0->0]
r 29.436361732 _17_ RTR  --- 2 DSR 32 [0 ffffffff 9 0] ------- [9:255 11:255 32 0] 1 [1 2] [0 2 0 0->0] [0 0 0 0->0]
r 29.436361802 _21_ RTR  --- 2 DSR 32 [0 ffffffff 9 0] ------- [9:255 11:255 32 0] 1 [1 2] [0 2 0 0->0] [0 0 0 0->0]
r 29.436361813 _27_ RTR  --- 2 DSR 32 [0 ffffffff 9 0] ------- [9:255 11:255 32 0] 1 [1 2] [0 2 0 0->0] [0 0 0 0->0]
f 29.436417668 _39_ RTR  --- 2 DSR 48 [0 ffffffff 9 0] ------- [9:255 11:255 32 0] 2 [1 2] [0 2 0 0->0] [0 0 0 0->0]
f 29.436750128 _0_ RTR  --- 2 DSR 48 [0 ffffffff 9 0] ------- [9:255 11:255 32 0] 2 [1 2] [0 2 0 0->0] [0 0 0 0->0]
f 29.437250766 _43_ RTR  --- 2 DSR 48 [0 ffffffff 9 0] ------- [9:255 11:255 32 0] 2 [1 2] [0 2 0 0->0] [0 0 0 0->0]
f 29.437707045 _45_ RTR  --- 2 DSR 48 [0 ffffffff 9 0] ------- [9:255 11:255 32 0] 2 [1 2] [0 2 0 0->0] [0 0 0 0->0]
f 29.437950230 _22_ RTR  --- 2 DSR 48 [0 ffffffff 9 0] ------- [9:255 11:255 32 0] 2 [1 2] [0 2 0 0->0] [0 0 0 0->0]
f 29.438131862 _46_ RTR  --- 2 DSR 48 [0 ffffffff 9 0] ------- [9:255 11:255 32 0] 2 [1 2] [0 2 0 0->0] [0 0 0 0->0]
f 29.439002457 _1_ RTR  --- 2 DSR 48 [0 ffffffff 9 0] ------- [9:255 11:255 32 0] 2 [1 2] [0 2 0 0->0] [0 0 0 0->0]
f 29.440427813 _29_ RTR  --- 2 DSR 48 [0 ffffffff 9 0] ------- [9:255 11:255 32 0] 2 [1 2] [0 2 0 0->0] [0 0 0 0->0]
f 29.442053694 _16_ RTR  --- 2 DSR 48 [0 ffffffff 9 0] ------- [9:255 11:255 32 0] 2 [1 2] [0 2 0 0->0] [0 0 0 0->0]
f 29.442227369 _12_ RTR  --- 2 DSR 48 [0 ffffffff 9 0] ------- [9:255 11:255 32 0] 2 [1 2] [0 2 0 0->0] [0 0 0 0->0]
f 29.443620856 _34_ RTR  --- 2 DSR 48 [0 ffffffff 9 0] ------- [9:255 11:255 32 0] 2 [1 2] [0 2 0 0->0] [0 0 0 0->0]
f 29.443735197 _21_ RTR  --- 2 DSR 48 [0 ffffffff 9 0] ------- [9:255 11:255 32 0] 2 [1 2] [0 2 0 0->0] [0 0 0 0->0]
f 29.443853807 _14_ RTR  --- 2 DSR 48 [0 ffffffff 9 0] ------- [9:255 11:255 32 0] 2 [1 2] [0 2 0 0->0] [0 0 0 0->0]
f 29.444197237 _47_ RTR  --- 2 DSR 48 [0 ffffffff 9 0] ------- [9:255 11:255 32 0] 2 [1 2] [0 2 0 0->0] [0 0 0 0->0]
f 29.444366926 _27_ RTR  --- 2 DSR 48 [0 ffffffff 9 0] ------- [9:255 11:255 32 0] 2 [1 2] [0 2 0 0->0] [0 0 0 0->0]
f 29.444377575 _33_ RTR  --- 2 DSR 48 [0 ffffffff 9 0] ------- [9:255 11:255 32 0] 2 [1 2] [0 2 0 0->0] [0 0 0 0->0]
f 29.444457490 _2_ RTR  --- 2 DSR 48 [0 ffffffff 9 0] ------- [9:255 11:255 32 0] 2 [1 2] [0 2 0 0->0] [0 0 0 0->0]
f 29.444719380 _40_ RTR  --- 2 DSR 48 [0 ffffffff 9 0] ------- [9:255 11:255 32 0] 2 [1 2] [0 2 0 0->0] [0 0 0 0->0]
f 29.445256076 _17_ RTR  --- 2 DSR 48 [0 ffffffff 9 0] ------- [9:255 11:255 32 0] 2 [1 2] [0 2 0 0->0] [0 0 0 0->0]
f 29.445840795 _26_ RTR  --- 2 DSR 48 [0 ffffffff 9 0] ------- [9:255 11:255 32 0] 2 [1 2] [0 2 0 0->0] [0 0 0 0->0]
f 29.446288805 _10_ RTR  --- 2 DSR 48 [0 ffffffff 9 0] ------- [9:255 11:255 32 0] 2 [1 2] [0 2 0 0->0] [0 0 0 0->0]
r 29.688425148 _47_ RTR  --- 2 DSR 48 [0 ffffffff 0 0] ------- [9:255 11:255 32 0] 2 [1 2] [0 2 0 0->0] [0 0 0 0->0]
r 29.688425266 _27_ RTR  --- 2 DSR 48 [0 ffffffff 0 0] ------- [9:255 11:255 32 0] 2 [1 2] [0 2 0 0->0] [0 0 0 0->0]
r 29.688425316 _22_ RTR  --- 2 DSR 48 [0 ffffffff 0 0] ------- [9:255 11:255 32 0] 2 [1 2] [0 2 0 0->0] [0 0 0 0->0]
r 29.688425358 _29_ RTR  --- 2 DSR 48 [0 ffffffff 0 0] ------- [9:255 11:255 32 0] 2 [1 2] [0 2 0 0->0] [0 0 0 0->0]
r 29.688425387 _39_ RTR  --- 2 DSR 48 [0 ffffffff 0 0] ------- [9:255 11:255 32 0] 2 [1 2] [0 2 0 0->0] [0 0 0 0->0]
r 29.688425392 _46_ RTR  --- 2 DSR 48 [0 ffffffff 0 0] ------- [9:255 11:255 32 0] 2 [1 2] [0 2 0 0->0] [0 0 0 0->0]
r 29.688425403 _7_ RTR  --- 2 DSR 48 [0 ffffffff 0 0] ------- [9:255 11:255 32 0] 2 [1 2] [0 2 0 0->0] [0 0 0 0->0]
r 29.688425428 _34_ RTR  --- 2 DSR 48 [0 ffffffff 0 0] ------- [9:255 11:255 32 0] 2 [1 2] [0 2 0 0->0] [0 0 0 0->0]
r 29.688425451 _23_ RTR  --- 2 DSR 48 [0 ffffffff 0 0] ------- [9:255 11:255 32 0] 2 [1 2] [0 2 0 0->0] [0 0 0 0->0]
r 29.688425482 _16_ RTR  --- 2 DSR 48 [0 ffffffff 0 0] ------- [9:255 11:255 32 0] 2 [1 2] [0 2 0 0->0] [0 0 0 0->0]
r 29.688425495 _4_ RTR  --- 2 DSR 48 [0 ffffffff 0 0] ------- [9:255 11:255 32 0] 2 [1 2] [0 2 0 0->0] [0 0 0 0->0]
r 29.688425526 _10_ RTR  --- 2 DSR 48 [0 ffffffff 0 0] ------- [9:255 11:255 32 0] 2 [1 2] [0 2 0 0->0] [0 0 0 0->0]
r 29.688425560 _18_ RTR  --- 2 DSR 48 [0 ffffffff 0 0] ------- [9:255 11:255 32 0] 2 [1 2] [0 2 0 0->0] [0 0 0 0->0]
r 29.688425575 _43_ RTR  --- 2 DSR 48 [0 ffffffff 0 0] ------- [9:255 11:255 32 0] 2 [1 2] [0 2 0 0->0] [0 0 0 0->0]
r 29.688425588 _9_ RTR  --- 2 DSR 48 [0 ffffffff 0 0] ------- [9:255 11:255 32 0] 2 [1 2] [0 2 0 0->0] [0 0 0 0->0]
r 29.688425591 _37_ RTR  --- 2 DSR 48 [0 ffffffff 0 0] ------- [9:255 11:255 32 0] 2 [1 2] [0 2 0 0->0] [0 0 0 0->0]
r 29.688425675 _6_ RTR  --- 2 DSR 48 [0 ffffffff 0 0] ------- [9:255 11:255 32 0] 2 [1 2] [0 2 0 0->0] [0 0 0 0->0]
r 29.688425681 _14_ RTR  --- 2 DSR 48 [0 ffffffff 0 0] ------- [9:255 11:255 32 0] 2 [1 2] [0 2 0 0->0] [0 0 0 0->0]
r 29.688425715 _38_ RTR  --- 2 DSR 48 [0 ffffffff 0 0] ------- [9:255 11:255 32 0] 2 [1 2] [0 2 0 0->0] [0 0 0 0->0]
r 29.688425768 _21_ RTR  --- 2 DSR 48 [0 ffffffff 0 0] ------- [9:255 11:255 32 0] 2 [1 2] [0 2 0 0->0] [0 0 0 0->0]
r 29.688425792 _48_ RTR  --- 2 DSR 48 [0 ffffffff 0 0] ------- [9:255 11:255 32 0] 2 [1 2] [0 2 0 0->0] [0 0 0 0->0]
r 29.688425814 _36_ RTR  --- 2 DSR 48 [0 ffffffff 0 0] ------- [9:255 11:255 32 0] 2 [1 2] [0 2 0 0->0] [0 0 0 0->0]
r 29.688425820 _17_ RTR  --- 2 DSR 48 [0 ffffffff 0 0] ------- [9:255 11:255 32 0] 2 [1 2] [0 2 0 0->0] [0 0 0 0->0]
f 29.688530258 _18_ RTR  --- 2 DSR 68 [0 ffffffff 0 0] ------- [9:255 11:255 32 0] 3 [1 2] [0 2 0 0->0] [0 0 0 0->0]
f 29.688647166 _6_ RTR  --- 2 DSR 68 [0 ffffffff 0 0] ------- [9:255 11:255 32 0] 3 [1 2] [0 2 0 0->0] [0 0 0 0->0]
f 29.688732907 _48_ RTR  --- 2 DSR 68 [0 ffffffff 0 0] ------- [9:255 11:255 32 0] 3 [1 2] [0 2 0 0->0] [0 0 0 0->0]
f 29.688910656 _38_ RTR  --- 2 DSR 68 [0 ffffffff 0 0] ------- [9:255 11:255 32 0] 3 [1 2] [0 2 0 0->0] [0 0 0 0->0]
f 29.689206597 _4_ RTR  --- 2 DSR 68 [0 ffffffff 0 0] ------- [9:255 11:255 32 0] 3 [1 2] [0 2 0 0->0] [0 0 0 0->0]
f 29.690835981 _7_ RTR  --- 2 DSR 68 [0 ffffffff 0 0] ------- [9:255 11:255 32 0] 3 [1 2] [0 2 0 0->0] [0 0 0 0->0]
f 29.691202938 _23_ RTR  --- 2 DSR 68 [0 ffffffff 0 0] ------- [9:255 11:255 32 0] 3 [1 2] [0 2 0 0->0] [0 0 0 0->0]
r 29.694425136 _12_ RTR  --- 2 DSR 48 [0 ffffffff 1 0] ------- [9:255 11:255 32 0] 2 [1 2] [0 2 0 0->0] [0 0 0 0->0]
r 29.694425161 _45_ RTR  --- 2 DSR 48 [0 ffffffff 1 0] ------- [9:255 11:255 32 0] 2 [1 2] [0 2 0 0->0] [0 0 0 0->0]
r 29.694425193 _40_ RTR  --- 2 DSR 48 [0 ffffffff 1 0] ------- [9:255 11:255 32 0] 2 [1 2] [0 2 0 0->0] [0 0 0 0->0]
r 29.694425316 _2_ RTR  --- 2 DSR 48 [0 ffffffff 1 0] ------- [9:255 11:255 32 0] 2 [1 2] [0 2 0 0->0] [0 0 0 0->0]
r 29.694425503 _43_ RTR  --- 2 DSR 48 [0 ffffffff 1 0] ------- [9:255 11:255 32 0] 2 [1 2] [0 2 0 0->0] [0 0 0 0->0]
r 29.694425542 _19_ RTR  --- 2 DSR 48 [0 ffffffff 1 0] ------- [9:255 11:255 32 0] 2 [1 2] [0 2 0 0->0] [0 0 0 0->0]
r 29.694425558 _9_ RTR  --- 2 DSR 48 [0 ffffffff 1 0] ------- [9:255 11:255 32 0] 2 [1 2] [0 2 0 0->0] [0 0 0 0->0]
r 29.694425617 _33_ RTR  --- 2 DSR 48 [0 ffffffff 1 0] ------- [9:255 11:255 32 0] 2 [1 2] [0 2 0 0->0] [0 0 0 0->0]
r 29.694425689 _26_ RTR  --- 2 DSR 48 [0 ffffffff 1 0] ------- [9:255 11:255 32 0] 2 [1 2] [0 2 0 0->0] [0 0 0 0->0]
r 29.694425705 _32_ RTR  --- 2 DSR 48 [0 ffffffff 1 0] ------- [9:255 11:255 32 0] 2 [1 2] [0 2 0 0->0] [0 0 0 0->0]
r 29.694425714 _21_ RTR  --- 2 DSR 48 [0 ffffffff 1 0] ------- [9:255 11:255 32 0] 2 [1 2] [0 2 0 0->0] [0 0 0 0->0]
r 29.694425724 _29_ RTR  --- 2 DSR 48 [0 ffffffff 1 0] ------- [9:255 11:255 32 0] 2 [1 2] [0 2 0 0->0] [0 0 0 0->0]
r 29.694425735 _16_ RTR  --- 2 DSR 48 [0 ffffffff 1 0] ------- [9:255 11:255 32 0] 2 [1 2] [0 2 0 0->0] [0 0 0 0->0]
f 29.696160770 _36_ RTR  --- 2 DSR 68 [0 ffffffff 0 0] ------- [9:255 11:255 32 0] 3 [1 2] [0 2 0 0->0] [0 0 0 0->0]
f 29.698307786 _37_ RTR  --- 2 DSR 68 [0 ffffffff 0 0] ------- [9:255 11:255 32 0] 3 [1 2] [0 2 0 0->0] [0 0 0 0->0]
f 29.699863260 _32_ RTR  --- 2 DSR 68 [0 ffffffff 1 0] ------- [9:255 11:255 32 0] 3 [1 2] [0 2 0 0->0] [0 0 0 0->0]
r 29.700425298 _45_ RTR  --- 2 DSR 48 [0 ffffffff 2 0] ------- [9:255 11:255 32 0] 2 [1 2] [0 2 0 0->0] [0 0 0 0->0]
r 29.700425316 _1_ RTR  --- 2 DSR 48 [0 ffffffff 2 0] ------- [9:255 11:255 32 0] 2 [1 2] [0 2 0 0->0] [0 0 0 0->0]
r 29.700425322 _33_ RTR  --- 2 DSR 48 [0 ffffffff 2 0] ------- [9:255 11:255 32 0] 2 [1 2] [0 2 0 0->0] [0 0 0 0->0]
r 29.700425384 _19_ RTR  --- 2 DSR 48 [0 ffffffff 2 0] ------- [9:255 11:255 32 0] 2 [1 2] [0 2 0 0->0] [0 0 0 0->0]
r 29.700425407 _26_ RTR  --- 2 DSR 48 [0 ffffffff 2 0] ------- [9:255 11:255 32 0] 2 [1 2] [0 2 0 0->0] [0 0 0 0->0]
r 29.700425438 _12_ RTR  --- 2 DSR 48 [0 ffffffff 2 0] ------- [9:255 11:255 32 0] 2 [1 2] [0 2 0 0->0] [0 0 0 0->0]
r 29.700425456 _40_ RTR  --- 2 DSR 48 [0 ffffffff 2 0] ------- [9:255 11:255 32 0] 2 [1 2] [0 2 0 0->0] [0 0 0 0->0]
r 29.700425607 _43_ RTR  --- 2 DSR 48 [0 ffffffff 2 0] ------- [9:255 11:255 32 0] 2 [1 2] [0 2 0 0->0] [0 0 0 0->0]
r 29.700425619 _9_ RTR  --- 2 DSR 48 [0 ffffffff 2 0] ------- [9:255 11:255 32 0] 2 [1 2] [0 2 0 0->0] [0 0 0 0->0]
r 29.700425788 _16_ RTR  --- 2 DSR 48 [0 ffffffff 2 0] ------- [9:255 11:255 32 0] 2 [1 2] [0 2 0 0->0] [0 0 0 0->0]
f 29.702677502 _19_ RTR  --- 2 DSR 68 [0 ffffffff 1 0] ------- [9:255 11:255 32 0] 3 [1 2] [0 2 0 0->0] [0 0 0 0->0]
r 29.748425158 _14_ RTR  --- 2 DSR 48 [0 ffffffff a 0] ------- [9:255 11:255 32 0] 2 [1 2] [0 2 0 0->0] [0 0 0 0->0]
r 29.748425192 _16_ RTR  --- 2 DSR 48 [0 ffffffff a 0] ------- [9:255 11:255 32 0] 2 [1 2] [0 2 0 0->0] [0 0 0 0->0]
r 29.748425210 _22_ RTR  --- 2 DSR 48 [0 ffffffff a 0] ------- [9:255 11:255 32 0] 2 [1 2] [0 2 0 0->0] [0 0 0 0->0]
r 29.748425252 _34_ RTR  --- 2 DSR 48 [0 ffffffff a 0] ------- [9:255 11:255 32 0] 2 [1 2] [0 2 0 0->0] [0 0 0 0->0]
r 29.748425308 _29_ RTR  --- 2 DSR 48 [0 ffffffff a 0] ------- [9:255 11:255 32 0] 2 [1 2] [0 2 0 0->0] [0 0 0 0->0]
r 29.748425358 _9_ RTR  --- 2 DSR 48 [0 ffffffff a 0] ------- [9:255 11:255 32 0] 2 [1 2] [0 2 0 0->0] [0 0 0 0->0]
r 29.748425395 _17_ RTR  --- 2 DSR 48 [0 ffffffff a 0] ------- [9:255 11:255 32 0] 2 [1 2] [0 2 0 0->0] [0 0 0 0->0]
r 29.748425429 _43_ RTR  --- 2 DSR 48 [0 ffffffff a 0] ------- [9:255 11:255 32 0] 2 [1 2] [0 2 0 0->0] [0 0 0 0->0]
r 29.748425526 _0_ RTR  --- 2 DSR 48 [0 ffffffff a 0] ------- [9:255 11:255 32 0] 2 [1 2] [0 2 0 0->0] [0 0 0 0->0]
r 29.748425645 _36_ RTR  --- 2 DSR 48 [0 ffffffff a 0] ------- [9:255 11:255 32 0] 2 [1 2] [0 2 0 0->0] [0 0 0 0->0]
r 29.748425653 _47_ RTR  --- 2 DSR 48 [0 ffffffff a 0] ------- [9:255 11:255 32 0] 2 [1 2] [0 2 0 0->0] [0 0 0 0->0]
r 29.748425705 _7_ RTR  --- 2 DSR 48 [0 ffffffff a 0] ------- [9:255 11:255 32 0] 2 [1 2] [0 2 0 0->0] [0 0 0 0->0]
r 29.748425708 _11_ RTR  --- 2 DSR 48 [0 ffffffff a 0] ------- [9:255 11:255 32 0] 2 [1 2] [0 2 0 0->0] [0 0 0 0->0]
r 29.748425727 _30_ RTR  --- 2 DSR 48 [0 ffffffff a 0] ------- [9:255 11:255 32 0] 2 [1 2] [0 2 0 0->0] [0 0 0 0->0]
r 29.748425792 _27_ RTR  --- 2 DSR 48 [0 ffffffff a 0] ------- [9:255 11:255 32 0] 2 [1 2] [0 2 0 0->0] [0 0 0 0->0]
r 29.748425817 _39_ RTR  --- 2 DSR 48 [0 ffffffff a 0] ------- [9:255 11:255 32 0] 2 [1 2] [0 2 0 0->0] [0 0 0 0->0]
f 29.756166835 _30_ RTR  --- 2 DSR 68 [0 ffffffff a 0] ------- [9:255 11:255 32 0] 3 [1 2] [0 2 0 0->0] [0 0 0 0->0]
s 29.756419627 _11_ RTR  --- 18 DSR 52 [0 0 0 0] ------- [11:255 9:255 254 10] 3 [0 2] [1 2 3 9->11] [0 0 0 0->0]
r 29.760425136 _1_ RTR  --- 2 DSR 48 [0 ffffffff c 0] ------- [9:255 11:255 32 0] 2 [1 2] [0 2 0 0->0] [0 0 0 0->0]
r 29.760425225 _40_ RTR  --- 2 DSR 48 [0 ffffffff c 0] ------- [9:255 11:255 32 0] 2 [1 2] [0 2 0 0->0] [0 0 0 0->0]
r 29.760425281 _45_ RTR  --- 2 DSR 48 [0 ffffffff c 0] ------- [9:255 11:255 32 0] 2 [1 2] [0 2 0 0->0] [0 0 0 0->0]
r 29.760425438 _2_ RTR  --- 2 DSR 48 [0 ffffffff c 0] ------- [9:255 11:255 32 0] 2 [1 2] [0 2 0 0->0] [0 0 0 0->0]
r 29.760425443 _43_ RTR  --- 2 DSR 48 [0 ffffffff c 0] ------- [9:255 11:255 32 0] 2 [1 2] [0 2 0 0->0] [0 0 0 0->0]
r 29.760425514 _9_ RTR  --- 2 DSR 48 [0 ffffffff c 0] ------- [9:255 11:255 32 0] 2 [1 2] [0 2 0 0->0] [0 0 0 0->0]
r 29.760425582 _21_ RTR  --- 2 DSR 48 [0 ffffffff c 0] ------- [9:255 11:255 32 0] 2 [1 2] [0 2 0 0->0] [0 0 0 0->0]
r 29.760425629 _32_ RTR  --- 2 DSR 48 [0 ffffffff c 0] ------- [9:255 11:255 32 0] 2 [1 2] [0 2 0 0->0] [0 0 0 0->0]
r 29.760425645 _29_ RTR  --- 2 DSR 48 [0 ffffffff c 0] ------- [9:255 11:255 32 0] 2 [1 2] [0 2 0 0->0] [0 0 0 0->0]
r 29.760425674 _19_ RTR  --- 2 DSR 48 [0 ffffffff c 0] ------- [9:255 11:255 32 0] 2 [1 2] [0 2 0 0->0] [0 0 0 0->0]
r 29.760425682 _16_ RTR  --- 2 DSR 48 [0 ffffffff c 0] ------- [9:255 11:255 32 0] 2 [1 2] [0 2 0 0->0] [0 0 0 0->0]
r 29.760425720 _33_ RTR  --- 2 DSR 48 [0 ffffffff c 0] ------- [9:255 11:255 32 0] 2 [1 2] [0 2 0 0->0] [0 0 0 0->0]
r 29.760425776 _39_ RTR  --- 2 DSR 48 [0 ffffffff c 0] ------- [9:255 11:255 32 0] 2 [1 2] [0 2 0 0->0] [0 0 0 0->0]
r 29.760425783 _26_ RTR  --- 2 DSR 48 [0 ffffffff c 0] ------- [9:255 11:255 32 0] 2 [1 2] [0 2 0 0->0] [0 0 0 0->0]
r 29.760425810 _46_ RTR  --- 2 DSR 48 [0 ffffffff c 0] ------- [9:255 11:255 32 0] 2 [1 2] [0 2 0 0->0] [0 0 0 0->0]
r 29.772425158 _10_ RTR  --- 2 DSR 48 [0 ffffffff e 0] ------- [9:255 11:255 32 0] 2 [1 2] [0 2 0 0->0] [0 0 0 0->0]
r 29.772425270 _16_ RTR  --- 2 DSR 48 [0 ffffffff e 0] ------- [9:255 11:255 32 0] 2 [1 2] [0 2 0 0->0] [0 0 0 0->0]
r 29.772425366 _17_ RTR  --- 2 DSR 48 [0 ffffffff e 0] ------- [9:255 11:255 32 0] 2 [1 2] [0 2 0 0->0] [0 0 0 0->0]
r 29.772425366 _22_ RTR  --- 2 DSR 48 [0 ffffffff e 0] ------- [9:255 11:255 32 0] 2 [1 2] [0 2 0 0->0] [0 0 0 0->0]
r 29.772425380 _9_ RTR  --- 2 DSR 48 [0 ffffffff e 0] ------- [9:255 11:255 32 0] 2 [1 2] [0 2 0 0->0] [0 0 0 0->0]
r 29.772425387 _34_ RTR  --- 2 DSR 48 [0 ffffffff e 0] ------- [9:255 11:255 32 0] 2 [1 2] [0 2 0 0->0] [0 0 0 0->0]
r 29.772425420 _29_ RTR  --- 2 DSR 48 [0 ffffffff e 0] ------- [9:255 11:255 32 0] 2 [1 2] [0 2 0 0->0] [0 0 0 0->0]
r 29.772425466 _43_ RTR  --- 2 DSR 48 [0 ffffffff e 0] ------- [9:255 11:255 32 0] 2 [1 2] [0 2 0 0->0] [0 0 0 0->0]
r 29.772425624 _11_ RTR  --- 2 DSR 48 [0 ffffffff e 0] ------- [9:255 11:255 32 0] 2 [1 2] [0 2 0 0->0] [0 0 0 0->0]
r 29.772425681 _0_ RTR  --- 2 DSR 48 [0 ffffffff e 0] ------- [9:255 11:255 32 0] 2 [1 2] [0 2 0 0->0] [0 0 0 0->0]
r 29.772425705 _36_ RTR  --- 2 DSR 48 [0 ffffffff e 0] ------- [9:255 11:255 32 0] 2 [1 2] [0 2 0 0->0] [0 0 0 0->0]
r 29.772425706 _30_ RTR  --- 2 DSR 48 [0 ffffffff e 0] ------- [9:255 11:255 32 0] 2 [1 2] [0 2 0 0->0] [0 0 0 0->0]
r 29.772425733 _26_ RTR  --- 2 DSR 48 [0 ffffffff e 0] ------- [9:255 11:255 32 0] 2 [1 2] [0 2 0 0->0] [0 0 0 0->0]
r 29.772425780 _33_ RTR  --- 2 DSR 48 [0 ffffffff e 0] ------- [9:255 11:255 32 0] 2 [1 2] [0 2 0 0->0] [0 0 0 0->0]
r 29.772425802 _47_ RTR  --- 2 DSR 48 [0 ffffffff e 0] ------- [9:255 11:255 32 0] 2 [1 2] [0 2 0 0->0] [0 0 0 0->0]
s 29.782282414 _11_ RTR  --- 20 DSR 52 [0 0 0 0] ------- [11:255 9:255 254 14] 3 [0 2] [1 2 3 9->11] [0 0 0 0->0]
r 29.784425157 _29_ RTR  --- 2 DSR 48 [0 ffffffff 10 0] ------- [9:255 11:255 32 0] 2 [1 2] [0 2 0 0->0] [0 0 0 0->0]
r 29.784425179 _9_ RTR  --- 2 DSR 48 [0 ffffffff 10 0] ------- [9:255 11:255 32 0] 2 [1 2] [0 2 0 0->0] [0 0 0 0->0]
r 29.784425192 _10_ RTR  --- 2 DSR 48 [0 ffffffff 10 0] ------- [9:255 11:255 32 0] 2 [1 2] [0 2 0 0->0] [0 0 0 0->0]
r 29.784425224 _22_ RTR  --- 2 DSR 48 [0 ffffffff 10 0] ------- [9:255 11:255 32 0] 2 [1 2] [0 2 0 0->0] [0 0 0 0->0]
r 29.784425239 _43_ RTR  --- 2 DSR 48 [0 ffffffff 10 0] ------- [9:255 11:255 32 0] 2 [1 2] [0 2 0 0->0] [0 0 0 0->0]
r 29.784425270 _14_ RTR  --- 2 DSR 48 [0 ffffffff 10 0] ------- [9:255 11:255 32 0] 2 [1 2] [0 2 0 0->0] [0 0 0 0->0]
r 29.784425386 _34_ RTR  --- 2 DSR 48 [0 ffffffff 10 0] ------- [9:255 11:255 32 0] 2 [1 2] [0 2 0 0->0] [0 0 0 0->0]
r 29.784425482 _0_ RTR  --- 2 DSR 48 [0 ffffffff 10 0] ------- [9:255 11:255 32 0] 2 [1 2] [0 2 0 0->0] [0 0 0 0->0]
r 29.784425577 _47_ RTR  --- 2 DSR 48 [0 ffffffff 10 0] ------- [9:255 11:255 32 0] 2 [1 2] [0 2 0 0->0] [0 0 0 0->0]
r 29.784425584 _17_ RTR  --- 2 DSR 48 [0 ffffffff 10 0] ------- [9:255 11:255 32 0] 2 [1 2] [0 2 0 0->0] [0 0 0 0->0]
r 29.784425682 _12_ RTR  --- 2 DSR 48 [0 ffffffff 10 0] ------- [9:255 11:255 32 0] 2 [1 2] [0 2 0 0->0] [0 0 0 0->0]
r 29.784425692 _39_ RTR  --- 2 DSR 48 [0 ffffffff 10 0] ------- [9:255 11:255 32 0] 2 [1 2] [0 2 0 0->0] [0 0 0 0->0]
r 29.784425718 _46_ RTR  --- 2 DSR 48 [0 ffffffff 10 0] ------- [9:255 11:255 32 0] 2 [1 2] [0 2 0 0->0] [0 0 0 0->0]
r 29.784425734 _27_ RTR  --- 2 DSR 48 [0 ffffffff 10 0] ------- [9:255 11:255 32 0] 2 [1 2] [0 2 0 0->0] [0 0 0 0->0]
r 29.784425735 _1_ RTR  --- 2 DSR 48 [0 ffffffff 10 0] ------- [9:255 11:255 32 0] 2 [1 2] [0 2 0 0->0] [0 0 0 0->0]
r 29.784425765 _7_ RTR  --- 2 DSR 48 [0 ffffffff 10 0] ------- [9:255 11:255 32 0] 2 [1 2] [0 2 0 0->0] [0 0 0 0->0]
r 29.784425788 _2_ RTR  --- 2 DSR 48 [0 ffffffff 10 0] ------- [9:255 11:255 32 0] 2 [1 2] [0 2 0 0->0] [0 0 0 0->0]
r 29.784425792 _26_ RTR  --- 2 DSR 48 [0 ffffffff 10 0] ------- [9:255 11:255 32 0] 2 [1 2] [0 2 0 0->0] [0 0 0 0->0]
r 29.784425810 _33_ RTR  --- 2 DSR 48 [0 ffffffff 10 0] ------- [9:255 11:255 32 0] 2 [1 2] [0 2 0 0->0] [0 0 0 0->0]
r 29.784425822 _36_ RTR  --- 2 DSR 48 [0 ffffffff 10 0] ------- [9:255 11:255 32 0] 2 [1 2] [0 2 0 0->0] [0 0 0 0->0]
r 29.790425341 _30_ RTR  --- 2 DSR 48 [0 ffffffff 11 0] ------- [9:255 11:255 32 0] 2 [1 2] [0 2 0 0->0] [0 0 0 0->0]
r 29.790425346 _11_ RTR  --- 2 DSR 48 [0 ffffffff 11 0] ------- [9:255 11:255 32 0] 2 [1 2] [0 2 0 0->0] [0 0 0 0->0]
r 29.790425366 _14_ RTR  --- 2 DSR 48 [0 ffffffff 11 0] ------- [9:255 11:255 32 0] 2 [1 2] [0 2 0 0->0] [0 0 0 0->0]
r 29.790425395 _10_ RTR  --- 2 DSR 48 [0 ffffffff 11 0] ------- [9:255 11:255 32 0] 2 [1 2] [0 2 0 0->0] [0 0 0 0->0]
r 29.790425396 _34_ RTR  --- 2 DSR 48 [0 ffffffff 11 0] ------- [9:255 11:255 32 0] 2 [1 2] [0 2 0 0->0] [0 0 0 0->0]
r 29.790425413 _36_ RTR  --- 2 DSR 48 [0 ffffffff 11 0] ------- [9:255 11:255 32 0] 2 [1 2] [0 2 0 0->0] [0 0 0 0->0]
r 29.790425541 _22_ RTR  --- 2 DSR 48 [0 ffffffff 11 0] ------- [9:255 11:255 32 0] 2 [1 2] [0 2 0 0->0] [0 0 0 0->0]
r 29.790425584 _16_ RTR  --- 2 DSR 48 [0 ffffffff 11 0] ------- [9:255 11:255 32 0] 2 [1 2] [0 2 0 0->0] [0 0 0 0->0]
r 29.790425698 _29_ RTR  --- 2 DSR 48 [0 ffffffff 11 0] ------- [9:255 11:255 32 0] 2 [1 2] [0 2 0 0->0] [0 0 0 0->0]
r 29.790425732 _9_ RTR  --- 2 DSR 48 [0 ffffffff 11 0] ------- [9:255 11:255 32 0] 2 [1 2] [0 2 0 0->0] [0 0 0 0->0]
r 29.790425812 _43_ RTR  --- 2 DSR 48 [0 ffffffff 11 0] ------- [9:255 11:255 32 0] 2 [1 2] [0 2 0 0->0] [0 0 0 0->0]
r 29.790425814 _7_ RTR  --- 2 DSR 48 [0 ffffffff 11 0] ------- [9:255 11:255 32 0] 2 [1 2] [0 2 0 0->0] [0 0 0 0->0]
r 29.790425820 _0_ RTR  --- 2 DSR 48 [0 ffffffff 11 0] ------- [9:255 11:255 32 0] 2 [1 2] [0 2 0 0->0] [0 0 0 0->0]
s 29.793792982 _11_ RTR  --- 21 DSR 52 [0 0 0 0] ------- [11:255 9:255 254 17] 3 [0 2] [1 2 3 9->11] [0 0 0 0->0]
r 29.814425370 _48_ RTR  --- 2 DSR 48 [0 ffffffff 15 0] ------- [9:255 11:255 32 0] 2 [1 2] [0 2 0 0->0] [0 0 0 0->0]
r 29.814425418 _39_ RTR  --- 2 DSR 48 [0 ffffffff 15 0] ------- [9:255 11:255 32 0] 2 [1 2] [0 2 0 0->0] [0 0 0 0->0]
r 29.814425436 _42_ RTR  --- 2 DSR 48 [0 ffffffff 15 0] ------- [9:255 11:255 32 0] 2 [1 2] [0 2 0 0->0] [0 0 0 0->0]
r 29.814425436 _46_ RTR  --- 2 DSR 48 [0 ffffffff 15 0] ------- [9:255 11:255 32 0] 2 [1 2] [0 2 0 0->0] [0 0 0 0->0]
r 29.814425462 _32_ RTR  --- 2 DSR 48 [0 ffffffff 15 0] ------- [9:255 11:255 32 0] 2 [1 2] [0 2 0 0->0] [0 0 0 0->0]
r 29.814425534 _41_ RTR  --- 2 DSR 48 [0 ffffffff 15 0] ------- [9:255 11:255 32 0] 2 [1 2] [0 2 0 0->0] [0 0 0 0->0]
r 29.814425542 _44_ RTR  --- 2 DSR 48 [0 ffffffff 15 0] ------- [9:255 11:255 32 0] 2 [1 2] [0 2 0 0->0] [0 0 0 0->0]
r 29.814425582 _12_ RTR  --- 2 DSR 48 [0 ffffffff 15 0] ------- [9:255 11:255 32 0] 2 [1 2] [0 2 0 0->0] [0 0 0 0->0]
r 29.814425634 _18_ RTR  --- 2 DSR 48 [0 ffffffff 15 0] ------- [9:255 11:255 32 0] 2 [1 2] [0 2 0 0->0] [0 0 0 0->0]
r 29.814425655 _47_ RTR  --- 2 DSR 48 [0 ffffffff 15 0] ------- [9:255 11:255 32 0] 2 [1 2] [0 2 0 0->0] [0 0 0 0->0]
r 29.814425673 _25_ RTR  --- 2 DSR 48 [0 ffffffff 15 0] ------- [9:255 11:255 32 0] 2 [1 2] [0 2 0 0->0] [0 0 0 0->0]
r 29.814425678 _40_ RTR  --- 2 DSR 48 [0 ffffffff 15 0] ------- [9:255 11:255 32 0] 2 [1 2] [0 2 0 0->0] [0 0 0 0->0]
r 29.814425683 _13_ RTR  --- 2 DSR 48 [0 ffffffff 15 0] ------- [9:255 11:255 32 0] 2 [1 2] [0 2 0 0->0] [0 0 0 0->0]
r 29.814425714 _1_ RTR  --- 2 DSR 48 [0 ffffffff 15 0] ------- [9:255 11:255 32 0] 2 [1 2] [0 2 0 0->0] [0 0 0 0->0]
r 29.814425716 _43_ RTR  --- 2 DSR 48 [0 ffffffff 15 0] ------- [9:255 11:255 32 0] 2 [1 2] [0 2 0 0->0] [0 0 0 0->0]
r 29.814425723 _27_ RTR  --- 2 DSR 48 [0 ffffffff 15 0] ------- [9:255 11:255 32 0] 2 [1 2] [0 2 0 0->0] [0 0 0 0->0]
r 29.814425749 _29_ RTR  --- 2 DSR 48 [0 ffffffff 15 0] ------- [9:255 11:255 32 0] 2 [1 2] [0 2 0 0->0] [0 0 0 0->0]
r 29.814425766 _5_ RTR  --- 2 DSR 48 [0 ffffffff 15 0] ------- [9:255 11:255 32 0] 2 [1 2] [0 2 0 0->0] [0 0 0 0->0]
r 29.814425768 _0_ RTR  --- 2 DSR 48 [0 ffffffff 15 0] ------- [9:255 11:255 32 0] 2 [1 2] [0 2 0 0->0] [0 0 0 0->0]
r 29.814425773 _3_ RTR  --- 2 DSR 48 [0 ffffffff 15 0] ------- [9:255 11:255 32 0] 2 [1 2] [0 2 0 0->0] [0 0 0 0->0]
r 29.814425798 _20_ RTR  --- 2 DSR 48 [0 ffffffff 15 0] ------- [9:255 11:255 32 0] 2 [1 2] [0 2 0 0->0] [0 0 0 0->0]
r 29.814425802 _9_ RTR  --- 2 DSR 48 [0 ffffffff 15 0] ------- [9:255 11:255 32 0] 2 [1 2] [0 2 0 0->0] [0 0 0 0->0]
r 29.814425824 _45_ RTR  --- 2 DSR 48 [0 ffffffff 15 0] ------- [9:255 11:255 32 0] 2 [1 2] [0 2 0 0->0] [0 0 0 0->0]
f 29.816290152 _3_ RTR  --- 2 DSR 68 [0 ffffffff 15 0] ------- [9:255 11:255 32 0] 3 [1 2] [0 2 0 0->0] [0 0 0 0->0]
f 29.817593678 _42_ RTR  --- 2 DSR 68 [0 ffffffff 15 0] ------- [9:255 11:255 32 0] 3 [1 2] [0 2 0 0->0] [0 0 0 0->0]
f 29.817903407 _13_ RTR  --- 2 DSR 68 [0 ffffffff 15 0] ------- [9:255 11:255 32 0] 3 [1 2] [0 2 0 0->0] [0 0 0 0->0]
f 29.818075543 _44_ RTR  --- 2 DSR 68 [0 ffffffff 15 0] ------- [9:255 11:255 32 0] 3 [1 2] [0 2 0 0->0] [0 0 0 0->0]
f 29.818780541 _25_ RTR  --- 2 DSR 68 [0 ffffffff 15 0] ------- [9:255 11:255 32 0] 3 [1 2] [0 2 0 0->0] [0 0 0 0->0]
r 29.820425208 _34_ RTR  --- 2 DSR 48 [0 ffffffff 16 0] ------- [9:255 11:255 32 0] 2 [1 2] [0 2 0 0->0] [0 0 0 0->0]
r 29.820425209 _29_ RTR  --- 2 DSR 48 [0 ffffffff 16 0] ------- [9:255 11:255 32 0] 2 [1 2] [0 2 0 0->0] [0 0 0 0->0]
r 29.820425210 _10_ RTR  --- 2 DSR 48 [0 ffffffff 16 0] ------- [9:255 11:255 32 0] 2 [1 2] [0 2 0 0->0] [0 0 0 0->0]
r 29.820425224 _16_ RTR  --- 2 DSR 48 [0 ffffffff 16 0] ------- [9:255 11:255 32 0] 2 [1 2] [0 2 0 0->0] [0 0 0 0->0]
r 29.820425316 _0_ RTR  --- 2 DSR 48 [0 ffffffff 16 0] ------- [9:255 11:255 32 0] 2 [1 2] [0 2 0 0->0] [0 0 0 0->0]
r 29.820425366 _14_ RTR  --- 2 DSR 48 [0 ffffffff 16 0] ------- [9:255 11:255 32 0] 2 [1 2] [0 2 0 0->0] [0 0 0 0->0]
r 29.820425390 _9_ RTR  --- 2 DSR 48 [0 ffffffff 16 0] ------- [9:255 11:255 32 0] 2 [1 2] [0 2 0 0->0] [0 0 0 0->0]
r 29.820425424 _43_ RTR  --- 2 DSR 48 [0 ffffffff 16 0] ------- [9:255 11:255 32 0] 2 [1 2] [0 2 0 0->0] [0 0 0 0->0]
r 29.820425446 _47_ RTR  --- 2 DSR 48 [0 ffffffff 16 0] ------- [9:255 11:255 32 0] 2 [1 2] [0 2 0 0->0] [0 0 0 0->0]
r 29.820425541 _17_ RTR  --- 2 DSR 48 [0 ffffffff 16 0] ------- [9:255 11:255 32 0] 2 [1 2] [0 2 0 0->0] [0 0 0 0->0]
r 29.820425542 _7_ RTR  --- 2 DSR 48 [0 ffffffff 16 0] ------- [9:255 11:255 32 0] 2 [1 2] [0 2 0 0->0] [0 0 0 0->0]
r 29.820425582 _27_ RTR  --- 2 DSR 48 [0 ffffffff 16 0] ------- [9:255 11:255 32 0] 2 [1 2] [0 2 0 0->0] [0 0 0 0->0]
r 29.820425630 _39_ RTR  --- 2 DSR 48 [0 ffffffff 16 0] ------- [9:255 11:255 32 0] 2 [1 2] [0 2 0 0->0] [0 0 0 0->0]
r 29.820425647 _46_ RTR  --- 2 DSR 48 [0 ffffffff 16 0] ------- [9:255 11:255 32 0] 2 [1 2] [0 2 0 0->0] [0 0 0 0->0]
r 29.820425665 _36_ RTR  --- 2 DSR 48 [0 ffffffff 16 0] ------- [9:255 11:255 32 0] 2 [1 2] [0 2 0 0->0] [0 0 0 0->0]
r 29.820425747 _23_ RTR  --- 2 DSR 48 [0 ffffffff 16 0] ------- [9:255 11:255 32 0] 2 [1 2] [0 2 0 0->0] [0 0 0 0->0]
r 29.820425784 _37_ RTR  --- 2 DSR 48 [0 ffffffff 16 0] ------- [9:255 11:255 32 0] 2 [1 2] [0 2 0 0->0] [0 0 0 0->0]
r 29.820425802 _4_ RTR  --- 2 DSR 48 [0 ffffffff 16 0] ------- [9:255 11:255 32 0] 2 [1 2] [0 2 0 0->0] [0 0 0 0->0]