+ 0 0 2 cbr 1000 ------- 0 0.0 5.0 0 0
- 0 0 2 cbr 1000 ------- 0 0.0 5.0 0 0
+ 0 1 2 cbr 1000 ------- 0 1.0 5.1 0 1
- 0 1 2 cbr 1000 ------- 0 1.0 5.1 0 1
+ 0.002667 1 2 cbr 1000 ------- 0 1.0 5.1 1 2
- 0.002667 1 2 cbr 1000 ------- 0 1.0 5.1 1 2
+ 0.004 0 2 cbr 1000 ------- 0 0.0 5.0 1 3
- 0.004 0 2 cbr 1000 ------- 0 0.0 5.0 1 3
+ 0.005333 1 2 cbr 1000 ------- 0 1.0 5.1 2 4
- 0.005333 1 2 cbr 1000 ------- 0 1.0 5.1 2 4
r 0.0058 0 2 cbr 1000 ------- 0 0.0 5.0 0 0
+ 0.0058 2 3 cbr 1000 ------- 0 0.0 5.0 0 0
- 0.0058 2 3 cbr 1000 ------- 0 0.0 5.0 0 0
r 0.0058 1 2 cbr 1000 ------- 0 1.0 5.1 0 1
+ 0.0058 2 3 cbr 1000 ------- 0 1.0 5.1 0 1
- 0.0066 2 3 cbr 1000 ------- 0 1.0 5.1 0 1
+ 0.008 0 2 cbr 1000 ------- 0 0.0 5.0 2 5
- 0.008 0 2 cbr 1000 ------- 0 0.0 5.0 2 5
+ 0.008 1 2 cbr 1000 ------- 0 1.0 5.1 3 6
- 0.008 1 2 cbr 1000 ------- 0 1.0 5.1 3 6
r 0.008467 1 2 cbr 1000 ------- 0 1.0 5.1 1 2
+ 0.008467 2 3 cbr 1000 ------- 0 1.0 5.1 1 2
- 0.008467 2 3 cbr 1000 ------- 0 1.0 5.1 1 2
r 0.0098 0 2 cbr 1000 ------- 0 0.0 5.0 1 3
+ 0.0098 2 3 cbr 1000 ------- 0 0.0 5.0 1 3
- 0.0098 2 3 cbr 1000 ------- 0 0.0 5.0 1 3
+ 0.010667 1 2 cbr 1000 ------- 0 1.0 5.1 4 7
- 0.010667 1 2 cbr 1000 ------- 0 1.0 5.1 4 7
r 0.011133 1 2 cbr 1000 ------- 0 1.0 5.1 2 4
+ 0.011133 2 3 cbr 1000 ------- 0 1.0 5.1 2 4
- 0.011133 2 3 cbr 1000 ------- 0 1.0 5.1 2 4
r 0.0116 2 3 cbr 1000 ------- 0 0.0 5.0 0 0
+ 0.0116 3 4 cbr 1000 ------- 0 0.0 5.0 0 0
- 0.0116 3 4 cbr 1000 ------- 0 0.0 5.0 0 0
+ 0.012 0 2 cbr 1000 ------- 0 0.0 5.0 3 8
- 0.012 0 2 cbr 1000 ------- 0 0.0 5.0 3 8
r 0.0124 2 3 cbr 1000 ------- 0 1.0 5.1 0 1
+ 0.0124 3 4 cbr 1000 ------- 0 1.0 5.1 0 1
- 0.0132 3 4 cbr 1000 ------- 0 1.0 5.1 0 1
+ 0.013333 1 2 cbr 1000 ------- 0 1.0 5.1 5 9
- 0.013333 1 2 cbr 1000 ------- 0 1.0 5.1 5 9
r 0.0138 0 2 cbr 1000 ------- 0 0.0 5.0 2 5
+ 0.0138 2 3 cbr 1000 ------- 0 0.0 5.0 2 5
- 0.0138 2 3 cbr 1000 ------- 0 0.0 5.0 2 5
r 0.0138 1 2 cbr 1000 ------- 0 1.0 5.1 3 6
+ 0.0138 2 3 cbr 1000 ------- 0 1.0 5.1 3 6
r 0.014267 2 3 cbr 1000 ------- 0 1.0 5.1 1 2
+ 0.014267 3 4 cbr 1000 ------- 0 1.0 5.1 1 2
- 0.0146 2 3 cbr 1000 ------- 0 1.0 5.1 3 6
- 0.0148 3 4 cbr 1000 ------- 0 1.0 5.1 1 2
r 0.0156 2 3 cbr 1000 ------- 0 0.0 5.0 1 3
+ 0.0156 3 4 cbr 1000 ------- 0 0.0 5.0 1 3
+ 0.016 0 2 cbr 1000 ------- 0 0.0 5.0 4 10
- 0.016 0 2 cbr 1000 ------- 0 0.0 5.0 4 10
+ 0.016 1 2 cbr 1000 ------- 0 1.0 5.1 6 11
- 0.016 1 2 cbr 1000 ------- 0 1.0 5.1 6 11
- 0.0164 3 4 cbr 1000 ------- 0 0.0 5.0 1 3
r 0.016467 1 2 cbr 1000 ------- 0 1.0 5.1 4 7
+ 0.016467 2 3 cbr 1000 ------- 0 1.0 5.1 4 7
- 0.016467 2 3 cbr 1000 ------- 0 1.0 5.1 4 7
r 0.016933 2 3 cbr 1000 ------- 0 1.0 5.1 2 4
+ 0.016933 3 4 cbr 1000 ------- 0 1.0 5.1 2 4
r 0.0178 0 2 cbr 1000 ------- 0 0.0 5.0 3 8
+ 0.0178 2 3 cbr 1000 ------- 0 0.0 5.0 3 8
- 0.0178 2 3 cbr 1000 ------- 0 0.0 5.0 3 8
- 0.018 3 4 cbr 1000 ------- 0 1.0 5.1 2 4
r 0.0182 3 4 cbr 1000 ------- 0 0.0 5.0 0 0
+ 0.0182 4 5 cbr 1000 ------- 0 0.0 5.0 0 0
- 0.0182 4 5 cbr 1000 ------- 0 0.0 5.0 0 0
+ 0.018667 1 2 cbr 1000 ------- 0 1.0 5.1 7 12
- 0.018667 1 2 cbr 1000 ------- 0 1.0 5.1 7 12
r 0.019133 1 2 cbr 1000 ------- 0 1.0 5.1 5 9
+ 0.019133 2 3 cbr 1000 ------- 0 1.0 5.1 5 9
- 0.019133 2 3 cbr 1000 ------- 0 1.0 5.1 5 9
r 0.0196 2 3 cbr 1000 ------- 0 0.0 5.0 2 5
+ 0.0196 3 4 cbr 1000 ------- 0 0.0 5.0 2 5
- 0.0196 3 4 cbr 1000 ------- 0 0.0 5.0 2 5
r 0.0198 3 4 cbr 1000 ------- 0 1.0 5.1 0 1
+ 0.0198 4 5 cbr 1000 ------- 0 1.0 5.1 0 1
- 0.0198 4 5 cbr 1000 ------- 0 1.0 5.1 0 1
+ 0.02 0 2 cbr 1000 ------- 0 0.0 5.0 5 13
- 0.02 0 2 cbr 1000 ------- 0 0.0 5.0 5 13
r 0.0204 2 3 cbr 1000 ------- 0 1.0 5.1 3 6
+ 0.0204 3 4 cbr 1000 ------- 0 1.0 5.1 3 6
- 0.0212 3 4 cbr 1000 ------- 0 1.0 5.1 3 6
+ 0.021333 1 2 cbr 1000 ------- 0 1.0 5.1 8 14
- 0.021333 1 2 cbr 1000 ------- 0 1.0 5.1 8 14
r 0.0214 3 4 cbr 1000 ------- 0 1.0 5.1 1 2
+ 0.0214 4 5 cbr 1000 ------- 0 1.0 5.1 1 2
- 0.0214 4 5 cbr 1000 ------- 0 1.0 5.1 1 2
r 0.0218 0 2 cbr 1000 ------- 0 0.0 5.0 4 10
+ 0.0218 2 3 cbr 1000 ------- 0 0.0 5.0 4 10
- 0.0218 2 3 cbr 1000 ------- 0 0.0 5.0 4 10
r 0.0218 1 2 cbr 1000 ------- 0 1.0 5.1 6 11
+ 0.0218 2 3 cbr 1000 ------- 0 1.0 5.1 6 11
r 0.022267 2 3 cbr 1000 ------- 0 1.0 5.1 4 7
+ 0.022267 3 4 cbr 1000 ------- 0 1.0 5.1 4 7
- 0.0226 2 3 cbr 1000 ------- 0 1.0 5.1 6 11
- 0.0228 3 4 cbr 1000 ------- 0 1.0 5.1 4 7
r 0.023 3 4 cbr 1000 ------- 0 0.0 5.0 1 3
+ 0.023 4 5 cbr 1000 ------- 0 0.0 5.0 1 3
- 0.023 4 5 cbr 1000 ------- 0 0.0 5.0 1 3
r 0.0236 2 3 cbr 1000 ------- 0 0.0 5.0 3 8
+ 0.0236 3 4 cbr 1000 ------- 0 0.0 5.0 3 8
r 0.024 4 5 cbr 1000 ------- 0 0.0 5.0 0 0
+ 0.024 0 2 cbr 1000 ------- 0 0.0 5.0 6 15
- 0.024 0 2 cbr 1000 ------- 0 0.0 5.0 6 15
+ 0.024 1 2 cbr 1000 ------- 0 1.0 5.1 9 16
- 0.024 1 2 cbr 1000 ------- 0 1.0 5.1 9 16
- 0.0244 3 4 cbr 1000 ------- 0 0.0 5.0 3 8
r 0.024467 1 2 cbr 1000 ------- 0 1.0 5.1 7 12
+ 0.024467 2 3 cbr 1000 ------- 0 1.0 5.1 7 12
- 0.024467 2 3 cbr 1000 ------- 0 1.0 5.1 7 12
r 0.0246 3 4 cbr 1000 ------- 0 1.0 5.1 2 4
+ 0.0246 4 5 cbr 1000 ------- 0 1.0 5.1 2 4
- 0.0246 4 5 cbr 1000 ------- 0 1.0 5.1 2 4
r 0.024933 2 3 cbr 1000 ------- 0 1.0 5.1 5 9
+ 0.024933 3 4 cbr 1000 ------- 0 1.0 5.1 5 9
r 0.0256 4 5 cbr 1000 ------- 0 1.0 5.1 0 1
r 0.0258 0 2 cbr 1000 ------- 0 0.0 5.0 5 13
+ 0.0258 2 3 cbr 1000 ------- 0 0.0 5.0 5 13
- 0.0258 2 3 cbr 1000 ------- 0 0.0 5.0 5 13
- 0.026 3 4 cbr 1000 ------- 0 1.0 5.1 5 9
r 0.0262 3 4 cbr 1000 ------- 0 0.0 5.0 2 5
+ 0.0262 4 5 cbr 1000 ------- 0 0.0 5.0 2 5
- 0.0262 4 5 cbr 1000 ------- 0 0.0 5.0 2 5
+ 0.026667 1 2 cbr 1000 ------- 0 1.0 5.1 10 17
- 0.026667 1 2 cbr 1000 ------- 0 1.0 5.1 10 17
r 0.027133 1 2 cbr 1000 ------- 0 1.0 5.1 8 14
+ 0.027133 2 3 cbr 1000 ------- 0 1.0 5.1 8 14
- 0.027133 2 3 cbr 1000 ------- 0 1.0 5.1 8 14
r 0.0272 4 5 cbr 1000 ------- 0 1.0 5.1 1 2
r 0.0276 2 3 cbr 1000 ------- 0 0.0 5.0 4 10
+ 0.0276 3 4 cbr 1000 ------- 0 0.0 5.0 4 10
- 0.0276 3 4 cbr 1000 ------- 0 0.0 5.0 4 10
r 0.0278 3 4 cbr 1000 ------- 0 1.0 5.1 3 6
+ 0.0278 4 5 cbr 1000 ------- 0 1.0 5.1 3 6
- 0.0278 4 5 cbr 1000 ------- 0 1.0 5.1 3 6
+ 0.028 0 2 cbr 1000 ------- 0 0.0 5.0 7 18
- 0.028 0 2 cbr 1000 ------- 0 0.0 5.0 7 18
r 0.0284 2 3 cbr 1000 ------- 0 1.0 5.1 6 11
+ 0.0284 3 4 cbr 1000 ------- 0 1.0 5.1 6 11
r 0.0288 4 5 cbr 1000 ------- 0 0.0 5.0 1 3
- 0.0292 3 4 cbr 1000 ------- 0 1.0 5.1 6 11
+ 0.029333 1 2 cbr 1000 ------- 0 1.0 5.1 11 19
- 0.029333 1 2 cbr 1000 ------- 0 1.0 5.1 11 19
r 0.0294 3 4 cbr 1000 ------- 0 1.0 5.1 4 7
+ 0.0294 4 5 cbr 1000 ------- 0 1.0 5.1 4 7
- 0.0294 4 5 cbr 1000 ------- 0 1.0 5.1 4 7
r 0.0298 0 2 cbr 1000 ------- 0 0.0 5.0 6 15
+ 0.0298 2 3 cbr 1000 ------- 0 0.0 5.0 6 15
- 0.0298 2 3 cbr 1000 ------- 0 0.0 5.0 6 15
r 0.0298 1 2 cbr 1000 ------- 0 1.0 5.1 9 16
+ 0.0298 2 3 cbr 1000 ------- 0 1.0 5.1 9 16
r 0.030267 2 3 cbr 1000 ------- 0 1.0 5.1 7 12
+ 0.030267 3 4 cbr 1000 ------- 0 1.0 5.1 7 12
r 0.0304 4 5 cbr 1000 ------- 0 1.0 5.1 2 4
- 0.0306 2 3 cbr 1000 ------- 0 1.0 5.1 9 16
- 0.0308 3 4 cbr 1000 ------- 0 1.0 5.1 7 12
r 0.031 3 4 cbr 1000 ------- 0 0.0 5.0 3 8
+ 0.031 4 5 cbr 1000 ------- 0 0.0 5.0 3 8
- 0.031 4 5 cbr 1000 ------- 0 0.0 5.0 3 8
r 0.0316 2 3 cbr 1000 ------- 0 0.0 5.0 5 13
+ 0.0316 3 4 cbr 1000 ------- 0 0.0 5.0 5 13
r 0.032 4 5 cbr 1000 ------- 0 0.0 5.0 2 5
+ 0.032 0 2 cbr 1000 ------- 0 0.0 5.0 8 20
- 0.032 0 2 cbr 1000 ------- 0 0.0 5.0 8 20
+ 0.032 1 2 cbr 1000 ------- 0 1.0 5.1 12 21
- 0.032 1 2 cbr 1000 ------- 0 1.0 5.1 12 21
- 0.0324 3 4 cbr 1000 ------- 0 0.0 5.0 5 13
r 0.032467 1 2 cbr 1000 ------- 0 1.0 5.1 10 17
+ 0.032467 2 3 cbr 1000 ------- 0 1.0 5.1 10 17
- 0.032467 2 3 cbr 1000 ------- 0 1.0 5.1 10 17
r 0.0326 3 4 cbr 1000 ------- 0 1.0 5.1 5 9
+ 0.0326 4 5 cbr 1000 ------- 0 1.0 5.1 5 9
- 0.0326 4 5 cbr 1000 ------- 0 1.0 5.1 5 9
r 0.032933 2 3 cbr 1000 ------- 0 1.0 5.1 8 14
+ 0.032933 3 4 cbr 1000 ------- 0 1.0 5.1 8 14
r 0.0336 4 5 cbr 1000 ------- 0 1.0 5.1 3 6
r 0.0338 0 2 cbr 1000 ------- 0 0.0 5.0 7 18
+ 0.0338 2 3 cbr 1000 ------- 0 0.0 5.0 7 18
- 0.0338 2 3 cbr 1000 ------- 0 0.0 5.0 7 18
- 0.034 3 4 cbr 1000 ------- 0 1.0 5.1 8 14
r 0.0342 3 4 cbr 1000 ------- 0 0.0 5.0 4 10
+ 0.0342 4 5 cbr 1000 ------- 0 0.0 5.0 4 10
- 0.0342 4 5 cbr 1000 ------- 0 0.0 5.0 4 10
+ 0.034667 1 2 cbr 1000 ------- 0 1.0 5.1 13 22
- 0.034667 1 2 cbr 1000 ------- 0 1.0 5.1 13 22
r 0.035133 1 2 cbr 1000 ------- 0 1.0 5.1 11 19
+ 0.035133 2 3 cbr 1000 ------- 0 1.0 5.1 11 19
- 0.035133 2 3 cbr 1000 ------- 0 1.0 5.1 11 19
r 0.0352 4 5 cbr 1000 ------- 0 1.0 5.1 4 7
r 0.0356 2 3 cbr 1000 ------- 0 0.0 5.0 6 15
+ 0.0356 3 4 cbr 1000 ------- 0 0.0 5.0 6 15
- 0.0356 3 4 cbr 1000 ------- 0 0.0 5.0 6 15
r 0.0358 3 4 cbr 1000 ------- 0 1.0 5.1 6 11
+ 0.0358 4 5 cbr 1000 ------- 0 1.0 5.1 6 11
- 0.0358 4 5 cbr 1000 ------- 0 1.0 5.1 6 11
+ 0.036 0 2 cbr 1000 ------- 0 0.0 5.0 9 23
- 0.036 0 2 cbr 1000 ------- 0 0.0 5.0 9 23
r 0.0364 2 3 cbr 1000 ------- 0 1.0 5.1 9 16
+ 0.0364 3 4 cbr 1000 ------- 0 1.0 5.1 9 16
r 0.0368 4 5 cbr 1000 ------- 0 0.0 5.0 3 8
- 0.0372 3 4 cbr 1000 ------- 0 1.0 5.1 9 16
+ 0.037333 1 2 cbr 1000 ------- 0 1.0 5.1 14 24
- 0.037333 1 2 cbr 1000 ------- 0 1.0 5.1 14 24
r 0.0374 3 4 cbr 1000 ------- 0 1.0 5.1 7 12
+ 0.0374 4 5 cbr 1000 ------- 0 1.0 5.1 7 12
- 0.0374 4 5 cbr 1000 ------- 0 1.0 5.1 7 12
r 0.0378 0 2 cbr 1000 ------- 0 0.0 5.0 8 20
+ 0.0378 2 3 cbr 1000 ------- 0 0.0 5.0 8 20
- 0.0378 2 3 cbr 1000 ------- 0 0.0 5.0 8 20
r 0.0378 1 2 cbr 1000 ------- 0 1.0 5.1 12 21
+ 0.0378 2 3 cbr 1000 ------- 0 1.0 5.1 12 21
r 0.038267 2 3 cbr 1000 ------- 0 1.0 5.1 10 17
+ 0.038267 3 4 cbr 1000 ------- 0 1.0 5.1 10 17
r 0.0384 4 5 cbr 1000 ------- 0 1.0 5.1 5 9
- 0.0386 2 3 cbr 1000 ------- 0 1.0 5.1 12 21
- 0.0388 3 4 cbr 1000 ------- 0 1.0 5.1 10 17
r 0.039 3 4 cbr 1000 ------- 0 0.0 5.0 5 13
+ 0.039 4 5 cbr 1000 ------- 0 0.0 5.0 5 13
- 0.039 4 5 cbr 1000 ------- 0 0.0 5.0 5 13
r 0.0396 2 3 cbr 1000 ------- 0 0.0 5.0 7 18
+ 0.0396 3 4 cbr 1000 ------- 0 0.0 5.0 7 18
+ 0.04 1 2 cbr 1000 ------- 0 1.0 5.1 15 25
- 0.04 1 2 cbr 1000 ------- 0 1.0 5.1 15 25
r 0.04 4 5 cbr 1000 ------- 0 0.0 5.0 4 10
+ 0.04 0 2 cbr 1000 ------- 0 0.0 5.0 10 26
- 0.04 0 2 cbr 1000 ------- 0 0.0 5.0 10 26
- 0.0404 3 4 cbr 1000 ------- 0 0.0 5.0 7 18
r 0.040467 1 2 cbr 1000 ------- 0 1.0 5.1 13 22
+ 0.040467 2 3 cbr 1000 ------- 0 1.0 5.1 13 22
- 0.040467 2 3 cbr 1000 ------- 0 1.0 5.1 13 22
r 0.0406 3 4 cbr 1000 ------- 0 1.0 5.1 8 14
+ 0.0406 4 5 cbr 1000 ------- 0 1.0 5.1 8 14
- 0.0406 4 5 cbr 1000 ------- 0 1.0 5.1 8 14
r 0.040933 2 3 cbr 1000 ------- 0 1.0 5.1 11 19
+ 0.040933 3 4 cbr 1000 ------- 0 1.0 5.1 11 19
r 0.0416 4 5 cbr 1000 ------- 0 1.0 5.1 6 11
r 0.0418 0 2 cbr 1000 ------- 0 0.0 5.0 9 23
+ 0.0418 2 3 cbr 1000 ------- 0 0.0 5.0 9 23
- 0.0418 2 3 cbr 1000 ------- 0 0.0 5.0 9 23
- 0.042 3 4 cbr 1000 ------- 0 1.0 5.1 11 19
r 0.0422 3 4 cbr 1000 ------- 0 0.0 5.0 6 15
+ 0.0422 4 5 cbr 1000 ------- 0 0.0 5.0 6 15
- 0.0422 4 5 cbr 1000 ------- 0 0.0 5.0 6 15
+ 0.042667 1 2 cbr 1000 ------- 0 1.0 5.1 16 27
- 0.042667 1 2 cbr 1000 ------- 0 1.0 5.1 16 27
r 0.043133 1 2 cbr 1000 ------- 0 1.0 5.1 14 24
+ 0.043133 2 3 cbr 1000 ------- 0 1.0 5.1 14 24
- 0.043133 2 3 cbr 1000 ------- 0 1.0 5.1 14 24
r 0.0432 4 5 cbr 1000 ------- 0 1.0 5.1 7 12
r 0.0436 2 3 cbr 1000 ------- 0 0.0 5.0 8 20
+ 0.0436 3 4 cbr 1000 ------- 0 0.0 5.0 8 20
- 0.0436 3 4 cbr 1000 ------- 0 0.0 5.0 8 20
r 0.0438 3 4 cbr 1000 ------- 0 1.0 5.1 9 16
+ 0.0438 4 5 cbr 1000 ------- 0 1.0 5.1 9 16
- 0.0438 4 5 cbr 1000 ------- 0 1.0 5.1 9 16
+ 0.044 0 2 cbr 1000 ------- 0 0.0 5.0 11 28
- 0.044 0 2 cbr 1000 ------- 0 0.0 5.0 11 28
r 0.0444 2 3 cbr 1000 ------- 0 1.0 5.1 12 21
+ 0.0444 3 4 cbr 1000 ------- 0 1.0 5.1 12 21
r 0.0448 4 5 cbr 1000 ------- 0 0.0 5.0 5 13
- 0.0452 3 4 cbr 1000 ------- 0 1.0 5.1 12 21
+ 0.045333 1 2 cbr 1000 ------- 0 1.0 5.1 17 29
- 0.045333 1 2 cbr 1000 ------- 0 1.0 5.1 17 29
r 0.0454 3 4 cbr 1000 ------- 0 1.0 5.1 10 17
+ 0.0454 4 5 cbr 1000 ------- 0 1.0 5.1 10 17
- 0.0454 4 5 cbr 1000 ------- 0 1.0 5.1 10 17
r 0.0458 1 2 cbr 1000 ------- 0 1.0 5.1 15 25
+ 0.0458 2 3 cbr 1000 ------- 0 1.0 5.1 15 25
- 0.0458 2 3 cbr 1000 ------- 0 1.0 5.1 15 25
r 0.0458 0 2 cbr 1000 ------- 0 0.0 5.0 10 26
+ 0.0458 2 3 cbr 1000 ------- 0 0.0 5.0 10 26
r 0.046267 2 3 cbr 1000 ------- 0 1.0 5.1 13 22
+ 0.046267 3 4 cbr 1000 ------- 0 1.0 5.1 13 22
r 0.0464 4 5 cbr 1000 ------- 0 1.0 5.1 8 14
- 0.0466 2 3 cbr 1000 ------- 0 0.0 5.0 10 26
- 0.0468 3 4 cbr 1000 ------- 0 1.0 5.1 13 22
r 0.047 3 4 cbr 1000 ------- 0 0.0 5.0 7 18
+ 0.047 4 5 cbr 1000 ------- 0 0.0 5.0 7 18
- 0.047 4 5 cbr 1000 ------- 0 0.0 5.0 7 18
r 0.0476 2 3 cbr 1000 ------- 0 0.0 5.0 9 23
+ 0.0476 3 4 cbr 1000 ------- 0 0.0 5.0 9 23
+ 0.048 1 2 cbr 1000 ------- 0 1.0 5.1 18 30
- 0.048 1 2 cbr 1000 ------- 0 1.0 5.1 18 30
r 0.048 4 5 cbr 1000 ------- 0 0.0 5.0 6 15
+ 0.048 0 2 cbr 1000 ------- 0 0.0 5.0 12 31
- 0.048 0 2 cbr 1000 ------- 0 0.0 5.0 12 31
- 0.0484 3 4 cbr 1000 ------- 0 0.0 5.0 9 23
r 0.048467 1 2 cbr 1000 ------- 0 1.0 5.1 16 27
+ 0.048467 2 3 cbr 1000 ------- 0 1.0 5.1 16 27
- 0.048467 2 3 cbr 1000 ------- 0 1.0 5.1 16 27
r 0.0486 3 4 cbr 1000 ------- 0 1.0 5.1 11 19
+ 0.0486 4 5 cbr 1000 ------- 0 1.0 5.1 11 19
- 0.0486 4 5 cbr 1000 ------- 0 1.0 5.1 11 19
r 0.048933 2 3 cbr 1000 ------- 0 1.0 5.1 14 24
+ 0.048933 3 4 cbr 1000 ------- 0 1.0 5.1 14 24
r 0.0496 4 5 cbr 1000 ------- 0 1.0 5.1 9 16
r 0.0498 0 2 cbr 1000 ------- 0 0.0 5.0 11 28
+ 0.0498 2 3 cbr 1000 ------- 0 0.0 5.0 11 28
- 0.0498 2 3 cbr 1000 ------- 0 0.0 5.0 11 28
- 0.05 3 4 cbr 1000 ------- 0 1.0 5.1 14 24
r 0.0502 3 4 cbr 1000 ------- 0 0.0 5.0 8 20
+ 0.0502 4 5 cbr 1000 ------- 0 0.0 5.0 8 20
- 0.0502 4 5 cbr 1000 ------- 0 0.0 5.0 8 20
+ 0.050667 1 2 cbr 1000 ------- 0 1.0 5.1 19 32
- 0.050667 1 2 cbr 1000 ------- 0 1.0 5.1 19 32
r 0.051133 1 2 cbr 1000 ------- 0 1.0 5.1 17 29
+ 0.051133 2 3 cbr 1000 ------- 0 1.0 5.1 17 29
- 0.051133 2 3 cbr 1000 ------- 0 1.0 5.1 17 29
r 0.0512 4 5 cbr 1000 ------- 0 1.0 5.1 10 17
r 0.0516 2 3 cbr 1000 ------- 0 1.0 5.1 15 25
+ 0.0516 3 4 cbr 1000 ------- 0 1.0 5.1 15 25
- 0.0516 3 4 cbr 1000 ------- 0 1.0 5.1 15 25
r 0.0518 3 4 cbr 1000 ------- 0 1.0 5.1 12 21
+ 0.0518 4 5 cbr 1000 ------- 0 1.0 5.1 12 21
- 0.0518 4 5 cbr 1000 ------- 0 1.0 5.1 12 21
+ 0.052 0 2 cbr 1000 ------- 0 0.0 5.0 13 33
- 0.052 0 2 cbr 1000 ------- 0 0.0 5.0 13 33
r 0.0524 2 3 cbr 1000 ------- 0 0.0 5.0 10 26
+ 0.0524 3 4 cbr 1000 ------- 0 0.0 5.0 10 26
r 0.0528 4 5 cbr 1000 ------- 0 0.0 5.0 7 18
- 0.0532 3 4 cbr 1000 ------- 0 0.0 5.0 10 26
+ 0.053333 1 2 cbr 1000 ------- 0 1.0 5.1 20 34
- 0.053333 1 2 cbr 1000 ------- 0 1.0 5.1 20 34
r 0.0534 3 4 cbr 1000 ------- 0 1.0 5.1 13 22
+ 0.0534 4 5 cbr 1000 ------- 0 1.0 5.1 13 22
- 0.0534 4 5 cbr 1000 ------- 0 1.0 5.1 13 22
r 0.0538 1 2 cbr 1000 ------- 0 1.0 5.1 18 30
+ 0.0538 2 3 cbr 1000 ------- 0 1.0 5.1 18 30
- 0.0538 2 3 cbr 1000 ------- 0 1.0 5.1 18 30
r 0.0538 0 2 cbr 1000 ------- 0 0.0 5.0 12 31
+ 0.0538 2 3 cbr 1000 ------- 0 0.0 5.0 12 31
r 0.054267 2 3 cbr 1000 ------- 0 1.0 5.1 16 27
+ 0.054267 3 4 cbr 1000 ------- 0 1.0 5.1 16 27
r 0.0544 4 5 cbr 1000 ------- 0 1.0 5.1 11 19
- 0.0546 2 3 cbr 1000 ------- 0 0.0 5.0 12 31
- 0.0548 3 4 cbr 1000 ------- 0 1.0 5.1 16 27
r 0.055 3 4 cbr 1000 ------- 0 0.0 5.0 9 23
+ 0.055 4 5 cbr 1000 ------- 0 0.0 5.0 9 23
- 0.055 4 5 cbr 1000 ------- 0 0.0 5.0 9 23
r 0.0556 2 3 cbr 1000 ------- 0 0.0 5.0 11 28
+ 0.0556 3 4 cbr 1000 ------- 0 0.0 5.0 11 28
+ 0.056 1 2 cbr 1000 ------- 0 1.0 5.1 21 35
- 0.056 1 2 cbr 1000 ------- 0 1.0 5.1 21 35
r 0.056 4 5 cbr 1000 ------- 0 0.0 5.0 8 20
+ 0.056 0 2 cbr 1000 ------- 0 0.0 5.0 14 36
- 0.056 0 2 cbr 1000 ------- 0 0.0 5.0 14 36
- 0.0564 3 4 cbr 1000 ------- 0 0.0 5.0 11 28
r 0.056467 1 2 cbr 1000 ------- 0 1.0 5.1 19 32
+ 0.056467 2 3 cbr 1000 ------- 0 1.0 5.1 19 32
- 0.056467 2 3 cbr 1000 ------- 0 1.0 5.1 19 32
r 0.0566 3 4 cbr 1000 ------- 0 1.0 5.1 14 24
+ 0.0566 4 5 cbr 1000 ------- 0 1.0 5.1 14 24
- 0.0566 4 5 cbr 1000 ------- 0 1.0 5.1 14 24
r 0.056933 2 3 cbr 1000 ------- 0 1.0 5.1 17 29
+ 0.056933 3 4 cbr 1000 ------- 0 1.0 5.1 17 29
r 0.0576 4 5 cbr 1000 ------- 0 1.0 5.1 12 21
r 0.0578 0 2 cbr 1000 ------- 0 0.0 5.0 13 33
+ 0.0578 2 3 cbr 1000 ------- 0 0.0 5.0 13 33
- 0.0578 2 3 cbr 1000 ------- 0 0.0 5.0 13 33
- 0.058 3 4 cbr 1000 ------- 0 1.0 5.1 17 29
r 0.0582 3 4 cbr 1000 ------- 0 1.0 5.1 15 25
+ 0.0582 4 5 cbr 1000 ------- 0 1.0 5.1 15 25
- 0.0582 4 5 cbr 1000 ------- 0 1.0 5.1 15 25
+ 0.058667 1 2 cbr 1000 ------- 0 1.0 5.1 22 37
- 0.058667 1 2 cbr 1000 ------- 0 1.0 5.1 22 37
r 0.059133 1 2 cbr 1000 ------- 0 1.0 5.1 20 34
+ 0.059133 2 3 cbr 1000 ------- 0 1.0 5.1 20 34
- 0.059133 2 3 cbr 1000 ------- 0 1.0 5.1 20 34
r 0.0592 4 5 cbr 1000 ------- 0 1.0 5.1 13 22
r 0.0596 2 3 cbr 1000 ------- 0 1.0 5.1 18 30
+ 0.0596 3 4 cbr 1000 ------- 0 1.0 5.1 18 30
- 0.0596 3 4 cbr 1000 ------- 0 1.0 5.1 18 30
r 0.0598 3 4 cbr 1000 ------- 0 0.0 5.0 10 26
+ 0.0598 4 5 cbr 1000 ------- 0 0.0 5.0 10 26
- 0.0598 4 5 cbr 1000 ------- 0 0.0 5.0 10 26
+ 0.06 0 2 cbr 1000 ------- 0 0.0 5.0 15 38
- 0.06 0 2 cbr 1000 ------- 0 0.0 5.0 15 38
r 0.0604 2 3 cbr 1000 ------- 0 0.0 5.0 12 31
+ 0.0604 3 4 cbr 1000 ------- 0 0.0 5.0 12 31
r 0.0608 4 5 cbr 1000 ------- 0 0.0 5.0 9 23
- 0.0612 3 4 cbr 1000 ------- 0 0.0 5.0 12 31
+ 0.061333 1 2 cbr 1000 ------- 0 1.0 5.1 23 39
- 0.061333 1 2 cbr 1000 ------- 0 1.0 5.1 23 39
r 0.0614 3 4 cbr 1000 ------- 0 1.0 5.1 16 27
+ 0.0614 4 5 cbr 1000 ------- 0 1.0 5.1 16 27
- 0.0614 4 5 cbr 1000 ------- 0 1.0 5.1 16 27
r 0.0618 1 2 cbr 1000 ------- 0 1.0 5.1 21 35
+ 0.0618 2 3 cbr 1000 ------- 0 1.0 5.1 21 35
- 0.0618 2 3 cbr 1000 ------- 0 1.0 5.1 21 35
r 0.0618 0 2 cbr 1000 ------- 0 0.0 5.0 14 36
+ 0.0618 2 3 cbr 1000 ------- 0 0.0 5.0 14 36
r 0.062267 2 3 cbr 1000 ------- 0 1.0 5.1 19 32
+ 0.062267 3 4 cbr 1000 ------- 0 1.0 5.1 19 32
r 0.0624 4 5 cbr 1000 ------- 0 1.0 5.1 14 24
- 0.0626 2 3 cbr 1000 ------- 0 0.0 5.0 14 36
- 0.0628 3 4 cbr 1000 ------- 0 1.0 5.1 19 32
r 0.063 3 4 cbr 1000 ------- 0 0.0 5.0 11 28
+ 0.063 4 5 cbr 1000 ------- 0 0.0 5.0 11 28
- 0.063 4 5 cbr 1000 ------- 0 0.0 5.0 11 28
r 0.0636 2 3 cbr 1000 ------- 0 0.0 5.0 13 33
+ 0.0636 3 4 cbr 1000 ------- 0 0.0 5.0 13 33
+ 0.064 1 2 cbr 1000 ------- 0 1.0 5.1 24 40
- 0.064 1 2 cbr 1000 ------- 0 1.0 5.1 24 40
r 0.064 4 5 cbr 1000 ------- 0 1.0 5.1 15 25
+ 0.064 0 2 cbr 1000 ------- 0 0.0 5.0 16 41
- 0.064 0 2 cbr 1000 ------- 0 0.0 5.0 16 41
- 0.0644 3 4 cbr 1000 ------- 0 0.0 5.0 13 33
r 0.064467 1 2 cbr 1000 ------- 0 1.0 5.1 22 37
+ 0.064467 2 3 cbr 1000 ------- 0 1.0 5.1 22 37
- 0.064467 2 3 cbr 1000 ------- 0 1.0 5.1 22 37
r 0.0646 3 4 cbr 1000 ------- 0 1.0 5.1 17 29
+ 0.0646 4 5 cbr 1000 ------- 0 1.0 5.1 17 29
- 0.0646 4 5 cbr 1000 ------- 0 1.0 5.1 17 29
r 0.064933 2 3 cbr 1000 ------- 0 1.0 5.1 20 34
+ 0.064933 3 4 cbr 1000 ------- 0 1.0 5.1 20 34
r 0.0656 4 5 cbr 1000 ------- 0 0.0 5.0 10 26
r 0.0658 0 2 cbr 1000 ------- 0 0.0 5.0 15 38
+ 0.0658 2 3 cbr 1000 ------- 0 0.0 5.0 15 38
- 0.0658 2 3 cbr 1000 ------- 0 0.0 5.0 15 38
- 0.066 3 4 cbr 1000 ------- 0 1.0 5.1 20 34
r 0.0662 3 4 cbr 1000 ------- 0 1.0 5.1 18 30
+ 0.0662 4 5 cbr 1000 ------- 0 1.0 5.1 18 30
- 0.0662 4 5 cbr 1000 ------- 0 1.0 5.1 18 30
+ 0.066667 1 2 cbr 1000 ------- 0 1.0 5.1 25 42
- 0.066667 1 2 cbr 1000 ------- 0 1.0 5.1 25 42
r 0.067133 1 2 cbr 1000 ------- 0 1.0 5.1 23 39
+ 0.067133 2 3 cbr 1000 ------- 0 1.0 5.1 23 39
- 0.067133 2 3 cbr 1000 ------- 0 1.0 5.1 23 39
r 0.0672 4 5 cbr 1000 ------- 0 1.0 5.1 16 27
r 0.0676 2 3 cbr 1000 ------- 0 1.0 5.1 21 35
+ 0.0676 3 4 cbr 1000 ------- 0 1.0 5.1 21 35
- 0.0676 3 4 cbr 1000 ------- 0 1.0 5.1 21 35
r 0.0678 3 4 cbr 1000 ------- 0 0.0 5.0 12 31
+ 0.0678 4 5 cbr 1000 ------- 0 0.0 5.0 12 31
- 0.0678 4 5 cbr 1000 ------- 0 0.0 5.0 12 31
+ 0.068 0 2 cbr 1000 ------- 0 0.0 5.0 17 43
- 0.068 0 2 cbr 1000 ------- 0 0.0 5.0 17 43
r 0.0684 2 3 cbr 1000 ------- 0 0.0 5.0 14 36
+ 0.0684 3 4 cbr 1000 ------- 0 0.0 5.0 14 36
r 0.0688 4 5 cbr 1000 ------- 0 0.0 5.0 11 28
- 0.0692 3 4 cbr 1000 ------- 0 0.0 5.0 14 36
+ 0.069333 1 2 cbr 1000 ------- 0 1.0 5.1 26 44
- 0.069333 1 2 cbr 1000 ------- 0 1.0 5.1 26 44
r 0.0694 3 4 cbr 1000 ------- 0 1.0 5.1 19 32
+ 0.0694 4 5 cbr 1000 ------- 0 1.0 5.1 19 32
- 0.0694 4 5 cbr 1000 ------- 0 1.0 5.1 19 32
r 0.0698 1 2 cbr 1000 ------- 0 1.0 5.1 24 40
+ 0.0698 2 3 cbr 1000 ------- 0 1.0 5.1 24 40
- 0.0698 2 3 cbr 1000 ------- 0 1.0 5.1 24 40
r 0.0698 0 2 cbr 1000 ------- 0 0.0 5.0 16 41
+ 0.0698 2 3 cbr 1000 ------- 0 0.0 5.0 16 41
r 0.070267 2 3 cbr 1000 ------- 0 1.0 5.1 22 37
+ 0.070267 3 4 cbr 1000 ------- 0 1.0 5.1 22 37
r 0.0704 4 5 cbr 1000 ------- 0 1.0 5.1 17 29
- 0.0706 2 3 cbr 1000 ------- 0 0.0 5.0 16 41
- 0.0708 3 4 cbr 1000 ------- 0 1.0 5.1 22 37
r 0.071 3 4 cbr 1000 ------- 0 0.0 5.0 13 33
+ 0.071 4 5 cbr 1000 ------- 0 0.0 5.0 13 33
- 0.071 4 5 cbr 1000 ------- 0 0.0 5.0 13 33
r 0.0716 2 3 cbr 1000 ------- 0 0.0 5.0 15 38
+ 0.0716 3 4 cbr 1000 ------- 0 0.0 5.0 15 38
+ 0.072 1 2 cbr 1000 ------- 0 1.0 5.1 27 45
- 0.072 1 2 cbr 1000 ------- 0 1.0 5.1 27 45
r 0.072 4 5 cbr 1000 ------- 0 1.0 5.1 18 30
+ 0.072 0 2 cbr 1000 ------- 0 0.0 5.0 18 46
- 0.072 0 2 cbr 1000 ------- 0 0.0 5.0 18 46
- 0.0724 3 4 cbr 1000 ------- 0 0.0 5.0 15 38
r 0.072467 1 2 cbr 1000 ------- 0 1.0 5.1 25 42
+ 0.072467 2 3 cbr 1000 ------- 0 1.0 5.1 25 42
- 0.072467 2 3 cbr 1000 ------- 0 1.0 5.1 25 42
r 0.0726 3 4 cbr 1000 ------- 0 1.0 5.1 20 34
+ 0.0726 4 5 cbr 1000 ------- 0 1.0 5.1 20 34
- 0.0726 4 5 cbr 1000 ------- 0 1.0 5.1 20 34
r 0.072933 2 3 cbr 1000 ------- 0 1.0 5.1 23 39
+ 0.072933 3 4 cbr 1000 ------- 0 1.0 5.1 23 39
r 0.0736 4 5 cbr 1000 ------- 0 0.0 5.0 12 31
r 0.0738 0 2 cbr 1000 ------- 0 0.0 5.0 17 43
+ 0.0738 2 3 cbr 1000 ------- 0 0.0 5.0 17 43
- 0.0738 2 3 cbr 1000 ------- 0 0.0 5.0 17 43
- 0.074 3 4 cbr 1000 ------- 0 1.0 5.1 23 39
r 0.0742 3 4 cbr 1000 ------- 0 1.0 5.1 21 35
+ 0.0742 4 5 cbr 1000 ------- 0 1.0 5.1 21 35
- 0.0742 4 5 cbr 1000 ------- 0 1.0 5.1 21 35
+ 0.074667 1 2 cbr 1000 ------- 0 1.0 5.1 28 47
- 0.074667 1 2 cbr 1000 ------- 0 1.0 5.1 28 47
r 0.075133 1 2 cbr 1000 ------- 0 1.0 5.1 26 44
+ 0.075133 2 3 cbr 1000 ------- 0 1.0 5.1 26 44
- 0.075133 2 3 cbr 1000 ------- 0 1.0 5.1 26 44
r 0.0752 4 5 cbr 1000 ------- 0 1.0 5.1 19 32
r 0.0756 2 3 cbr 1000 ------- 0 1.0 5.1 24 40
+ 0.0756 3 4 cbr 1000 ------- 0 1.0 5.1 24 40
- 0.0756 3 4 cbr 1000 ------- 0 1.0 5.1 24 40
r 0.0758 3 4 cbr 1000 ------- 0 0.0 5.0 14 36
+ 0.0758 4 5 cbr 1000 ------- 0 0.0 5.0 14 36
- 0.0758 4 5 cbr 1000 ------- 0 0.0 5.0 14 36
+ 0.076 0 2 cbr 1000 ------- 0 0.0 5.0 19 48
- 0.076 0 2 cbr 1000 ------- 0 0.0 5.0 19 48
r 0.0764 2 3 cbr 1000 ------- 0 0.0 5.0 16 41
+ 0.0764 3 4 cbr 1000 ------- 0 0.0 5.0 16 41
r 0.0768 4 5 cbr 1000 ------- 0 0.0 5.0 13 33
- 0.0772 3 4 cbr 1000 ------- 0 0.0 5.0 16 41
+ 0.077333 1 2 cbr 1000 ------- 0 1.0 5.1 29 49
- 0.077333 1 2 cbr 1000 ------- 0 1.0 5.1 29 49
r 0.0774 3 4 cbr 1000 ------- 0 1.0 5.1 22 37
+ 0.0774 4 5 cbr 1000 ------- 0 1.0 5.1 22 37
- 0.0774 4 5 cbr 1000 ------- 0 1.0 5.1 22 37
r 0.0778 1 2 cbr 1000 ------- 0 1.0 5.1 27 45
+ 0.0778 2 3 cbr 1000 ------- 0 1.0 5.1 27 45
- 0.0778 2 3 cbr 1000 ------- 0 1.0 5.1 27 45
r 0.0778 0 2 cbr 1000 ------- 0 0.0 5.0 18 46
+ 0.0778 2 3 cbr 1000 ------- 0 0.0 5.0 18 46
r 0.078267 2 3 cbr 1000 ------- 0 1.0 5.1 25 42
+ 0.078267 3 4 cbr 1000 ------- 0 1.0 5.1 25 42
r 0.0784 4 5 cbr 1000 ------- 0 1.0 5.1 20 34
- 0.0786 2 3 cbr 1000 ------- 0 0.0 5.0 18 46
- 0.0788 3 4 cbr 1000 ------- 0 1.0 5.1 25 42
r 0.079 3 4 cbr 1000 ------- 0 0.0 5.0 15 38
+ 0.079 4 5 cbr 1000 ------- 0 0.0 5.0 15 38
- 0.079 4 5 cbr 1000 ------- 0 0.0 5.0 15 38
r 0.0796 2 3 cbr 1000 ------- 0 0.0 5.0 17 43
+ 0.0796 3 4 cbr 1000 ------- 0 0.0 5.0 17 43
+ 0.08 1 2 cbr 1000 ------- 0 1.0 5.1 30 50
- 0.08 1 2 cbr 1000 ------- 0 1.0 5.1 30 50
r 0.08 4 5 cbr 1000 ------- 0 1.0 5.1 21 35
+ 0.08 0 2 cbr 1000 ------- 0 0.0 5.0 20 51
- 0.08 0 2 cbr 1000 ------- 0 0.0 5.0 20 51
- 0.0804 3 4 cbr 1000 ------- 0 0.0 5.0 17 43
r 0.080467 1 2 cbr 1000 ------- 0 1.0 5.1 28 47
+ 0.080467 2 3 cbr 1000 ------- 0 1.0 5.1 28 47
- 0.080467 2 3 cbr 1000 ------- 0 1.0 5.1 28 47
r 0.0806 3 4 cbr 1000 ------- 0 1.0 5.1 23 39
+ 0.0806 4 5 cbr 1000 ------- 0 1.0 5.1 23 39
- 0.0806 4 5 cbr 1000 ------- 0 1.0 5.1 23 39
r 0.080933 2 3 cbr 1000 ------- 0 1.0 5.1 26 44
+ 0.080933 3 4 cbr 1000 ------- 0 1.0 5.1 26 44
r 0.0816 4 5 cbr 1000 ------- 0 0.0 5.0 14 36
r 0.0818 0 2 cbr 1000 ------- 0 0.0 5.0 19 48
+ 0.0818 2 3 cbr 1000 ------- 0 0.0 5.0 19 48
- 0.0818 2 3 cbr 1000 ------- 0 0.0 5.0 19 48
- 0.082 3 4 cbr 1000 ------- 0 1.0 5.1 26 44
r 0.0822 3 4 cbr 1000 ------- 0 1.0 5.1 24 40
+ 0.0822 4 5 cbr 1000 ------- 0 1.0 5.1 24 40
- 0.0822 4 5 cbr 1000 ------- 0 1.0 5.1 24 40
+ 0.082667 1 2 cbr 1000 ------- 0 1.0 5.1 31 52
- 0.082667 1 2 cbr 1000 ------- 0 1.0 5.1 31 52
r 0.083133 1 2 cbr 1000 ------- 0 1.0 5.1 29 49
+ 0.083133 2 3 cbr 1000 ------- 0 1.0 5.1 29 49
- 0.083133 2 3 cbr 1000 ------- 0 1.0 5.1 29 49
r 0.0832 4 5 cbr 1000 ------- 0 1.0 5.1 22 37
r 0.0836 2 3 cbr 1000 ------- 0 1.0 5.1 27 45
+ 0.0836 3 4 cbr 1000 ------- 0 1.0 5.1 27 45
- 0.0836 3 4 cbr 1000 ------- 0 1.0 5.1 27 45
r 0.0838 3 4 cbr 1000 ------- 0 0.0 5.0 16 41
+ 0.0838 4 5 cbr 1000 ------- 0 0.0 5.0 16 41
- 0.0838 4 5 cbr 1000 ------- 0 0.0 5.0 16 41
+ 0.084 0 2 cbr 1000 ------- 0 0.0 5.0 21 53
- 0.084 0 2 cbr 1000 ------- 0 0.0 5.0 21 53
r 0.0844 2 3 cbr 1000 ------- 0 0.0 5.0 18 46
+ 0.0844 3 4 cbr 1000 ------- 0 0.0 5.0 18 46
r 0.0848 4 5 cbr 1000 ------- 0 0.0 5.0 15 38
- 0.0852 3 4 cbr 1000 ------- 0 0.0 5.0 18 46
+ 0.085333 1 2 cbr 1000 ------- 0 1.0 5.1 32 54
- 0.085333 1 2 cbr 1000 ------- 0 1.0 5.1 32 54
r 0.0854 3 4 cbr 1000 ------- 0 1.0 5.1 25 42
+ 0.0854 4 5 cbr 1000 ------- 0 1.0 5.1 25 42
- 0.0854 4 5 cbr 1000 ------- 0 1.0 5.1 25 42
r 0.0858 1 2 cbr 1000 ------- 0 1.0 5.1 30 50
+ 0.0858 2 3 cbr 1000 ------- 0 1.0 5.1 30 50
- 0.0858 2 3 cbr 1000 ------- 0 1.0 5.1 30 50
r 0.0858 0 2 cbr 1000 ------- 0 0.0 5.0 20 51
+ 0.0858 2 3 cbr 1000 ------- 0 0.0 5.0 20 51
r 0.086267 2 3 cbr 1000 ------- 0 1.0 5.1 28 47
+ 0.086267 3 4 cbr 1000 ------- 0 1.0 5.1 28 47
r 0.0864 4 5 cbr 1000 ------- 0 1.0 5.1 23 39
- 0.0866 2 3 cbr 1000 ------- 0 0.0 5.0 20 51
- 0.0868 3 4 cbr 1000 ------- 0 1.0 5.1 28 47
r 0.087 3 4 cbr 1000 ------- 0 0.0 5.0 17 43
+ 0.087 4 5 cbr 1000 ------- 0 0.0 5.0 17 43
- 0.087 4 5 cbr 1000 ------- 0 0.0 5.0 17 43
r 0.0876 2 3 cbr 1000 ------- 0 0.0 5.0 19 48
+ 0.0876 3 4 cbr 1000 ------- 0 0.0 5.0 19 48
+ 0.088 1 2 cbr 1000 ------- 0 1.0 5.1 33 55
- 0.088 1 2 cbr 1000 ------- 0 1.0 5.1 33 55
r 0.088 4 5 cbr 1000 ------- 0 1.0 5.1 24 40
+ 0.088 0 2 cbr 1000 ------- 0 0.0 5.0 22 56
- 0.088 0 2 cbr 1000 ------- 0 0.0 5.0 22 56
- 0.0884 3 4 cbr 1000 ------- 0 0.0 5.0 19 48
r 0.088467 1 2 cbr 1000 ------- 0 1.0 5.1 31 52
+ 0.088467 2 3 cbr 1000 ------- 0 1.0 5.1 31 52
- 0.088467 2 3 cbr 1000 ------- 0 1.0 5.1 31 52
r 0.0886 3 4 cbr 1000 ------- 0 1.0 5.1 26 44
+ 0.0886 4 5 cbr 1000 ------- 0 1.0 5.1 26 44
- 0.0886 4 5 cbr 1000 ------- 0 1.0 5.1 26 44
r 0.088933 2 3 cbr 1000 ------- 0 1.0 5.1 29 49
+ 0.088933 3 4 cbr 1000 ------- 0 1.0 5.1 29 49
r 0.0896 4 5 cbr 1000 ------- 0 0.0 5.0 16 41
r 0.0898 0 2 cbr 1000 ------- 0 0.0 5.0 21 53
+ 0.0898 2 3 cbr 1000 ------- 0 0.0 5.0 21 53
- 0.0898 2 3 cbr 1000 ------- 0 0.0 5.0 21 53
- 0.09 3 4 cbr 1000 ------- 0 1.0 5.1 29 49
r 0.0902 3 4 cbr 1000 ------- 0 1.0 5.1 27 45
+ 0.0902 4 5 cbr 1000 ------- 0 1.0 5.1 27 45
- 0.0902 4 5 cbr 1000 ------- 0 1.0 5.1 27 45
+ 0.090667 1 2 cbr 1000 ------- 0 1.0 5.1 34 57
- 0.090667 1 2 cbr 1000 ------- 0 1.0 5.1 34 57
r 0.091133 1 2 cbr 1000 ------- 0 1.0 5.1 32 54
+ 0.091133 2 3 cbr 1000 ------- 0 1.0 5.1 32 54
- 0.091133 2 3 cbr 1000 ------- 0 1.0 5.1 32 54
r 0.0912 4 5 cbr 1000 ------- 0 1.0 5.1 25 42
r 0.0916 2 3 cbr 1000 ------- 0 1.0 5.1 30 50
+ 0.0916 3 4 cbr 1000 ------- 0 1.0 5.1 30 50
- 0.0916 3 4 cbr 1000 ------- 0 1.0 5.1 30 50
r 0.0918 3 4 cbr 1000 ------- 0 0.0 5.0 18 46
+ 0.0918 4 5 cbr 1000 ------- 0 0.0 5.0 18 46
- 0.0918 4 5 cbr 1000 ------- 0 0.0 5.0 18 46
+ 0.092 0 2 cbr 1000 ------- 0 0.0 5.0 23 58
- 0.092 0 2 cbr 1000 ------- 0 0.0 5.0 23 58
r 0.0924 2 3 cbr 1000 ------- 0 0.0 5.0 20 51
+ 0.0924 3 4 cbr 1000 ------- 0 0.0 5.0 20 51
r 0.0928 4 5 cbr 1000 ------- 0 0.0 5.0 17 43
- 0.0932 3 4 cbr 1000 ------- 0 0.0 5.0 20 51
+ 0.093333 1 2 cbr 1000 ------- 0 1.0 5.1 35 59
- 0.093333 1 2 cbr 1000 ------- 0 1.0 5.1 35 59
r 0.0934 3 4 cbr 1000 ------- 0 1.0 5.1 28 47
+ 0.0934 4 5 cbr 1000 ------- 0 1.0 5.1 28 47
- 0.0934 4 5 cbr 1000 ------- 0 1.0 5.1 28 47
r 0.0938 1 2 cbr 1000 ------- 0 1.0 5.1 33 55
+ 0.0938 2 3 cbr 1000 ------- 0 1.0 5.1 33 55
- 0.0938 2 3 cbr 1000 ------- 0 1.0 5.1 33 55
r 0.0938 0 2 cbr 1000 ------- 0 0.0 5.0 22 56
+ 0.0938 2 3 cbr 1000 ------- 0 0.0 5.0 22 56
r 0.094267 2 3 cbr 1000 ------- 0 1.0 5.1 31 52
+ 0.094267 3 4 cbr 1000 ------- 0 1.0 5.1 31 52
r 0.0944 4 5 cbr 1000 ------- 0 1.0 5.1 26 44
- 0.0946 2 3 cbr 1000 ------- 0 0.0 5.0 22 56
- 0.0948 3 4 cbr 1000 ------- 0 1.0 5.1 31 52
r 0.095 3 4 cbr 1000 ------- 0 0.0 5.0 19 48
+ 0.095 4 5 cbr 1000 ------- 0 0.0 5.0 19 48
- 0.095 4 5 cbr 1000 ------- 0 0.0 5.0 19 48
r 0.0956 2 3 cbr 1000 ------- 0 0.0 5.0 21 53
+ 0.0956 3 4 cbr 1000 ------- 0 0.0 5.0 21 53
+ 0.096 1 2 cbr 1000 ------- 0 1.0 5.1 36 60
- 0.096 1 2 cbr 1000 ------- 0 1.0 5.1 36 60
r 0.096 4 5 cbr 1000 ------- 0 1.0 5.1 27 45
+ 0.096 0 2 cbr 1000 ------- 0 0.0 5.0 24 61
- 0.096 0 2 cbr 1000 ------- 0 0.0 5.0 24 61
- 0.0964 3 4 cbr 1000 ------- 0 0.0 5.0 21 53
r 0.096467 1 2 cbr 1000 ------- 0 1.0 5.1 34 57
+ 0.096467 2 3 cbr 1000 ------- 0 1.0 5.1 34 57
- 0.096467 2 3 cbr 1000 ------- 0 1.0 5.1 34 57
r 0.0966 3 4 cbr 1000 ------- 0 1.0 5.1 29 49
+ 0.0966 4 5 cbr 1000 ------- 0 1.0 5.1 29 49
- 0.0966 4 5 cbr 1000 ------- 0 1.0 5.1 29 49