+ 0 0 2 cbr 1000 ------- 0 0.0 5.0 0 0
- 0 0 2 cbr 1000 ------- 0 0.0 5.0 0 0
+ 0 1 2 cbr 1000 ------- 0 1.0 5.1 0 1
- 0 1 2 cbr 1000 ------- 0 1.0 5.1 0 1
+ 0.002 0 2 cbr 1000 ------- 0 0.0 5.0 1 2
- 0.002 0 2 cbr 1000 ------- 0 0.0 5.0 1 2
+ 0.004 1 2 cbr 1000 ------- 0 1.0 5.1 1 3
- 0.004 1 2 cbr 1000 ------- 0 1.0 5.1 1 3
+ 0.004 0 2 cbr 1000 ------- 0 0.0 5.0 2 4
- 0.004 0 2 cbr 1000 ------- 0 0.0 5.0 2 4
r 0.0058 0 2 cbr 1000 ------- 0 0.0 5.0 0 0
+ 0.0058 2 3 cbr 1000 ------- 0 0.0 5.0 0 0
- 0.0058 2 3 cbr 1000 ------- 0 0.0 5.0 0 0
r 0.0058 1 2 cbr 1000 ------- 0 1.0 5.1 0 1
+ 0.0058 2 3 cbr 1000 ------- 0 1.0 5.1 0 1
+ 0.006 0 2 cbr 1000 ------- 0 0.0 5.0 3 5
- 0.006 0 2 cbr 1000 ------- 0 0.0 5.0 3 5
- 0.0066 2 3 cbr 1000 ------- 0 1.0 5.1 0 1
r 0.0078 0 2 cbr 1000 ------- 0 0.0 5.0 1 2
+ 0.0078 2 3 cbr 1000 ------- 0 0.0 5.0 1 2
- 0.0078 2 3 cbr 1000 ------- 0 0.0 5.0 1 2
+ 0.008 1 2 cbr 1000 ------- 0 1.0 5.1 2 6
- 0.008 1 2 cbr 1000 ------- 0 1.0 5.1 2 6
+ 0.008 0 2 cbr 1000 ------- 0 0.0 5.0 4 7
- 0.008 0 2 cbr 1000 ------- 0 0.0 5.0 4 7
r 0.0098 1 2 cbr 1000 ------- 0 1.0 5.1 1 3
+ 0.0098 2 3 cbr 1000 ------- 0 1.0 5.1 1 3
- 0.0098 2 3 cbr 1000 ------- 0 1.0 5.1 1 3
r 0.0098 0 2 cbr 1000 ------- 0 0.0 5.0 2 4
+ 0.0098 2 3 cbr 1000 ------- 0 0.0 5.0 2 4
+ 0.01 0 2 cbr 1000 ------- 0 0.0 5.0 5 8
- 0.01 0 2 cbr 1000 ------- 0 0.0 5.0 5 8
- 0.0106 2 3 cbr 1000 ------- 0 0.0 5.0 2 4
r 0.0116 2 3 cbr 1000 ------- 0 0.0 5.0 0 0
+ 0.0116 3 4 cbr 1000 ------- 0 0.0 5.0 0 0
- 0.0116 3 4 cbr 1000 ------- 0 0.0 5.0 0 0
r 0.0118 0 2 cbr 1000 ------- 0 0.0 5.0 3 5
+ 0.0118 2 3 cbr 1000 ------- 0 0.0 5.0 3 5
- 0.0118 2 3 cbr 1000 ------- 0 0.0 5.0 3 5
+ 0.012 1 2 cbr 1000 ------- 0 1.0 5.1 3 9
- 0.012 1 2 cbr 1000 ------- 0 1.0 5.1 3 9
+ 0.012 0 2 cbr 1000 ------- 0 0.0 5.0 6 10
- 0.012 0 2 cbr 1000 ------- 0 0.0 5.0 6 10
r 0.0124 2 3 cbr 1000 ------- 0 1.0 5.1 0 1
+ 0.0124 3 4 cbr 1000 ------- 0 1.0 5.1 0 1
- 0.0132 3 4 cbr 1000 ------- 0 1.0 5.1 0 1
r 0.0136 2 3 cbr 1000 ------- 0 0.0 5.0 1 2
+ 0.0136 3 4 cbr 1000 ------- 0 0.0 5.0 1 2
r 0.0138 1 2 cbr 1000 ------- 0 1.0 5.1 2 6
+ 0.0138 2 3 cbr 1000 ------- 0 1.0 5.1 2 6
- 0.0138 2 3 cbr 1000 ------- 0 1.0 5.1 2 6
r 0.0138 0 2 cbr 1000 ------- 0 0.0 5.0 4 7
+ 0.0138 2 3 cbr 1000 ------- 0 0.0 5.0 4 7
+ 0.014 0 2 cbr 1000 ------- 0 0.0 5.0 7 11
- 0.014 0 2 cbr 1000 ------- 0 0.0 5.0 7 11
- 0.0146 2 3 cbr 1000 ------- 0 0.0 5.0 4 7
- 0.0148 3 4 cbr 1000 ------- 0 0.0 5.0 1 2
r 0.0156 2 3 cbr 1000 ------- 0 1.0 5.1 1 3
+ 0.0156 3 4 cbr 1000 ------- 0 1.0 5.1 1 3
r 0.0158 0 2 cbr 1000 ------- 0 0.0 5.0 5 8
+ 0.0158 2 3 cbr 1000 ------- 0 0.0 5.0 5 8
- 0.0158 2 3 cbr 1000 ------- 0 0.0 5.0 5 8
+ 0.016 1 2 cbr 1000 ------- 0 1.0 5.1 4 12
- 0.016 1 2 cbr 1000 ------- 0 1.0 5.1 4 12
+ 0.016 0 2 cbr 1000 ------- 0 0.0 5.0 8 13
- 0.016 0 2 cbr 1000 ------- 0 0.0 5.0 8 13
r 0.0164 2 3 cbr 1000 ------- 0 0.0 5.0 2 4
+ 0.0164 3 4 cbr 1000 ------- 0 0.0 5.0 2 4
- 0.0164 3 4 cbr 1000 ------- 0 1.0 5.1 1 3
r 0.0176 2 3 cbr 1000 ------- 0 0.0 5.0 3 5
+ 0.0176 3 4 cbr 1000 ------- 0 0.0 5.0 3 5
r 0.0178 1 2 cbr 1000 ------- 0 1.0 5.1 3 9
+ 0.0178 2 3 cbr 1000 ------- 0 1.0 5.1 3 9
- 0.0178 2 3 cbr 1000 ------- 0 1.0 5.1 3 9
r 0.0178 0 2 cbr 1000 ------- 0 0.0 5.0 6 10
+ 0.0178 2 3 cbr 1000 ------- 0 0.0 5.0 6 10
+ 0.018 0 2 cbr 1000 ------- 0 0.0 5.0 9 14
- 0.018 0 2 cbr 1000 ------- 0 0.0 5.0 9 14
- 0.018 3 4 cbr 1000 ------- 0 0.0 5.0 2 4
r 0.0182 3 4 cbr 1000 ------- 0 0.0 5.0 0 0
+ 0.0182 4 5 cbr 1000 ------- 0 0.0 5.0 0 0
- 0.0182 4 5 cbr 1000 ------- 0 0.0 5.0 0 0
- 0.0186 2 3 cbr 1000 ------- 0 0.0 5.0 6 10
r 0.0196 2 3 cbr 1000 ------- 0 1.0 5.1 2 6
+ 0.0196 3 4 cbr 1000 ------- 0 1.0 5.1 2 6
- 0.0196 3 4 cbr 1000 ------- 0 0.0 5.0 3 5
r 0.0198 3 4 cbr 1000 ------- 0 1.0 5.1 0 1
+ 0.0198 4 5 cbr 1000 ------- 0 1.0 5.1 0 1
- 0.0198 4 5 cbr 1000 ------- 0 1.0 5.1 0 1
r 0.0198 0 2 cbr 1000 ------- 0 0.0 5.0 7 11
+ 0.0198 2 3 cbr 1000 ------- 0 0.0 5.0 7 11
- 0.0198 2 3 cbr 1000 ------- 0 0.0 5.0 7 11
+ 0.02 1 2 cbr 1000 ------- 0 1.0 5.1 5 15
- 0.02 1 2 cbr 1000 ------- 0 1.0 5.1 5 15
+ 0.02 0 2 cbr 1000 ------- 0 0.0 5.0 10 16
- 0.02 0 2 cbr 1000 ------- 0 0.0 5.0 10 16
r 0.0204 2 3 cbr 1000 ------- 0 0.0 5.0 4 7
+ 0.0204 3 4 cbr 1000 ------- 0 0.0 5.0 4 7
- 0.0212 3 4 cbr 1000 ------- 0 1.0 5.1 2 6
r 0.0214 3 4 cbr 1000 ------- 0 0.0 5.0 1 2
+ 0.0214 4 5 cbr 1000 ------- 0 0.0 5.0 1 2
- 0.0214 4 5 cbr 1000 ------- 0 0.0 5.0 1 2
r 0.0216 2 3 cbr 1000 ------- 0 0.0 5.0 5 8
+ 0.0216 3 4 cbr 1000 ------- 0 0.0 5.0 5 8
r 0.0218 1 2 cbr 1000 ------- 0 1.0 5.1 4 12
+ 0.0218 2 3 cbr 1000 ------- 0 1.0 5.1 4 12
- 0.0218 2 3 cbr 1000 ------- 0 1.0 5.1 4 12
r 0.0218 0 2 cbr 1000 ------- 0 0.0 5.0 8 13
+ 0.0218 2 3 cbr 1000 ------- 0 0.0 5.0 8 13
+ 0.022 0 2 cbr 1000 ------- 0 0.0 5.0 11 17
- 0.022 0 2 cbr 1000 ------- 0 0.0 5.0 11 17
- 0.0226 2 3 cbr 1000 ------- 0 0.0 5.0 8 13
- 0.0228 3 4 cbr 1000 ------- 0 0.0 5.0 4 7
r 0.023 3 4 cbr 1000 ------- 0 1.0 5.1 1 3
+ 0.023 4 5 cbr 1000 ------- 0 1.0 5.1 1 3
- 0.023 4 5 cbr 1000 ------- 0 1.0 5.1 1 3
r 0.0236 2 3 cbr 1000 ------- 0 1.0 5.1 3 9
+ 0.0236 3 4 cbr 1000 ------- 0 1.0 5.1 3 9
r 0.0238 0 2 cbr 1000 ------- 0 0.0 5.0 9 14
+ 0.0238 2 3 cbr 1000 ------- 0 0.0 5.0 9 14
- 0.0238 2 3 cbr 1000 ------- 0 0.0 5.0 9 14
r 0.024 4 5 cbr 1000 ------- 0 0.0 5.0 0 0
+ 0.024 1 2 cbr 1000 ------- 0 1.0 5.1 6 18
- 0.024 1 2 cbr 1000 ------- 0 1.0 5.1 6 18
+ 0.024 0 2 cbr 1000 ------- 0 0.0 5.0 12 19
- 0.024 0 2 cbr 1000 ------- 0 0.0 5.0 12 19
r 0.0244 2 3 cbr 1000 ------- 0 0.0 5.0 6 10
+ 0.0244 3 4 cbr 1000 ------- 0 0.0 5.0 6 10
- 0.0244 3 4 cbr 1000 ------- 0 0.0 5.0 5 8
r 0.0246 3 4 cbr 1000 ------- 0 0.0 5.0 2 4
+ 0.0246 4 5 cbr 1000 ------- 0 0.0 5.0 2 4
- 0.0246 4 5 cbr 1000 ------- 0 0.0 5.0 2 4
r 0.0256 4 5 cbr 1000 ------- 0 1.0 5.1 0 1
r 0.0256 2 3 cbr 1000 ------- 0 0.0 5.0 7 11
+ 0.0256 3 4 cbr 1000 ------- 0 0.0 5.0 7 11
r 0.0258 1 2 cbr 1000 ------- 0 1.0 5.1 5 15
+ 0.0258 2 3 cbr 1000 ------- 0 1.0 5.1 5 15
- 0.0258 2 3 cbr 1000 ------- 0 1.0 5.1 5 15
r 0.0258 0 2 cbr 1000 ------- 0 0.0 5.0 10 16
+ 0.0258 2 3 cbr 1000 ------- 0 0.0 5.0 10 16
- 0.026 3 4 cbr 1000 ------- 0 1.0 5.1 3 9
+ 0.026 0 2 cbr 1000 ------- 0 0.0 5.0 13 20
- 0.026 0 2 cbr 1000 ------- 0 0.0 5.0 13 20
r 0.0262 3 4 cbr 1000 ------- 0 0.0 5.0 3 5
+ 0.0262 4 5 cbr 1000 ------- 0 0.0 5.0 3 5
- 0.0262 4 5 cbr 1000 ------- 0 0.0 5.0 3 5
- 0.0266 2 3 cbr 1000 ------- 0 0.0 5.0 10 16
r 0.0272 4 5 cbr 1000 ------- 0 0.0 5.0 1 2
r 0.0276 2 3 cbr 1000 ------- 0 1.0 5.1 4 12
+ 0.0276 3 4 cbr 1000 ------- 0 1.0 5.1 4 12
- 0.0276 3 4 cbr 1000 ------- 0 0.0 5.0 6 10
r 0.0278 3 4 cbr 1000 ------- 0 1.0 5.1 2 6
+ 0.0278 4 5 cbr 1000 ------- 0 1.0 5.1 2 6
- 0.0278 4 5 cbr 1000 ------- 0 1.0 5.1 2 6
r 0.0278 0 2 cbr 1000 ------- 0 0.0 5.0 11 17
+ 0.0278 2 3 cbr 1000 ------- 0 0.0 5.0 11 17
- 0.0278 2 3 cbr 1000 ------- 0 0.0 5.0 11 17
+ 0.028 1 2 cbr 1000 ------- 0 1.0 5.1 7 21
- 0.028 1 2 cbr 1000 ------- 0 1.0 5.1 7 21
+ 0.028 0 2 cbr 1000 ------- 0 0.0 5.0 14 22
- 0.028 0 2 cbr 1000 ------- 0 0.0 5.0 14 22
r 0.0284 2 3 cbr 1000 ------- 0 0.0 5.0 8 13
+ 0.0284 3 4 cbr 1000 ------- 0 0.0 5.0 8 13
r 0.0288 4 5 cbr 1000 ------- 0 1.0 5.1 1 3
- 0.0292 3 4 cbr 1000 ------- 0 0.0 5.0 7 11
r 0.0294 3 4 cbr 1000 ------- 0 0.0 5.0 4 7
+ 0.0294 4 5 cbr 1000 ------- 0 0.0 5.0 4 7
- 0.0294 4 5 cbr 1000 ------- 0 0.0 5.0 4 7
r 0.0296 2 3 cbr 1000 ------- 0 0.0 5.0 9 14
+ 0.0296 3 4 cbr 1000 ------- 0 0.0 5.0 9 14
r 0.0298 1 2 cbr 1000 ------- 0 1.0 5.1 6 18
+ 0.0298 2 3 cbr 1000 ------- 0 1.0 5.1 6 18
- 0.0298 2 3 cbr 1000 ------- 0 1.0 5.1 6 18
r 0.0298 0 2 cbr 1000 ------- 0 0.0 5.0 12 19
+ 0.0298 2 3 cbr 1000 ------- 0 0.0 5.0 12 19
+ 0.03 0 2 cbr 1000 ------- 0 0.0 5.0 15 23
- 0.03 0 2 cbr 1000 ------- 0 0.0 5.0 15 23
r 0.0304 4 5 cbr 1000 ------- 0 0.0 5.0 2 4
- 0.0306 2 3 cbr 1000 ------- 0 0.0 5.0 12 19
- 0.0308 3 4 cbr 1000 ------- 0 1.0 5.1 4 12
r 0.031 3 4 cbr 1000 ------- 0 0.0 5.0 5 8
+ 0.031 4 5 cbr 1000 ------- 0 0.0 5.0 5 8
- 0.031 4 5 cbr 1000 ------- 0 0.0 5.0 5 8
r 0.0316 2 3 cbr 1000 ------- 0 1.0 5.1 5 15
+ 0.0316 3 4 cbr 1000 ------- 0 1.0 5.1 5 15
r 0.0318 0 2 cbr 1000 ------- 0 0.0 5.0 13 20
+ 0.0318 2 3 cbr 1000 ------- 0 0.0 5.0 13 20
- 0.0318 2 3 cbr 1000 ------- 0 0.0 5.0 13 20
r 0.032 4 5 cbr 1000 ------- 0 0.0 5.0 3 5
+ 0.032 1 2 cbr 1000 ------- 0 1.0 5.1 8 24
- 0.032 1 2 cbr 1000 ------- 0 1.0 5.1 8 24
+ 0.032 0 2 cbr 1000 ------- 0 0.0 5.0 16 25
- 0.032 0 2 cbr 1000 ------- 0 0.0 5.0 16 25
r 0.0324 2 3 cbr 1000 ------- 0 0.0 5.0 10 16
+ 0.0324 3 4 cbr 1000 ------- 0 0.0 5.0 10 16
- 0.0324 3 4 cbr 1000 ------- 0 0.0 5.0 8 13
r 0.0326 3 4 cbr 1000 ------- 0 1.0 5.1 3 9
+ 0.0326 4 5 cbr 1000 ------- 0 1.0 5.1 3 9
- 0.0326 4 5 cbr 1000 ------- 0 1.0 5.1 3 9
r 0.0336 4 5 cbr 1000 ------- 0 1.0 5.1 2 6
r 0.0336 2 3 cbr 1000 ------- 0 0.0 5.0 11 17
+ 0.0336 3 4 cbr 1000 ------- 0 0.0 5.0 11 17
r 0.0338 1 2 cbr 1000 ------- 0 1.0 5.1 7 21
+ 0.0338 2 3 cbr 1000 ------- 0 1.0 5.1 7 21
- 0.0338 2 3 cbr 1000 ------- 0 1.0 5.1 7 21
r 0.0338 0 2 cbr 1000 ------- 0 0.0 5.0 14 22
+ 0.0338 2 3 cbr 1000 ------- 0 0.0 5.0 14 22
- 0.034 3 4 cbr 1000 ------- 0 0.0 5.0 9 14
+ 0.034 0 2 cbr 1000 ------- 0 0.0 5.0 17 26
- 0.034 0 2 cbr 1000 ------- 0 0.0 5.0 17 26
r 0.0342 3 4 cbr 1000 ------- 0 0.0 5.0 6 10
+ 0.0342 4 5 cbr 1000 ------- 0 0.0 5.0 6 10
- 0.0342 4 5 cbr 1000 ------- 0 0.0 5.0 6 10
- 0.0346 2 3 cbr 1000 ------- 0 0.0 5.0 14 22
r 0.0352 4 5 cbr 1000 ------- 0 0.0 5.0 4 7
r 0.0356 2 3 cbr 1000 ------- 0 1.0 5.1 6 18
+ 0.0356 3 4 cbr 1000 ------- 0 1.0 5.1 6 18
- 0.0356 3 4 cbr 1000 ------- 0 1.0 5.1 5 15
r 0.0358 3 4 cbr 1000 ------- 0 0.0 5.0 7 11
+ 0.0358 4 5 cbr 1000 ------- 0 0.0 5.0 7 11
- 0.0358 4 5 cbr 1000 ------- 0 0.0 5.0 7 11
r 0.0358 0 2 cbr 1000 ------- 0 0.0 5.0 15 23
+ 0.0358 2 3 cbr 1000 ------- 0 0.0 5.0 15 23
- 0.0358 2 3 cbr 1000 ------- 0 0.0 5.0 15 23
+ 0.036 1 2 cbr 1000 ------- 0 1.0 5.1 9 27
- 0.036 1 2 cbr 1000 ------- 0 1.0 5.1 9 27
+ 0.036 0 2 cbr 1000 ------- 0 0.0 5.0 18 28
- 0.036 0 2 cbr 1000 ------- 0 0.0 5.0 18 28
r 0.0364 2 3 cbr 1000 ------- 0 0.0 5.0 12 19
+ 0.0364 3 4 cbr 1000 ------- 0 0.0 5.0 12 19
r 0.0368 4 5 cbr 1000 ------- 0 0.0 5.0 5 8
- 0.0372 3 4 cbr 1000 ------- 0 0.0 5.0 10 16
r 0.0374 3 4 cbr 1000 ------- 0 1.0 5.1 4 12
+ 0.0374 4 5 cbr 1000 ------- 0 1.0 5.1 4 12
- 0.0374 4 5 cbr 1000 ------- 0 1.0 5.1 4 12
r 0.0376 2 3 cbr 1000 ------- 0 0.0 5.0 13 20
+ 0.0376 3 4 cbr 1000 ------- 0 0.0 5.0 13 20
r 0.0378 1 2 cbr 1000 ------- 0 1.0 5.1 8 24
+ 0.0378 2 3 cbr 1000 ------- 0 1.0 5.1 8 24
- 0.0378 2 3 cbr 1000 ------- 0 1.0 5.1 8 24
r 0.0378 0 2 cbr 1000 ------- 0 0.0 5.0 16 25
+ 0.0378 2 3 cbr 1000 ------- 0 0.0 5.0 16 25
+ 0.038 0 2 cbr 1000 ------- 0 0.0 5.0 19 29
- 0.038 0 2 cbr 1000 ------- 0 0.0 5.0 19 29
r 0.0384 4 5 cbr 1000 ------- 0 1.0 5.1 3 9
- 0.0386 2 3 cbr 1000 ------- 0 0.0 5.0 16 25
- 0.0388 3 4 cbr 1000 ------- 0 0.0 5.0 11 17
r 0.039 3 4 cbr 1000 ------- 0 0.0 5.0 8 13
+ 0.039 4 5 cbr 1000 ------- 0 0.0 5.0 8 13
- 0.039 4 5 cbr 1000 ------- 0 0.0 5.0 8 13
r 0.0396 2 3 cbr 1000 ------- 0 1.0 5.1 7 21
+ 0.0396 3 4 cbr 1000 ------- 0 1.0 5.1 7 21
r 0.0398 0 2 cbr 1000 ------- 0 0.0 5.0 17 26
+ 0.0398 2 3 cbr 1000 ------- 0 0.0 5.0 17 26
- 0.0398 2 3 cbr 1000 ------- 0 0.0 5.0 17 26
r 0.04 4 5 cbr 1000 ------- 0 0.0 5.0 6 10
+ 0.04 1 2 cbr 1000 ------- 0 1.0 5.1 10 30
- 0.04 1 2 cbr 1000 ------- 0 1.0 5.1 10 30
+ 0.04 0 2 cbr 1000 ------- 0 0.0 5.0 20 31
- 0.04 0 2 cbr 1000 ------- 0 0.0 5.0 20 31
- 0.0404 3 4 cbr 1000 ------- 0 1.0 5.1 6 18
r 0.0404 2 3 cbr 1000 ------- 0 0.0 5.0 14 22
+ 0.0404 3 4 cbr 1000 ------- 0 0.0 5.0 14 22
r 0.0406 3 4 cbr 1000 ------- 0 0.0 5.0 9 14
+ 0.0406 4 5 cbr 1000 ------- 0 0.0 5.0 9 14
- 0.0406 4 5 cbr 1000 ------- 0 0.0 5.0 9 14
r 0.0416 4 5 cbr 1000 ------- 0 0.0 5.0 7 11
r 0.0416 2 3 cbr 1000 ------- 0 0.0 5.0 15 23
+ 0.0416 3 4 cbr 1000 ------- 0 0.0 5.0 15 23
r 0.0418 1 2 cbr 1000 ------- 0 1.0 5.1 9 27
+ 0.0418 2 3 cbr 1000 ------- 0 1.0 5.1 9 27
- 0.0418 2 3 cbr 1000 ------- 0 1.0 5.1 9 27
r 0.0418 0 2 cbr 1000 ------- 0 0.0 5.0 18 28
+ 0.0418 2 3 cbr 1000 ------- 0 0.0 5.0 18 28
- 0.042 3 4 cbr 1000 ------- 0 0.0 5.0 12 19
+ 0.042 0 2 cbr 1000 ------- 0 0.0 5.0 21 32
- 0.042 0 2 cbr 1000 ------- 0 0.0 5.0 21 32
r 0.0422 3 4 cbr 1000 ------- 0 1.0 5.1 5 15
+ 0.0422 4 5 cbr 1000 ------- 0 1.0 5.1 5 15
- 0.0422 4 5 cbr 1000 ------- 0 1.0 5.1 5 15
- 0.0426 2 3 cbr 1000 ------- 0 0.0 5.0 18 28
r 0.0432 4 5 cbr 1000 ------- 0 1.0 5.1 4 12
- 0.0436 3 4 cbr 1000 ------- 0 0.0 5.0 13 20
r 0.0436 2 3 cbr 1000 ------- 0 1.0 5.1 8 24
+ 0.0436 3 4 cbr 1000 ------- 0 1.0 5.1 8 24
r 0.0438 3 4 cbr 1000 ------- 0 0.0 5.0 10 16
+ 0.0438 4 5 cbr 1000 ------- 0 0.0 5.0 10 16
- 0.0438 4 5 cbr 1000 ------- 0 0.0 5.0 10 16
r 0.0438 0 2 cbr 1000 ------- 0 0.0 5.0 19 29
+ 0.0438 2 3 cbr 1000 ------- 0 0.0 5.0 19 29
- 0.0438 2 3 cbr 1000 ------- 0 0.0 5.0 19 29
+ 0.044 1 2 cbr 1000 ------- 0 1.0 5.1 11 33
- 0.044 1 2 cbr 1000 ------- 0 1.0 5.1 11 33
+ 0.044 0 2 cbr 1000 ------- 0 0.0 5.0 22 34
- 0.044 0 2 cbr 1000 ------- 0 0.0 5.0 22 34
r 0.0444 2 3 cbr 1000 ------- 0 0.0 5.0 16 25
+ 0.0444 3 4 cbr 1000 ------- 0 0.0 5.0 16 25
r 0.0448 4 5 cbr 1000 ------- 0 0.0 5.0 8 13
- 0.0452 3 4 cbr 1000 ------- 0 1.0 5.1 7 21
r 0.0454 3 4 cbr 1000 ------- 0 0.0 5.0 11 17
+ 0.0454 4 5 cbr 1000 ------- 0 0.0 5.0 11 17
- 0.0454 4 5 cbr 1000 ------- 0 0.0 5.0 11 17
r 0.0456 2 3 cbr 1000 ------- 0 0.0 5.0 17 26
+ 0.0456 3 4 cbr 1000 ------- 0 0.0 5.0 17 26
r 0.0458 1 2 cbr 1000 ------- 0 1.0 5.1 10 30
+ 0.0458 2 3 cbr 1000 ------- 0 1.0 5.1 10 30
- 0.0458 2 3 cbr 1000 ------- 0 1.0 5.1 10 30
r 0.0458 0 2 cbr 1000 ------- 0 0.0 5.0 20 31
+ 0.0458 2 3 cbr 1000 ------- 0 0.0 5.0 20 31
+ 0.046 0 2 cbr 1000 ------- 0 0.0 5.0 23 35
- 0.046 0 2 cbr 1000 ------- 0 0.0 5.0 23 35
r 0.0464 4 5 cbr 1000 ------- 0 0.0 5.0 9 14
- 0.0466 2 3 cbr 1000 ------- 0 0.0 5.0 20 31
- 0.0468 3 4 cbr 1000 ------- 0 0.0 5.0 14 22
r 0.047 3 4 cbr 1000 ------- 0 1.0 5.1 6 18
+ 0.047 4 5 cbr 1000 ------- 0 1.0 5.1 6 18
- 0.047 4 5 cbr 1000 ------- 0 1.0 5.1 6 18
r 0.0476 2 3 cbr 1000 ------- 0 1.0 5.1 9 27
+ 0.0476 3 4 cbr 1000 ------- 0 1.0 5.1 9 27
r 0.0478 0 2 cbr 1000 ------- 0 0.0 5.0 21 32
+ 0.0478 2 3 cbr 1000 ------- 0 0.0 5.0 21 32
- 0.0478 2 3 cbr 1000 ------- 0 0.0 5.0 21 32
r 0.048 4 5 cbr 1000 ------- 0 1.0 5.1 5 15
+ 0.048 1 2 cbr 1000 ------- 0 1.0 5.1 12 36
- 0.048 1 2 cbr 1000 ------- 0 1.0 5.1 12 36
+ 0.048 0 2 cbr 1000 ------- 0 0.0 5.0 24 37
- 0.048 0 2 cbr 1000 ------- 0 0.0 5.0 24 37
- 0.0484 3 4 cbr 1000 ------- 0 0.0 5.0 15 23
r 0.0484 2 3 cbr 1000 ------- 0 0.0 5.0 18 28
+ 0.0484 3 4 cbr 1000 ------- 0 0.0 5.0 18 28
r 0.0486 3 4 cbr 1000 ------- 0 0.0 5.0 12 19
+ 0.0486 4 5 cbr 1000 ------- 0 0.0 5.0 12 19
- 0.0486 4 5 cbr 1000 ------- 0 0.0 5.0 12 19
r 0.0496 4 5 cbr 1000 ------- 0 0.0 5.0 10 16
r 0.0496 2 3 cbr 1000 ------- 0 0.0 5.0 19 29
+ 0.0496 3 4 cbr 1000 ------- 0 0.0 5.0 19 29
r 0.0498 1 2 cbr 1000 ------- 0 1.0 5.1 11 33
+ 0.0498 2 3 cbr 1000 ------- 0 1.0 5.1 11 33
- 0.0498 2 3 cbr 1000 ------- 0 1.0 5.1 11 33
r 0.0498 0 2 cbr 1000 ------- 0 0.0 5.0 22 34
+ 0.0498 2 3 cbr 1000 ------- 0 0.0 5.0 22 34
- 0.05 3 4 cbr 1000 ------- 0 1.0 5.1 8 24
+ 0.05 0 2 cbr 1000 ------- 0 0.0 5.0 25 38
- 0.05 0 2 cbr 1000 ------- 0 0.0 5.0 25 38
r 0.0502 3 4 cbr 1000 ------- 0 0.0 5.0 13 20
+ 0.0502 4 5 cbr 1000 ------- 0 0.0 5.0 13 20
- 0.0502 4 5 cbr 1000 ------- 0 0.0 5.0 13 20
- 0.0506 2 3 cbr 1000 ------- 0 0.0 5.0 22 34
r 0.0512 4 5 cbr 1000 ------- 0 0.0 5.0 11 17
- 0.0516 3 4 cbr 1000 ------- 0 0.0 5.0 16 25
r 0.0516 2 3 cbr 1000 ------- 0 1.0 5.1 10 30
+ 0.0516 3 4 cbr 1000 ------- 0 1.0 5.1 10 30
r 0.0518 3 4 cbr 1000 ------- 0 1.0 5.1 7 21
+ 0.0518 4 5 cbr 1000 ------- 0 1.0 5.1 7 21
- 0.0518 4 5 cbr 1000 ------- 0 1.0 5.1 7 21
r 0.0518 0 2 cbr 1000 ------- 0 0.0 5.0 23 35
+ 0.0518 2 3 cbr 1000 ------- 0 0.0 5.0 23 35
- 0.0518 2 3 cbr 1000 ------- 0 0.0 5.0 23 35
+ 0.052 1 2 cbr 1000 ------- 0 1.0 5.1 13 39
- 0.052 1 2 cbr 1000 ------- 0 1.0 5.1 13 39
+ 0.052 0 2 cbr 1000 ------- 0 0.0 5.0 26 40
- 0.052 0 2 cbr 1000 ------- 0 0.0 5.0 26 40
r 0.0524 2 3 cbr 1000 ------- 0 0.0 5.0 20 31
+ 0.0524 3 4 cbr 1000 ------- 0 0.0 5.0 20 31
r 0.0528 4 5 cbr 1000 ------- 0 1.0 5.1 6 18
- 0.0532 3 4 cbr 1000 ------- 0 0.0 5.0 17 26
r 0.0534 3 4 cbr 1000 ------- 0 0.0 5.0 14 22
+ 0.0534 4 5 cbr 1000 ------- 0 0.0 5.0 14 22
- 0.0534 4 5 cbr 1000 ------- 0 0.0 5.0 14 22
r 0.0536 2 3 cbr 1000 ------- 0 0.0 5.0 21 32
+ 0.0536 3 4 cbr 1000 ------- 0 0.0 5.0 21 32
r 0.0538 1 2 cbr 1000 ------- 0 1.0 5.1 12 36
+ 0.0538 2 3 cbr 1000 ------- 0 1.0 5.1 12 36
- 0.0538 2 3 cbr 1000 ------- 0 1.0 5.1 12 36
r 0.0538 0 2 cbr 1000 ------- 0 0.0 5.0 24 37
+ 0.0538 2 3 cbr 1000 ------- 0 0.0 5.0 24 37
+ 0.054 0 2 cbr 1000 ------- 0 0.0 5.0 27 41
- 0.054 0 2 cbr 1000 ------- 0 0.0 5.0 27 41
r 0.0544 4 5 cbr 1000 ------- 0 0.0 5.0 12 19
- 0.0546 2 3 cbr 1000 ------- 0 0.0 5.0 24 37
- 0.0548 3 4 cbr 1000 ------- 0 1.0 5.1 9 27
r 0.055 3 4 cbr 1000 ------- 0 0.0 5.0 15 23
+ 0.055 4 5 cbr 1000 ------- 0 0.0 5.0 15 23
- 0.055 4 5 cbr 1000 ------- 0 0.0 5.0 15 23
r 0.0556 2 3 cbr 1000 ------- 0 1.0 5.1 11 33
+ 0.0556 3 4 cbr 1000 ------- 0 1.0 5.1 11 33
r 0.0558 0 2 cbr 1000 ------- 0 0.0 5.0 25 38
+ 0.0558 2 3 cbr 1000 ------- 0 0.0 5.0 25 38
- 0.0558 2 3 cbr 1000 ------- 0 0.0 5.0 25 38
r 0.056 4 5 cbr 1000 ------- 0 0.0 5.0 13 20
+ 0.056 1 2 cbr 1000 ------- 0 1.0 5.1 14 42
- 0.056 1 2 cbr 1000 ------- 0 1.0 5.1 14 42
+ 0.056 0 2 cbr 1000 ------- 0 0.0 5.0 28 43
- 0.056 0 2 cbr 1000 ------- 0 0.0 5.0 28 43
- 0.0564 3 4 cbr 1000 ------- 0 0.0 5.0 18 28
r 0.0564 2 3 cbr 1000 ------- 0 0.0 5.0 22 34
+ 0.0564 3 4 cbr 1000 ------- 0 0.0 5.0 22 34
r 0.0566 3 4 cbr 1000 ------- 0 1.0 5.1 8 24
+ 0.0566 4 5 cbr 1000 ------- 0 1.0 5.1 8 24
- 0.0566 4 5 cbr 1000 ------- 0 1.0 5.1 8 24
r 0.0576 4 5 cbr 1000 ------- 0 1.0 5.1 7 21
r 0.0576 2 3 cbr 1000 ------- 0 0.0 5.0 23 35
+ 0.0576 3 4 cbr 1000 ------- 0 0.0 5.0 23 35
r 0.0578 1 2 cbr 1000 ------- 0 1.0 5.1 13 39
+ 0.0578 2 3 cbr 1000 ------- 0 1.0 5.1 13 39
- 0.0578 2 3 cbr 1000 ------- 0 1.0 5.1 13 39
r 0.0578 0 2 cbr 1000 ------- 0 0.0 5.0 26 40
+ 0.0578 2 3 cbr 1000 ------- 0 0.0 5.0 26 40
- 0.058 3 4 cbr 1000 ------- 0 0.0 5.0 19 29
+ 0.058 0 2 cbr 1000 ------- 0 0.0 5.0 29 44
- 0.058 0 2 cbr 1000 ------- 0 0.0 5.0 29 44
r 0.0582 3 4 cbr 1000 ------- 0 0.0 5.0 16 25
+ 0.0582 4 5 cbr 1000 ------- 0 0.0 5.0 16 25
- 0.0582 4 5 cbr 1000 ------- 0 0.0 5.0 16 25
- 0.0586 2 3 cbr 1000 ------- 0 0.0 5.0 26 40
r 0.0592 4 5 cbr 1000 ------- 0 0.0 5.0 14 22
- 0.0596 3 4 cbr 1000 ------- 0 1.0 5.1 10 30
r 0.0596 2 3 cbr 1000 ------- 0 1.0 5.1 12 36
+ 0.0596 3 4 cbr 1000 ------- 0 1.0 5.1 12 36
r 0.0598 3 4 cbr 1000 ------- 0 0.0 5.0 17 26
+ 0.0598 4 5 cbr 1000 ------- 0 0.0 5.0 17 26
- 0.0598 4 5 cbr 1000 ------- 0 0.0 5.0 17 26
r 0.0598 0 2 cbr 1000 ------- 0 0.0 5.0 27 41
+ 0.0598 2 3 cbr 1000 ------- 0 0.0 5.0 27 41
- 0.0598 2 3 cbr 1000 ------- 0 0.0 5.0 27 41
+ 0.06 1 2 cbr 1000 ------- 0 1.0 5.1 15 45
- 0.06 1 2 cbr 1000 ------- 0 1.0 5.1 15 45
+ 0.06 0 2 cbr 1000 ------- 0 0.0 5.0 30 46
- 0.06 0 2 cbr 1000 ------- 0 0.0 5.0 30 46
r 0.0604 2 3 cbr 1000 ------- 0 0.0 5.0 24 37
+ 0.0604 3 4 cbr 1000 ------- 0 0.0 5.0 24 37
r 0.0608 4 5 cbr 1000 ------- 0 0.0 5.0 15 23
- 0.0612 3 4 cbr 1000 ------- 0 0.0 5.0 20 31
r 0.0614 3 4 cbr 1000 ------- 0 1.0 5.1 9 27
+ 0.0614 4 5 cbr 1000 ------- 0 1.0 5.1 9 27
- 0.0614 4 5 cbr 1000 ------- 0 1.0 5.1 9 27
r 0.0616 2 3 cbr 1000 ------- 0 0.0 5.0 25 38
+ 0.0616 3 4 cbr 1000 ------- 0 0.0 5.0 25 38
r 0.0618 1 2 cbr 1000 ------- 0 1.0 5.1 14 42
+ 0.0618 2 3 cbr 1000 ------- 0 1.0 5.1 14 42
- 0.0618 2 3 cbr 1000 ------- 0 1.0 5.1 14 42
r 0.0618 0 2 cbr 1000 ------- 0 0.0 5.0 28 43
+ 0.0618 2 3 cbr 1000 ------- 0 0.0 5.0 28 43
+ 0.062 0 2 cbr 1000 ------- 0 0.0 5.0 31 47
- 0.062 0 2 cbr 1000 ------- 0 0.0 5.0 31 47
r 0.0624 4 5 cbr 1000 ------- 0 1.0 5.1 8 24
- 0.0626 2 3 cbr 1000 ------- 0 0.0 5.0 28 43
- 0.0628 3 4 cbr 1000 ------- 0 0.0 5.0 21 32
r 0.063 3 4 cbr 1000 ------- 0 0.0 5.0 18 28
+ 0.063 4 5 cbr 1000 ------- 0 0.0 5.0 18 28
- 0.063 4 5 cbr 1000 ------- 0 0.0 5.0 18 28
r 0.0636 2 3 cbr 1000 ------- 0 1.0 5.1 13 39
+ 0.0636 3 4 cbr 1000 ------- 0 1.0 5.1 13 39
r 0.0638 0 2 cbr 1000 ------- 0 0.0 5.0 29 44
+ 0.0638 2 3 cbr 1000 ------- 0 0.0 5.0 29 44
- 0.0638 2 3 cbr 1000 ------- 0 0.0 5.0 29 44
r 0.064 4 5 cbr 1000 ------- 0 0.0 5.0 16 25
+ 0.064 1 2 cbr 1000 ------- 0 1.0 5.1 16 48
- 0.064 1 2 cbr 1000 ------- 0 1.0 5.1 16 48
+ 0.064 0 2 cbr 1000 ------- 0 0.0 5.0 32 49
- 0.064 0 2 cbr 1000 ------- 0 0.0 5.0 32 49
- 0.0644 3 4 cbr 1000 ------- 0 1.0 5.1 11 33
r 0.0644 2 3 cbr 1000 ------- 0 0.0 5.0 26 40
+ 0.0644 3 4 cbr 1000 ------- 0 0.0 5.0 26 40
r 0.0646 3 4 cbr 1000 ------- 0 0.0 5.0 19 29
+ 0.0646 4 5 cbr 1000 ------- 0 0.0 5.0 19 29
- 0.0646 4 5 cbr 1000 ------- 0 0.0 5.0 19 29
r 0.0656 4 5 cbr 1000 ------- 0 0.0 5.0 17 26
r 0.0656 2 3 cbr 1000 ------- 0 0.0 5.0 27 41
+ 0.0656 3 4 cbr 1000 ------- 0 0.0 5.0 27 41
r 0.0658 1 2 cbr 1000 ------- 0 1.0 5.1 15 45
+ 0.0658 2 3 cbr 1000 ------- 0 1.0 5.1 15 45
- 0.0658 2 3 cbr 1000 ------- 0 1.0 5.1 15 45
r 0.0658 0 2 cbr 1000 ------- 0 0.0 5.0 30 46
+ 0.0658 2 3 cbr 1000 ------- 0 0.0 5.0 30 46
- 0.066 3 4 cbr 1000 ------- 0 0.0 5.0 22 34
+ 0.066 0 2 cbr 1000 ------- 0 0.0 5.0 33 50
- 0.066 0 2 cbr 1000 ------- 0 0.0 5.0 33 50
r 0.0662 3 4 cbr 1000 ------- 0 1.0 5.1 10 30
+ 0.0662 4 5 cbr 1000 ------- 0 1.0 5.1 10 30
- 0.0662 4 5 cbr 1000 ------- 0 1.0 5.1 10 30
- 0.0666 2 3 cbr 1000 ------- 0 0.0 5.0 30 46
r 0.0672 4 5 cbr 1000 ------- 0 1.0 5.1 9 27
- 0.0676 3 4 cbr 1000 ------- 0 0.0 5.0 23 35
r 0.0676 2 3 cbr 1000 ------- 0 1.0 5.1 14 42
+ 0.0676 3 4 cbr 1000 ------- 0 1.0 5.1 14 42
r 0.0678 3 4 cbr 1000 ------- 0 0.0 5.0 20 31
+ 0.0678 4 5 cbr 1000 ------- 0 0.0 5.0 20 31
- 0.0678 4 5 cbr 1000 ------- 0 0.0 5.0 20 31
r 0.0678 0 2 cbr 1000 ------- 0 0.0 5.0 31 47
+ 0.0678 2 3 cbr 1000 ------- 0 0.0 5.0 31 47
- 0.0678 2 3 cbr 1000 ------- 0 0.0 5.0 31 47
+ 0.068 1 2 cbr 1000 ------- 0 1.0 5.1 17 51
- 0.068 1 2 cbr 1000 ------- 0 1.0 5.1 17 51
+ 0.068 0 2 cbr 1000 ------- 0 0.0 5.0 34 52
- 0.068 0 2 cbr 1000 ------- 0 0.0 5.0 34 52
r 0.0684 2 3 cbr 1000 ------- 0 0.0 5.0 28 43
+ 0.0684 3 4 cbr 1000 ------- 0 0.0 5.0 28 43
r 0.0688 4 5 cbr 1000 ------- 0 0.0 5.0 18 28
- 0.0692 3 4 cbr 1000 ------- 0 1.0 5.1 12 36
r 0.0694 3 4 cbr 1000 ------- 0 0.0 5.0 21 32
+ 0.0694 4 5 cbr 1000 ------- 0 0.0 5.0 21 32
- 0.0694 4 5 cbr 1000 ------- 0 0.0 5.0 21 32
r 0.0696 2 3 cbr 1000 ------- 0 0.0 5.0 29 44
+ 0.0696 3 4 cbr 1000 ------- 0 0.0 5.0 29 44
r 0.0698 1 2 cbr 1000 ------- 0 1.0 5.1 16 48
+ 0.0698 2 3 cbr 1000 ------- 0 1.0 5.1 16 48
- 0.0698 2 3 cbr 1000 ------- 0 1.0 5.1 16 48
r 0.0698 0 2 cbr 1000 ------- 0 0.0 5.0 32 49
+ 0.0698 2 3 cbr 1000 ------- 0 0.0 5.0 32 49
+ 0.07 0 2 cbr 1000 ------- 0 0.0 5.0 35 53
- 0.07 0 2 cbr 1000 ------- 0 0.0 5.0 35 53
r 0.0704 4 5 cbr 1000 ------- 0 0.0 5.0 19 29
- 0.0706 2 3 cbr 1000 ------- 0 0.0 5.0 32 49
- 0.0708 3 4 cbr 1000 ------- 0 0.0 5.0 24 37
r 0.071 3 4 cbr 1000 ------- 0 1.0 5.1 11 33
+ 0.071 4 5 cbr 1000 ------- 0 1.0 5.1 11 33
- 0.071 4 5 cbr 1000 ------- 0 1.0 5.1 11 33
r 0.0716 2 3 cbr 1000 ------- 0 1.0 5.1 15 45
+ 0.0716 3 4 cbr 1000 ------- 0 1.0 5.1 15 45
r 0.0718 0 2 cbr 1000 ------- 0 0.0 5.0 33 50
+ 0.0718 2 3 cbr 1000 ------- 0 0.0 5.0 33 50
- 0.0718 2 3 cbr 1000 ------- 0 0.0 5.0 33 50
r 0.072 4 5 cbr 1000 ------- 0 1.0 5.1 10 30
+ 0.072 1 2 cbr 1000 ------- 0 1.0 5.1 18 54
- 0.072 1 2 cbr 1000 ------- 0 1.0 5.1 18 54
+ 0.072 0 2 cbr 1000 ------- 0 0.0 5.0 36 55
- 0.072 0 2 cbr 1000 ------- 0 0.0 5.0 36 55
- 0.0724 3 4 cbr 1000 ------- 0 0.0 5.0 25 38
r 0.0724 2 3 cbr 1000 ------- 0 0.0 5.0 30 46
+ 0.0724 3 4 cbr 1000 ------- 0 0.0 5.0 30 46
r 0.0726 3 4 cbr 1000 ------- 0 0.0 5.0 22 34
+ 0.0726 4 5 cbr 1000 ------- 0 0.0 5.0 22 34
- 0.0726 4 5 cbr 1000 ------- 0 0.0 5.0 22 34
r 0.0736 4 5 cbr 1000 ------- 0 0.0 5.0 20 31
r 0.0736 2 3 cbr 1000 ------- 0 0.0 5.0 31 47
+ 0.0736 3 4 cbr 1000 ------- 0 0.0 5.0 31 47
r 0.0738 1 2 cbr 1000 ------- 0 1.0 5.1 17 51
+ 0.0738 2 3 cbr 1000 ------- 0 1.0 5.1 17 51
- 0.0738 2 3 cbr 1000 ------- 0 1.0 5.1 17 51
r 0.0738 0 2 cbr 1000 ------- 0 0.0 5.0 34 52
+ 0.0738 2 3 cbr 1000 ------- 0 0.0 5.0 34 52
- 0.074 3 4 cbr 1000 ------- 0 1.0 5.1 13 39
+ 0.074 0 2 cbr 1000 ------- 0 0.0 5.0 37 56
- 0.074 0 2 cbr 1000 ------- 0 0.0 5.0 37 56
r 0.0742 3 4 cbr 1000 ------- 0 0.0 5.0 23 35
+ 0.0742 4 5 cbr 1000 ------- 0 0.0 5.0 23 35
- 0.0742 4 5 cbr 1000 ------- 0 0.0 5.0 23 35
- 0.0746 2 3 cbr 1000 ------- 0 0.0 5.0 34 52
r 0.0752 4 5 cbr 1000 ------- 0 0.0 5.0 21 32
- 0.0756 3 4 cbr 1000 ------- 0 0.0 5.0 26 40
r 0.0756 2 3 cbr 1000 ------- 0 1.0 5.1 16 48
+ 0.0756 3 4 cbr 1000 ------- 0 1.0 5.1 16 48
r 0.0758 3 4 cbr 1000 ------- 0 1.0 5.1 12 36
+ 0.0758 4 5 cbr 1000 ------- 0 1.0 5.1 12 36
- 0.0758 4 5 cbr 1000 ------- 0 1.0 5.1 12 36
r 0.0758 0 2 cbr 1000 ------- 0 0.0 5.0 35 53
+ 0.0758 2 3 cbr 1000 ------- 0 0.0 5.0 35 53
- 0.0758 2 3 cbr 1000 ------- 0 0.0 5.0 35 53
+ 0.076 1 2 cbr 1000 ------- 0 1.0 5.1 19 57
- 0.076 1 2 cbr 1000 ------- 0 1.0 5.1 19 57
+ 0.076 0 2 cbr 1000 ------- 0 0.0 5.0 38 58
- 0.076 0 2 cbr 1000 ------- 0 0.0 5.0 38 58
r 0.0764 2 3 cbr 1000 ------- 0 0.0 5.0 32 49
+ 0.0764 3 4 cbr 1000 ------- 0 0.0 5.0 32 49
r 0.0768 4 5 cbr 1000 ------- 0 1.0 5.1 11 33
- 0.0772 3 4 cbr 1000 ------- 0 0.0 5.0 27 41
r 0.0774 3 4 cbr 1000 ------- 0 0.0 5.0 24 37
+ 0.0774 4 5 cbr 1000 ------- 0 0.0 5.0 24 37
- 0.0774 4 5 cbr 1000 ------- 0 0.0 5.0 24 37
r 0.0776 2 3 cbr 1000 ------- 0 0.0 5.0 33 50
+ 0.0776 3 4 cbr 1000 ------- 0 0.0 5.0 33 50
r 0.0778 1 2 cbr 1000 ------- 0 1.0 5.1 18 54
+ 0.0778 2 3 cbr 1000 ------- 0 1.0 5.1 18 54
- 0.0778 2 3 cbr 1000 ------- 0 1.0 5.1 18 54
r 0.0778 0 2 cbr 1000 ------- 0 0.0 5.0 36 55
+ 0.0778 2 3 cbr 1000 ------- 0 0.0 5.0 36 55
+ 0.078 0 2 cbr 1000 ------- 0 0.0 5.0 39 59
- 0.078 0 2 cbr 1000 ------- 0 0.0 5.0 39 59
r 0.0784 4 5 cbr 1000 ------- 0 0.0 5.0 22 34
- 0.0786 2 3 cbr 1000 ------- 0 0.0 5.0 36 55
- 0.0788 3 4 cbr 1000 ------- 0 1.0 5.1 14 42
r 0.079 3 4 cbr 1000 ------- 0 0.0 5.0 25 38
+ 0.079 4 5 cbr 1000 ------- 0 0.0 5.0 25 38
- 0.079 4 5 cbr 1000 ------- 0 0.0 5.0 25 38
r 0.0796 2 3 cbr 1000 ------- 0 1.0 5.1 17 51
+ 0.0796 3 4 cbr 1000 ------- 0 1.0 5.1 17 51
r 0.0798 0 2 cbr 1000 ------- 0 0.0 5.0 37 56
+ 0.0798 2 3 cbr 1000 ------- 0 0.0 5.0 37 56
- 0.0798 2 3 cbr 1000 ------- 0 0.0 5.0 37 56
r 0.08 4 5 cbr 1000 ------- 0 0.0 5.0 23 35
+ 0.08 1 2 cbr 1000 ------- 0 1.0 5.1 20 60
- 0.08 1 2 cbr 1000 ------- 0 1.0 5.1 20 60
+ 0.08 0 2 cbr 1000 ------- 0 0.0 5.0 40 61
- 0.08 0 2 cbr 1000 ------- 0 0.0 5.0 40 61
- 0.0804 3 4 cbr 1000 ------- 0 0.0 5.0 28 43
r 0.0804 2 3 cbr 1000 ------- 0 0.0 5.0 34 52
+ 0.0804 3 4 cbr 1000 ------- 0 0.0 5.0 34 52
r 0.0806 3 4 cbr 1000 ------- 0 1.0 5.1 13 39
+ 0.0806 4 5 cbr 1000 ------- 0 1.0 5.1 13 39
- 0.0806 4 5 cbr 1000 ------- 0 1.0 5.1 13 39
r 0.0816 4 5 cbr 1000 ------- 0 1.0 5.1 12 36
r 0.0816 2 3 cbr 1000 ------- 0 0.0 5.0 35 53
+ 0.0816 3 4 cbr 1000 ------- 0 0.0 5.0 35 53
r 0.0818 1 2 cbr 1000 ------- 0 1.0 5.1 19 57
+ 0.0818 2 3 cbr 1000 ------- 0 1.0 5.1 19 57
- 0.0818 2 3 cbr 1000 ------- 0 1.0 5.1 19 57
r 0.0818 0 2 cbr 1000 ------- 0 0.0 5.0 38 58
+ 0.0818 2 3 cbr 1000 ------- 0 0.0 5.0 38 58
- 0.082 3 4 cbr 1000 ------- 0 0.0 5.0 29 44
+ 0.082 0 2 cbr 1000 ------- 0 0.0 5.0 41 62
- 0.082 0 2 cbr 1000 ------- 0 0.0 5.0 41 62
r 0.0822 3 4 cbr 1000 ------- 0 0.0 5.0 26 40
+ 0.0822 4 5 cbr 1000 ------- 0 0.0 5.0 26 40
- 0.0822 4 5 cbr 1000 ------- 0 0.0 5.0 26 40
- 0.0826 2 3 cbr 1000 ------- 0 0.0 5.0 38 58
r 0.0832 4 5 cbr 1000 ------- 0 0.0 5.0 24 37
- 0.0836 3 4 cbr 1000 ------- 0 1.0 5.1 15 45
r 0.0836 2 3 cbr 1000 ------- 0 1.0 5.1 18 54
+ 0.0836 3 4 cbr 1000 ------- 0 1.0 5.1 18 54
r 0.0838 3 4 cbr 1000 ------- 0 0.0 5.0 27 41
+ 0.0838 4 5 cbr 1000 ------- 0 0.0 5.0 27 41
- 0.0838 4 5 cbr 1000 ------- 0 0.0 5.0 27 41
r 0.0838 0 2 cbr 1000 ------- 0 0.0 5.0 39 59
+ 0.0838 2 3 cbr 1000 ------- 0 0.0 5.0 39 59
- 0.0838 2 3 cbr 1000 ------- 0 0.0 5.0 39 59
+ 0.084 1 2 cbr 1000 ------- 0 1.0 5.1 21 63
- 0.084 1 2 cbr 1000 ------- 0 1.0 5.1 21 63
+ 0.084 0 2 cbr 1000 ------- 0 0.0 5.0 42 64
- 0.084 0 2 cbr 1000 ------- 0 0.0 5.0 42 64
r 0.0844 2 3 cbr 1000 ------- 0 0.0 5.0 36 55
+ 0.0844 3 4 cbr 1000 ------- 0 0.0 5.0 36 55
r 0.0848 4 5 cbr 1000 ------- 0 0.0 5.0 25 38
- 0.0852 3 4 cbr 1000 ------- 0 0.0 5.0 30 46
r 0.0854 3 4 cbr 1000 ------- 0 1.0 5.1 14 42
+ 0.0854 4 5 cbr 1000 ------- 0 1.0 5.1 14 42
- 0.0854 4 5 cbr 1000 ------- 0 1.0 5.1 14 42
r 0.0856 2 3 cbr 1000 ------- 0 0.0 5.0 37 56
+ 0.0856 3 4 cbr 1000 ------- 0 0.0 5.0 37 56
r 0.0858 1 2 cbr 1000 ------- 0 1.0 5.1 20 60
+ 0.0858 2 3 cbr 1000 ------- 0 1.0 5.1 20 60
- 0.0858 2 3 cbr 1000 ------- 0 1.0 5.1 20 60
r 0.0858 0 2 cbr 1000 ------- 0 0.0 5.0 40 61
+ 0.0858 2 3 cbr 1000 ------- 0 0.0 5.0 40 61
+ 0.086 0 2 cbr 1000 ------- 0 0.0 5.0 43 65
- 0.086 0 2 cbr 1000 ------- 0 0.0 5.0 43 65
r 0.0864 4 5 cbr 1000 ------- 0 1.0 5.1 13 39
- 0.0866 2 3 cbr 1000 ------- 0 0.0 5.0 40 61
- 0.0868 3 4 cbr 1000 ------- 0 0.0 5.0 31 47
r 0.087 3 4 cbr 1000 ------- 0 0.0 5.0 28 43
+ 0.087 4 5 cbr 1000 ------- 0 0.0 5.0 28 43
- 0.087 4 5 cbr 1000 ------- 0 0.0 5.0 28 43
r 0.0876 2 3 cbr 1000 ------- 0 1.0 5.1 19 57
+ 0.0876 3 4 cbr 1000 ------- 0 1.0 5.1 19 57
r 0.0878 0 2 cbr 1000 ------- 0 0.0 5.0 41 62
+ 0.0878 2 3 cbr 1000 ------- 0 0.0 5.0 41 62
- 0.0878 2 3 cbr 1000 ------- 0 0.0 5.0 41 62
r 0.088 4 5 cbr 1000 ------- 0 0.0 5.0 26 40
+ 0.088 1 2 cbr 1000 ------- 0 1.0 5.1 22 66
- 0.088 1 2 cbr 1000 ------- 0 1.0 5.1 22 66
+ 0.088 0 2 cbr 1000 ------- 0 0.0 5.0 44 67
- 0.088 0 2 cbr 1000 ------- 0 0.0 5.0 44 67
- 0.0884 3 4 cbr 1000 ------- 0 1.0 5.1 16 48
r 0.0884 2 3 cbr 1000 ------- 0 0.0 5.0 38 58